Title
81336
    1CHL1    C3    1   1.389   2.981  10.306  0.1463  0.0877  0.1051
    1CHL1    H3    2   1.367   2.875  10.278  0.9463 -0.4039  1.2806
    1CHL1    O3    3   1.399   2.976  10.444  0.4284  0.4782  0.4518
    1CHL1   H3'    4   1.475   2.917  10.445  1.2480  1.4136 -1.7749
    1CHL1    C4    5   1.513   3.056  10.242  0.0441 -0.1240 -0.1138
    1CHL1   H4A    6   1.498   3.157  10.286  0.8542 -1.3136  3.0588
    1CHL1   H4B    7   1.605   3.006  10.277  0.2293 -0.4142 -0.9961
    1CHL1    C5    8   1.515   3.070  10.095  0.2004 -0.2457  0.5214
    1CHL1    C6    9   1.614   3.026  10.020  0.1949 -0.2506  0.3863
    1CHL1    H6   10   1.709   2.996  10.065  1.4709 -2.3210 -3.4330
    1CHL1    C7   11   1.609   3.018   9.867  0.1554  0.1970 -0.1748
    1CHL1   H7A   12   1.697   3.060   9.814  0.6719 -2.3874 -1.4667
    1CHL1   H7B   13   1.625   2.910   9.844  1.6599  0.3733 -0.0113
    1CHL1    C8   14   1.477   3.082   9.801 -0.3166  1.0207  0.2955
    1CHL1    H8   15   1.506   3.189   9.790  2.3421  0.2247 -0.9620
    1CHL1   C14   16   1.452   3.019   9.665  0.1128  0.2801 -0.3959
    1CHL1   H14   17   1.418   2.914   9.678  1.1518  0.3696  3.6113
    1CHL1   C15   18   1.565   3.015   9.566  0.0963 -0.2591 -0.9975
    1CHL1  H15A   19   1.613   3.116   9.564  1.2639 -0.6530  2.4573
    1CHL1  H15B   20   1.653   2.958   9.604  1.0462  1.9219  0.2399
    1CHL1   C16   21   1.497   2.984   9.436  0.5522 -0.2864 -0.0822
    1CHL1  H16A   22   1.551   3.031   9.351  1.7150 -0.5449  0.5132
    1CHL1  H16B   23   1.502   2.876   9.409 -0.5015 -0.4668  0.4129
    1CHL1   C17   24   1.346   3.014   9.456  0.2981 -0.3431  0.3795
    1CHL1   H17   25   1.294   2.917   9.471  0.3079 -0.9174 -2.8141
    1CHL1   C13   26   1.335   3.087   9.592  0.1383 -0.0358  0.1404
    1CHL1   C18   27   1.357   3.240   9.567 -0.2818  0.6906 -0.7287
    1CHL1  H18A   28   1.391   3.283   9.664  0.4902  0.0547 -0.7107
    1CHL1  H18B   29   1.436   3.260   9.492 -0.6284 -0.3337 -1.3816
    1CHL1  H18C   30   1.262   3.290   9.540  0.3311  2.1818 -0.1707
    1CHL1   C12   31   1.198   3.066   9.669  0.0282 -0.5806  0.2629
    1CHL1  H12A   32   1.107   3.112   9.625  2.3168  3.1593 -0.7619
    1CHL1  H12B   33   1.192   2.955   9.678 -2.6216 -0.4721  0.1955
    1CHL1   C11   34   1.217   3.121   9.817 -0.0404 -0.1182  0.2884
    1CHL1  H11A   35   1.225   3.231   9.802 -3.6120  0.0246 -1.0262
    1CHL1  H11B   36   1.139   3.099   9.893 -1.3525 -2.1866 -1.6296
    1CHL1    C9   37   1.351   3.070   9.888 -0.4616  0.2651  0.0968
    1CHL1    H9   38   1.326   2.962   9.890 -0.2760  0.2421  2.7686
    1CHL1   C10   39   1.374   3.118  10.031 -0.1408 -0.1021 -0.2800
    1CHL1   C19   40   1.369   3.268  10.034  0.0662 -0.4980  0.3858
    1CHL1  H19A   41   1.387   3.309  10.136  3.6569 -1.1278  0.0595
    1CHL1  H19B   42   1.441   3.308   9.960  0.4761 -1.7559  0.1017
    1CHL1  H19C   43   1.269   3.309  10.005  0.3576 -0.6281 -0.8021
    1CHL1    C1   44   1.251   3.059  10.109  0.4232 -0.2650 -0.7786
    1CHL1   H1A   45   1.158   3.119  10.102 -0.2562 -1.2309 -0.1546
    1CHL1   H1B   46   1.217   2.956  10.084 -2.2285  0.4359 -0.1830
    1CHL1    C2   47   1.263   3.054  10.266 -0.0930 -0.0711 -0.1811
    1CHL1   H2A   48   1.168   3.008  10.302 -0.3292  1.5869  1.3904
    1CHL1   H2B   49   1.266   3.154  10.315  1.0795  0.3463 -1.0972
    1CHL1   C20   50   1.283   3.080   9.331  0.3825 -0.3231 -0.5798
    1CHL1   H20   51   1.306   3.188   9.335  1.3694 -0.5154 -0.8474
    1CHL1   C21   52   1.130   3.056   9.341  0.0447 -0.3220  0.5031
    1CHL1  H21A   53   1.104   2.951   9.364 -2.5822 -0.2444 -1.8230
    1CHL1  H21B   54   1.074   3.085   9.249 -3.0909 -2.2595  1.7378
    1CHL1  H21C   55   1.095   3.125   9.421 -0.6621  0.7938 -0.7351
    1CHL1   C22   56   1.339   3.025   9.192  0.4441 -0.2516 -0.3053
    1CHL1  H22A   57   1.448   3.043   9.199  0.0901  1.7687  0.2884
    1CHL1  H22B   58   1.311   2.918   9.178  1.5323 -0.3836 -1.5655
    1CHL1   C23   59   1.301   3.111   9.068 -0.5608 -0.3060 -0.2699
    1CHL1  H23A   60   1.195   3.087   9.044 -0.7748  1.7946 -1.5403
    1CHL1  H23B   61   1.317   3.216   9.100 -1.1365  0.0892 -1.2430
    1CHL1   C24   62   1.391   3.080   8.946 -0.2533  0.0917  0.6257
    1CHL1  H24A   63   1.499   3.078   8.974 -0.4224  0.9468  1.3624
    1CHL1  H24B   64   1.377   2.982   8.896 -0.2165 -0.2076  1.1961
    1CHL1   C25   65   1.368   3.195   8.844 -0.1637  0.2209 -0.1006
    1CHL1   H25   66   1.401   3.285   8.900  2.0191  1.6650 -3.4853
    1CHL1   C26   67   1.447   3.171   8.715  0.4083  0.6528 -0.4662
    1CHL1  H26A   68   1.431   3.255   8.645  0.5367  3.0597  2.2770
    1CHL1  H26B   69   1.555   3.149   8.730  0.8837  3.0780 -0.1857
    1CHL1  H26C   70   1.404   3.078   8.673 -2.0675  1.2320  0.7260
    1CHL1   C27   71   1.222   3.212   8.809  0.2426 -0.1891  0.7358
    1CHL1  H27A   72   1.172   3.268   8.891 -1.4375  0.9899 -1.0252
    1CHL1  H27B   73   1.224   3.295   8.735 -0.6690 -1.8572 -1.1989
    1CHL1  H27C   74   1.171   3.118   8.777 -0.2206  0.4282 -0.3744
    2CHL1    C3   75   2.532   0.739  10.078  0.6457 -0.1133  0.1722
    2CHL1    H3   76   2.425   0.769  10.075  0.1910 -1.5157  1.3679
    2CHL1    O3   77   2.567   0.737  10.212 -0.4055 -0.6293 -0.1211
    2CHL1   H3'   78   2.583   0.644  10.229  0.1688 -0.5465 -0.1813
    2CHL1    C4   79   2.546   0.602  10.009 -0.3490 -0.6831  0.0987
    2CHL1   H4A   80   2.647   0.560  10.025  0.7236  1.4599 -0.8348
    2CHL1   H4B   81   2.475   0.531  10.056  3.0182 -3.4153  1.2342
    2CHL1    C5   82   2.504   0.614   9.865 -0.6200  0.2650  1.1925
    2CHL1    C6   83   2.412   0.545   9.803  0.7244  0.5477  0.0558
    2CHL1    H6   84   2.356   0.461   9.846  2.0325 -0.5174 -0.2713
    2CHL1    C7   85   2.390   0.545   9.655  0.1630  0.7953  0.8344
    2CHL1   H7A   86   2.363   0.446   9.611  1.9136  0.9770 -0.6711
    2CHL1   H7B   87   2.300   0.607   9.635 -0.9454 -0.9618  0.2167
    2CHL1    C8   88   2.507   0.604   9.569  0.3529  0.2680 -0.2438
    2CHL1    H8   89   2.597   0.540   9.564  1.3261  1.4018  1.8279
    2CHL1   C14   90   2.461   0.640   9.430  0.3308  0.1180 -0.2584
    2CHL1   H14   91   2.381   0.714   9.450  0.8251 -0.4554  4.7106
    2CHL1   C15   92   2.394   0.530   9.347 -0.3106 -0.2262  0.7061
    2CHL1  H15A   93   2.454   0.437   9.353 -0.3763 -0.2221  1.5076
    2CHL1  H15B   94   2.294   0.506   9.390 -1.3303  3.4920  0.6396
    2CHL1   C16   95   2.393   0.583   9.204 -0.0796  0.5534  0.0806
    2CHL1  H16A   96   2.443   0.510   9.137  0.3677  0.8574  0.0845
    2CHL1  H16B   97   2.289   0.601   9.169  0.3383  1.4824 -0.6954
    2CHL1   C17   98   2.475   0.714   9.207  0.3552  0.6146 -0.2188
    2CHL1   H17   99   2.402   0.796   9.223 -0.9064 -0.2912 -1.1837
    2CHL1   C13  100   2.561   0.704   9.337 -0.3464 -0.4128 -0.2834
    2CHL1   C18  101   2.685   0.623   9.312 -0.1031 -0.2215  0.1158
    2CHL1  H18A  102   2.659   0.525   9.266 -1.9694  0.6221 -0.7147
    2CHL1  H18B  103   2.771   0.678   9.267  0.3560 -1.1114 -0.1121
    2CHL1  H18C  104   2.727   0.599   9.412 -1.2721  1.4685  1.0308
    2CHL1   C12  105   2.604   0.838   9.403  0.3850  0.1043  0.2130
    2CHL1  H12A  106   2.688   0.871   9.338 -1.2776  0.9494 -1.5361
    2CHL1  H12B  107   2.521   0.912   9.400 -1.1239 -1.5589  0.1940
    2CHL1   C11  108   2.654   0.819   9.544  0.3458  0.4316  0.1815
    2CHL1  H11A  109   2.753   0.767   9.548 -0.5175 -1.1334  4.5091
    2CHL1  H11B  110   2.668   0.917   9.593 -0.1882 -0.1456  1.5186
    2CHL1    C9  111   2.557   0.737   9.637  0.6318  0.3908 -0.4322
    2CHL1    H9  112   2.466   0.800   9.631 -1.0707 -2.0399 -1.1503
    2CHL1   C10  113   2.597   0.718   9.787  0.6374 -0.2024  0.0073
    2CHL1   C19  114   2.740   0.659   9.785 -1.1163 -0.2701 -0.5196
    2CHL1  H19A  115   2.750   0.567   9.724 -0.9805 -0.5460 -0.0826
    2CHL1  H19B  116   2.822   0.722   9.745 -2.4647  1.1178 -1.1283
    2CHL1  H19C  117   2.766   0.626   9.888 -4.0055  1.2568  0.7523
    2CHL1    C1  118   2.590   0.851   9.865  0.1390 -0.1159 -0.2731
    2CHL1   H1A  119   2.651   0.923   9.806 -1.3594  0.4720 -1.1312
    2CHL1   H1B  120   2.483   0.881   9.862  0.1942  0.3010  1.3116
    2CHL1    C2  121   2.620   0.841  10.013 -0.2201 -0.1447  0.2707
    2CHL1   H2A  122   2.596   0.936  10.066 -0.6838 -0.2619  0.2761
    2CHL1   H2B  123   2.725   0.815  10.040  0.7581  2.4272 -0.8915
    2CHL1   C20  124   2.549   0.739   9.067  0.1909 -0.2729 -0.1494
    2CHL1   H20  125   2.614   0.650   9.057 -0.6995 -0.8344 -0.9822
    2CHL1   C21  126   2.634   0.879   9.076 -0.1401  0.2358 -0.1652
    2CHL1  H21A  127   2.663   0.929   8.981 -0.1017 -0.9936 -0.8190
    2CHL1  H21B  128   2.727   0.866   9.135 -0.1047 -1.0788 -0.4791
    2CHL1  H21C  129   2.562   0.953   9.115 -1.4886 -0.6141 -1.0105
    2CHL1   C22  130   2.451   0.749   8.946  0.5111 -0.4273  1.0828
    2CHL1  H22A  131   2.388   0.658   8.944 -0.3774  0.1210  2.4407
    2CHL1  H22B  132   2.387   0.839   8.960  0.5257 -0.4876  1.5409
    2CHL1   C23  133   2.522   0.756   8.804  0.0136 -0.2297 -0.3537
    2CHL1  H23A  134   2.585   0.847   8.806 -1.0058  0.4963 -0.6399
    2CHL1  H23B  135   2.576   0.662   8.781 -0.0392 -0.6632  1.2324
    2CHL1   C24  136   2.419   0.787   8.693  0.7645  0.7447  0.5035
    2CHL1  H24A  137   2.325   0.733   8.720  0.3420  0.9099 -0.6089
    2CHL1  H24B  138   2.417   0.898   8.694 -1.5725  0.7634 -1.3032
    2CHL1   C25  139   2.456   0.753   8.543 -0.3925  0.7995 -0.1442
    2CHL1   H25  140   2.473   0.644   8.546 -0.2230  0.7909 -1.3149
    2CHL1   C26  141   2.327   0.782   8.454  0.1539 -0.8008  0.1649
    2CHL1  H26A  142   2.301   0.890   8.458 -1.2727 -1.0960 -0.6950
    2CHL1  H26B  143   2.333   0.757   8.346  1.2971 -0.1206  0.0575
    2CHL1  H26C  144   2.242   0.733   8.506 -1.5095  1.0683 -0.7010
    2CHL1   C27  145   2.572   0.833   8.495 -0.2923 -0.2282  0.5911
    2CHL1  H27A  146   2.560   0.940   8.521 -0.4558  0.1735 -1.0835
    2CHL1  H27B  147   2.658   0.793   8.553 -1.5264 -1.9522  1.2578
    2CHL1  H27C  148   2.582   0.819   8.385 -0.4827 -2.6080  0.8345
    3CHL1    C3  149   3.212   0.567  10.217 -0.2244 -1.2003  0.1226
    3CHL1    H3  150   3.179   0.468  10.178  0.2728 -1.9614  1.6095
    3CHL1    O3  151   3.237   0.560  10.360 -0.3200 -0.1911  0.8034
    3CHL1   H3'  152   3.152   0.537  10.399 -2.6558 -0.0625 -3.7518
    3CHL1    C4  153   3.339   0.602  10.151 -0.8585 -0.0642  0.0726
    3CHL1   H4A  154   3.375   0.699  10.194 -2.7237  0.5331  0.3226
    3CHL1   H4B  155   3.413   0.525  10.181 -0.3679  0.7089  0.9027
    3CHL1    C5  156   3.333   0.630  10.001  0.2040  0.2150 -0.0692
    3CHL1    C6  157   3.411   0.560   9.922  0.4303  0.0038 -0.2417
    3CHL1    H6  158   3.471   0.481   9.971  1.1117  0.9186  0.4036
    3CHL1    C7  159   3.420   0.569   9.778  0.0290  0.3903 -0.1277
    3CHL1   H7A  160   3.525   0.581   9.743 -0.1037  0.5068 -0.4862
    3CHL1   H7B  161   3.374   0.480   9.729  0.3050  0.2524 -0.1338
    3CHL1    C8  162   3.356   0.702   9.731 -0.1239  0.5086  0.5722
    3CHL1    H8  163   3.429   0.784   9.751  1.1746 -0.1712 -1.2517
    3CHL1   C14  164   3.326   0.684   9.581 -1.3559 -0.2475  0.5671
    3CHL1   H14  165   3.263   0.593   9.566 -0.7216 -0.9570  2.1678
    3CHL1   C15  166   3.442   0.652   9.488  0.3099  0.0718 -0.4399
    3CHL1  H15A  167   3.524   0.723   9.511  1.6344 -1.5017 -0.1792
    3CHL1  H15B  168   3.471   0.546   9.505 -2.7713 -1.3274 -3.2634
    3CHL1   C16  169   3.386   0.681   9.350 -0.6283  1.0884 -0.3694
    3CHL1  H16A  170   3.461   0.744   9.297 -0.2902  0.2390 -0.9318
    3CHL1  H16B  171   3.377   0.582   9.299  1.7311  0.1820  0.8974
    3CHL1   C17  172   3.249   0.755   9.373 -0.0338  1.3382  0.0163
    3CHL1   H17  173   3.171   0.676   9.372 -0.6589  1.9589 -3.0643
    3CHL1   C13  174   3.255   0.800   9.511 -0.4523  0.5569 -1.0539
    3CHL1   C18  175   3.345   0.932   9.507  0.5063 -0.3150  0.3970
    3CHL1  H18A  176   3.405   0.941   9.600 -2.0088 -0.4338  2.0657
    3CHL1  H18B  177   3.418   0.913   9.425 -0.2024  0.4618 -0.4242
    3CHL1  H18C  178   3.290   1.021   9.471  3.1948  1.3177  0.1663
    3CHL1   C12  179   3.131   0.836   9.590 -0.1812  0.3454 -0.3073
    3CHL1  H12A  180   3.068   0.917   9.548  0.3550 -0.3893 -2.5791
    3CHL1  H12B  181   3.058   0.752   9.591 -0.2642  0.4171  1.6949
    3CHL1   C11  182   3.153   0.857   9.736 -0.0726  0.4767 -0.1700
    3CHL1  H11A  183   3.226   0.940   9.749  1.6702 -0.9240 -0.8336
    3CHL1  H11B  184   3.058   0.861   9.793 -0.2391 -2.9239 -0.1104
    3CHL1    C9  185   3.221   0.729   9.804 -0.0401 -0.9328  0.3202
    3CHL1    H9  186   3.155   0.644   9.777  0.0197  0.1929 -3.6671
    3CHL1   C10  187   3.236   0.740   9.955  0.0526  1.0446  0.0921
    3CHL1   C19  188   3.285   0.876  10.001  0.1151 -0.5545 -0.3806
    3CHL1  H19A  189   3.218   0.956   9.962 -0.8731 -0.8152  0.7649
    3CHL1  H19B  190   3.273   0.896  10.109 -1.2216  0.5801 -0.7292
    3CHL1  H19C  191   3.389   0.889   9.964  0.7021  0.1802  1.4689
    3CHL1    C1  192   3.105   0.698  10.032  0.2318  0.4406  0.3561
    3CHL1   H1A  193   3.035   0.781  10.010 -0.3430 -0.6170 -1.9089
    3CHL1   H1B  194   3.068   0.606   9.982 -2.2608  1.4721  0.2793
    3CHL1    C2  195   3.119   0.685  10.182  0.5620  0.1665  0.8679
    3CHL1   H2A  196   3.023   0.680  10.238  0.2078  1.5075  0.3869
    3CHL1   H2B  197   3.172   0.773  10.223 -1.0136  1.9243 -0.7507
    3CHL1   C20  198   3.202   0.851   9.260 -0.1985 -0.6562  0.0769
    3CHL1   H20  199   3.272   0.938   9.257 -2.4499  1.2007 -0.1723
    3CHL1   C21  200   3.061   0.915   9.294 -0.0940  0.1512  0.0718
    3CHL1  H21A  201   3.010   0.965   9.209 -2.8704  0.8906  2.0855
    3CHL1  H21B  202   3.082   0.986   9.376 -0.2888 -0.6976  0.8658
    3CHL1  H21C  203   2.996   0.830   9.325 -1.8002  0.8330 -1.5112
    3CHL1   C22  204   3.199   0.786   9.121 -0.4699 -0.4409 -0.1509
    3CHL1  H22A  205   3.298   0.791   9.071 -1.4560  1.6008 -1.9962
    3CHL1  H22B  206   3.170   0.679   9.124  0.8667 -0.7997  0.6039
    3CHL1   C23  207   3.100   0.847   9.017 -0.3530  0.2457  0.2836
    3CHL1  H23A  208   2.995   0.824   9.044 -0.1195 -1.6884 -0.3509
    3CHL1  H23B  209   3.115   0.956   9.031 -0.5835  0.0470  2.1682
    3CHL1   C24  210   3.135   0.801   8.870 -0.5148  0.0964 -0.9143
    3CHL1  H24A  211   3.239   0.815   8.832 -0.5046 -0.3851 -1.0737
    3CHL1  H24B  212   3.125   0.691   8.857 -0.6879  0.0950 -0.7687
    3CHL1   C25  213   3.025   0.857   8.769  0.3193  0.4009  0.0582
    3CHL1   H25  214   3.027   0.968   8.782  0.1437  0.6695 -2.0155
    3CHL1   C26  215   3.071   0.831   8.625  0.3899 -0.3579 -0.6096
    3CHL1  H26A  216   3.164   0.888   8.602  0.0639  0.0512 -0.9228
    3CHL1  H26B  217   3.086   0.724   8.603 -1.1720 -0.2584 -2.2617
    3CHL1  H26C  218   2.983   0.859   8.564 -1.5672  0.0403  2.2840
    3CHL1   C27  219   2.889   0.798   8.793  0.2697  1.0158 -0.4310
    3CHL1  H27A  220   2.896   0.688   8.789  1.6114  1.0169  1.1865
    3CHL1  H27B  221   2.851   0.820   8.895 -0.5513 -0.2698 -0.4587
    3CHL1  H27C  222   2.814   0.837   8.721 -2.1666  0.6642  1.8195
    4CHL1    C3  223   2.319   2.394  10.425 -0.3025  0.3313 -0.7975
    4CHL1    H3  224   2.430   2.388  10.430 -0.5160 -2.8308  1.4593
    4CHL1    O3  225   2.272   2.392  10.560 -0.7452  0.1961 -0.6583
    4CHL1   H3'  226   2.182   2.360  10.552 -0.3367 -0.9896 -0.5381
    4CHL1    C4  227   2.279   2.524  10.360  0.2122 -0.0519  0.5809
    4CHL1   H4A  228   2.172   2.535  10.388 -0.1865 -0.6058 -0.6865
    4CHL1   H4B  229   2.334   2.604  10.414 -1.7895  2.0484 -0.4194
    4CHL1    C5  230   2.306   2.525  10.211  0.0576  0.5153  0.1656
    4CHL1    C6  231   2.375   2.622  10.157  0.1517  0.2168  0.4625
    4CHL1    H6  232   2.417   2.701  10.221 -0.0543 -0.1499  1.0532
    4CHL1    C7  233   2.402   2.628  10.008  0.1388 -0.1879  0.6889
    4CHL1   H7A  234   2.414   2.734   9.978 -0.3381 -0.0353  1.0263
    4CHL1   H7B  235   2.499   2.576   9.994  0.6011  0.6970  0.5693
    4CHL1    C8  236   2.300   2.556   9.927  0.0252 -0.7085 -0.2935
    4CHL1    H8  237   2.210   2.620   9.940  0.4184  0.0683 -1.4071
    4CHL1   C14  238   2.352   2.549   9.786 -0.2558  1.2888 -0.2641
    4CHL1   H14  239   2.442   2.484   9.795 -1.4751 -0.4941 -0.5476
    4CHL1   C15  240   2.396   2.678   9.711 -0.0123 -0.6986  0.0994
    4CHL1  H15A  241   2.331   2.766   9.734  2.9852  1.4785  0.6418
    4CHL1  H15B  242   2.496   2.711   9.746  0.3623 -0.1253 -1.4851
    4CHL1   C16  243   2.399   2.628   9.564  0.5583 -0.5272  0.3917
    4CHL1  H16A  244   2.364   2.708   9.496 -1.3545 -2.0593 -0.4635
    4CHL1  H16B  245   2.499   2.591   9.532  1.1298 -0.5430  2.1586
    4CHL1   C17  246   2.315   2.503   9.553  0.2981  0.5133 -0.3452
    4CHL1   H17  247   2.391   2.424   9.535  1.6583  2.3217 -2.8526
    4CHL1   C13  248   2.246   2.482   9.693  0.1335 -0.0045  0.4512
    4CHL1   C18  249   2.108   2.558   9.682  0.0115  0.0755 -0.4585
    4CHL1  H18A  250   2.038   2.507   9.613  1.2306 -2.8253  0.3835
    4CHL1  H18B  251   2.057   2.563   9.781  1.8236  2.8982  0.4152
    4CHL1  H18C  252   2.122   2.665   9.654  2.4820  0.1446  0.8635
    4CHL1   C12  253   2.233   2.340   9.744  0.7243  1.1175 -0.1196
    4CHL1  H12A  254   2.157   2.284   9.684  1.6759  0.6439 -0.9015
    4CHL1  H12B  255   2.327   2.281   9.732 -0.3806 -1.2930  2.4235
    4CHL1   C11  256   2.185   2.334   9.888 -0.2862 -0.1174 -0.3796
    4CHL1  H11A  257   2.085   2.383   9.884  0.6339  1.8453 -0.2142
    4CHL1  H11B  258   2.179   2.233   9.933  1.9556 -0.3913 -0.6625
    4CHL1    C9  259   2.276   2.420   9.985 -0.3385 -0.1461  0.1843
    4CHL1    H9  260   2.372   2.366   9.978 -0.4966 -0.5004  0.7510
    4CHL1   C10  261   2.231   2.411  10.126  0.1020 -0.1415  0.7184
    4CHL1   C19  262   2.075   2.429  10.119  0.2658 -0.8252 -0.0121
    4CHL1  H19A  263   2.029   2.334  10.084  0.1788  0.1037 -2.5695
    4CHL1  H19B  264   2.043   2.457  10.221  0.5564 -0.0577 -0.1289
    4CHL1  H19C  265   2.049   2.510  10.048 -1.1895 -0.3779  1.0094
    4CHL1    C1  266   2.285   2.282  10.197  0.9064 -0.0126  0.3662
    4CHL1   H1A  267   2.243   2.201  10.133  1.4538 -0.9730  1.2068
    4CHL1   H1B  268   2.396   2.277  10.192  1.0366  3.3393 -1.4294
    4CHL1    C2  269   2.255   2.283  10.347 -0.2814 -0.0855 -0.3468
    4CHL1   H2A  270   2.278   2.185  10.395  0.6640  0.2967 -0.0232
    4CHL1   H2B  271   2.144   2.282  10.348 -0.2830 -1.2184 -0.0565
    4CHL1   C20  272   2.234   2.502   9.427  0.7173 -0.0574  0.4357
    4CHL1   H20  273   2.159   2.584   9.426 -1.0279 -1.6121 -2.6314
    4CHL1   C21  274   2.157   2.368   9.404  0.0520  0.0781  0.4557
    4CHL1  H21A  275   2.229   2.284   9.399 -0.2460 -0.0764 -1.8204
    4CHL1  H21B  276   2.103   2.350   9.309  0.8779 -1.4149  0.2551
    4CHL1  H21C  277   2.094   2.351   9.494 -1.1168  2.5175  0.1319
    4CHL1   C22  278   2.327   2.535   9.301  0.4623 -0.0218  0.7519
    4CHL1  H22A  279   2.363   2.640   9.310  2.2802 -0.7005  1.7428
    4CHL1  H22B  280   2.410   2.462   9.290 -0.1719 -0.6012 -0.1895
    4CHL1   C23  281   2.257   2.532   9.158  0.5338 -0.1413  0.1924
    4CHL1  H23A  282   2.228   2.427   9.133  0.7312 -0.4745  1.3135
    4CHL1  H23B  283   2.166   2.596   9.152  1.0702  0.6000 -0.1038
    4CHL1   C24  284   2.342   2.594   9.048  0.2590  0.4910 -0.0327
    4CHL1  H24A  285   2.365   2.698   9.081  0.2033  1.3203 -2.5135
    4CHL1  H24B  286   2.437   2.537   9.059 -0.4375 -0.4276  1.4298
    4CHL1   C25  287   2.298   2.594   8.901 -0.3627 -0.4446  0.5344
    4CHL1   H25  288   2.240   2.501   8.884  0.4915 -0.5870 -1.7941
    4CHL1   C26  289   2.202   2.715   8.862 -0.1241 -0.3695 -0.9446
    4CHL1  H26A  290   2.162   2.712   8.758 -3.1585 -1.7290  0.2229
    4CHL1  H26B  291   2.115   2.711   8.931  0.1611  0.8531 -0.4999
    4CHL1  H26C  292   2.252   2.814   8.869  2.5478 -1.8466  1.9009
    4CHL1   C27  293   2.405   2.583   8.800 -0.3391  0.0045  0.6233
    4CHL1  H27A  294   2.362   2.559   8.700 -1.9468 -0.6340  1.4412
    4CHL1  H27B  295   2.449   2.684   8.798 -0.3914  0.0108 -0.4708
    4CHL1  H27C  296   2.477   2.500   8.818  0.1709 -0.1294 -1.8354
    5CHL1    C3  297   2.853   0.235  10.137 -0.1404 -0.0965  1.0971
    5CHL1    H3  298   2.755   0.202  10.096  0.9169 -0.4297 -1.2471
    5CHL1    O3  299   2.834   0.227  10.271 -0.0896  0.0878  0.0140
    5CHL1   H3'  300   2.922   0.224  10.310 -0.0098 -0.8552 -0.2245
    5CHL1    C4  301   2.959   0.133  10.097 -0.4908 -0.3765 -0.5694
    5CHL1   H4A  302   3.050   0.165  10.151 -1.2151  1.1259 -0.2127
    5CHL1   H4B  303   2.942   0.028  10.129 -1.7242 -0.3085 -0.9567
    5CHL1    C5  304   2.971   0.134   9.947  0.0244  0.2013 -0.6271
    5CHL1    C6  305   2.930   0.037   9.865 -0.8635  0.3913 -0.1487
    5CHL1    H6  306   2.880  -0.051   9.910 -2.7544  1.8764  0.7159
    5CHL1    C7  307   2.952   0.036   9.711  0.2592  0.8664 -0.1303
    5CHL1   H7A  308   3.001  -0.056   9.672  0.4055  1.6079 -1.7078
    5CHL1   H7B  309   2.850   0.027   9.668  0.7434  1.4993 -1.4418
    5CHL1    C8  310   3.035   0.152   9.656  0.7029  0.0220  0.9705
    5CHL1    H8  311   3.143   0.141   9.677  1.0298 -0.2102 -0.7652
    5CHL1   C14  312   3.011   0.161   9.506  0.3295 -0.1078 -0.1347
    5CHL1   H14  313   2.903   0.168   9.484  0.4730 -0.2240 -0.8980
    5CHL1   C15  314   3.059   0.046   9.415 -0.6151 -0.6695 -0.5248
    5CHL1  H15A  315   3.163   0.015   9.440 -0.7677  0.1816  1.2227
    5CHL1  H15B  316   2.992  -0.042   9.428  1.4048 -2.0258  1.0103
    5CHL1   C16  317   3.072   0.108   9.276  0.5610 -0.1844  0.6596
    5CHL1  H16A  318   3.179   0.108   9.245 -0.1354 -1.2926 -1.8772
    5CHL1  H16B  319   3.019   0.049   9.198 -1.7244  1.0216  1.2842
    5CHL1   C17  320   3.031   0.254   9.293  0.8419 -0.7335 -0.4424
    5CHL1   H17  321   2.920   0.256   9.289  0.8593 -1.7785 -1.9012
    5CHL1   C13  322   3.064   0.285   9.438  0.7748 -0.1117  0.8271
    5CHL1   C18  323   3.213   0.300   9.454 -0.2830  0.1466  0.4837
    5CHL1  H18A  324   3.254   0.312   9.557  1.2019  2.8341 -0.3832
    5CHL1  H18B  325   3.256   0.210   9.406  0.1909  1.9874 -2.6558
    5CHL1  H18C  326   3.232   0.386   9.386  0.6966 -0.8512 -0.5136
    5CHL1   C12  327   3.005   0.413   9.504 -0.3082  0.6522  0.0636
    5CHL1  H12A  328   3.048   0.507   9.463  0.1978  0.4592  0.1488
    5CHL1  H12B  329   2.894   0.418   9.496 -0.4068 -1.7807 -0.2092
    5CHL1   C11  330   3.030   0.409   9.655  0.1126  0.0434  0.8997
    5CHL1  H11A  331   3.137   0.426   9.678 -0.2037  1.9583  1.0097
    5CHL1  H11B  332   2.973   0.498   9.688 -0.4104  0.2531 -0.5090
    5CHL1    C9  333   2.989   0.282   9.732  0.2075  0.4148  0.1728
    5CHL1    H9  334   2.879   0.277   9.713  0.0523  1.2439  0.8458
    5CHL1   C10  335   3.010   0.271   9.887 -0.3650 -0.4208  0.2520
    5CHL1   C19  336   3.162   0.311   9.917  0.5782 -0.2852  0.0008
    5CHL1  H19A  337   3.194   0.282  10.020 -1.3925  0.0167  0.7261
    5CHL1  H19B  338   3.220   0.262   9.836  1.5248 -0.1676  0.5939
    5CHL1  H19C  339   3.167   0.422   9.914 -0.7506 -0.2523 -1.6831
    5CHL1    C1  340   2.919   0.384   9.943  0.3525  0.0144  0.2803
    5CHL1   H1A  341   2.963   0.478   9.904  1.5754 -1.1045 -1.0821
    5CHL1   H1B  342   2.820   0.366   9.896  0.8321 -1.8788 -0.0221
    5CHL1    C2  343   2.887   0.380  10.090 -0.1295  0.2429 -0.0267
    5CHL1   H2A  344   2.799   0.442  10.117 -1.4367 -1.6122 -0.0008
    5CHL1   H2B  345   2.977   0.411  10.148  1.4612 -2.7272 -0.8173
    5CHL1   C20  346   3.070   0.349   9.183  0.1120 -0.5229 -0.2266
    5CHL1   H20  347   3.174   0.380   9.205 -0.1841  0.1301  0.3016
    5CHL1   C21  348   2.977   0.470   9.191  0.1853  0.2509 -0.1627
    5CHL1  H21A  349   2.981   0.520   9.091 -0.8999  0.8937  0.1007
    5CHL1  H21B  350   3.020   0.544   9.262  1.3037 -1.2147  0.6883
    5CHL1  H21C  351   2.869   0.445   9.204 -0.1758  1.1399 -1.3219
    5CHL1   C22  352   3.060   0.293   9.042  0.1686 -0.6485  0.3620
    5CHL1  H22A  353   3.122   0.201   9.045  0.8729 -0.1850 -0.0450
    5CHL1  H22B  354   2.958   0.249   9.032 -0.8078  1.5432  0.3912
    5CHL1   C23  355   3.097   0.383   8.923  0.4323 -0.0318 -0.0774
    5CHL1  H23A  356   3.025   0.464   8.899  0.9775  0.5122  0.0922
    5CHL1  H23B  357   3.194   0.429   8.955  1.0196 -1.5792  0.3925
    5CHL1   C24  358   3.128   0.299   8.792  0.8767  1.2728  0.2396
    5CHL1  H24A  359   3.212   0.346   8.736  1.8351  1.1192  1.5152
    5CHL1  H24B  360   3.164   0.198   8.823 -0.7699  1.5449  3.1965
    5CHL1   C25  361   3.014   0.295   8.694 -0.8802 -0.0278 -0.3907
    5CHL1   H25  362   2.927   0.241   8.737 -1.3250  0.1520 -1.0489
    5CHL1   C26  363   2.974   0.440   8.654  0.2029  0.1005 -0.2857
    5CHL1  H26A  364   2.919   0.491   8.737 -2.9166 -0.0094 -2.1814
    5CHL1  H26B  365   3.068   0.496   8.633 -0.3514  0.9314 -0.5946
    5CHL1  H26C  366   2.907   0.433   8.566  0.5481  0.4126 -0.5732
    5CHL1   C27  367   3.054   0.202   8.570 -0.1447  0.1600  0.8810
    5CHL1  H27A  368   3.084   0.099   8.601 -0.2677  0.6714  2.7982
    5CHL1  H27B  369   2.980   0.202   8.487  0.8387  2.4433 -0.0378
    5CHL1  H27C  370   3.146   0.251   8.531 -1.1748  1.4510  0.0487
    6CHL1    C3  371   0.763   4.717  10.380  0.3492  0.4096 -0.1187
    6CHL1    H3  372   0.699   4.626  10.387  1.5820 -0.3465  1.8279
    6CHL1    O3  373   0.768   4.765  10.514  0.0968 -0.5873 -0.0325
    6CHL1   H3'  374   0.809   4.851  10.500 -0.6554 -0.2805 -0.3392
    6CHL1    C4  375   0.904   4.669  10.339  0.5715 -0.6201 -0.6503
    6CHL1   H4A  376   0.983   4.736  10.380  0.6153 -1.5238  0.7763
    6CHL1   H4B  377   0.922   4.576  10.398 -1.1686 -0.9190 -0.5745
    6CHL1    C5  378   0.932   4.642  10.189  0.4317 -0.4140 -0.1812
    6CHL1    C6  379   0.994   4.531  10.151 -0.3946 -0.0595  0.0484
    6CHL1    H6  380   1.026   4.467  10.235  1.0863  1.8503  0.9606
    6CHL1    C7  381   1.015   4.499  10.004  0.5573  0.0249 -0.6821
    6CHL1   H7A  382   1.118   4.462   9.987  0.2606 -2.2875  2.0469
    6CHL1   H7B  383   0.948   4.417   9.971 -1.5618  1.0811  0.8695
    6CHL1    C8  384   0.994   4.622   9.908  0.1007 -0.2031 -0.1813
    6CHL1    H8  385   1.080   4.689   9.926 -0.1928 -0.0402  0.6299
    6CHL1   C14  386   0.979   4.563   9.757  0.1124 -1.3678  0.0208
    6CHL1   H14  387   0.891   4.496   9.745 -0.4589 -0.1716 -2.7353
    6CHL1   C15  388   1.096   4.492   9.694  0.0904 -0.3028  0.0970
    6CHL1  H15A  389   1.184   4.556   9.717 -1.4709  2.0287 -0.1715
    6CHL1  H15B  390   1.122   4.389   9.728  2.4397 -0.0066 -0.6978
    6CHL1   C16  391   1.061   4.485   9.546  0.3800  0.1764  0.3218
    6CHL1  H16A  392   1.146   4.538   9.498  1.0451 -0.0964  1.1836
    6CHL1  H16B  393   1.057   4.387   9.492  1.1554  0.5738 -0.4804
    6CHL1   C17  394   0.936   4.576   9.526 -0.8642  0.3746 -0.7363
    6CHL1   H17  395   0.850   4.511   9.550 -0.8449  0.3498 -0.7361
    6CHL1   C13  396   0.946   4.672   9.650 -0.1461  0.4340  0.1575
    6CHL1   C18  397   1.053   4.778   9.635  0.7547 -0.0291  0.1423
    6CHL1  H18A  398   1.149   4.725   9.617 -0.1365 -1.8946  0.7041
    6CHL1  H18B  399   1.028   4.838   9.545  2.0673 -0.7996 -0.7539
    6CHL1  H18C  400   1.053   4.849   9.719  0.3317  0.6199 -0.3986
    6CHL1   C12  401   0.810   4.730   9.694 -0.0709  0.0869  0.0723
    6CHL1  H12A  402   0.781   4.813   9.627 -0.9592  0.6292  1.1166
    6CHL1  H12B  403   0.733   4.650   9.690  1.4493 -1.5205  1.4259
    6CHL1   C11  404   0.817   4.792   9.838  0.4307  0.1956  0.0495
    6CHL1  H11A  405   0.874   4.887   9.828  0.3399  0.3037  0.5189
    6CHL1  H11B  406   0.716   4.830   9.865  0.6440  2.0302 -1.6340
    6CHL1    C9  407   0.869   4.692   9.947 -0.2083  0.3926  0.0122
    6CHL1    H9  408   0.783   4.622   9.950 -0.0289  0.1848  0.2645
    6CHL1   C10  409   0.870   4.736  10.092 -0.3563  0.0084  0.3882
    6CHL1   C19  410   0.943   4.875  10.086 -0.3784  0.6958  0.1344
    6CHL1  H19A  411   0.879   4.947  10.030  0.0049 -0.0130 -1.2543
    6CHL1  H19B  412   0.958   4.914  10.189 -3.5250  1.0676  0.4967
    6CHL1  H19C  413   1.037   4.866  10.027 -0.4419 -0.6759  0.2321
    6CHL1    C1  414   0.718   4.766  10.140  0.1510 -0.7203  0.0911
    6CHL1   H1A  415   0.681   4.844  10.069 -1.7753  0.1148  1.9675
    6CHL1   H1B  416   0.653   4.677  10.138  0.7324 -1.2157  2.1828
    6CHL1    C2  417   0.706   4.828  10.287  0.3500  0.3989 -0.3740
    6CHL1   H2A  418   0.595   4.838  10.291  0.2652 -0.1056 -1.3239
    6CHL1   H2B  419   0.758   4.924  10.307  1.8503 -0.3851 -0.4869
    6CHL1   C20  420   0.920   4.636   9.386  0.8528  0.1415  0.3676
    6CHL1   H20  421   1.009   4.697   9.361  1.0545 -0.5652 -0.6730
    6CHL1   C21  422   0.791   4.715   9.373 -0.1124  0.1947  0.5447
    6CHL1  H21A  423   0.796   4.759   9.270  0.4785 -1.2095 -0.0392
    6CHL1  H21B  424   0.791   4.799   9.446 -1.5673 -0.0815  0.8728
    6CHL1  H21C  425   0.703   4.648   9.381 -0.3728  0.1355 -2.2147
    6CHL1   C22  426   0.930   4.520   9.284  0.2220 -0.0968 -0.2102
    6CHL1  H22A  427   1.023   4.461   9.299 -0.3018 -0.9830 -0.4188
    6CHL1  H22B  428   0.851   4.445   9.306  0.0896  0.3616  0.9048
    6CHL1   C23  429   0.914   4.567   9.135 -0.1850  0.5357 -0.5619
    6CHL1  H23A  430   0.817   4.621   9.130 -0.9826 -0.6491  1.3640
    6CHL1  H23B  431   0.989   4.644   9.107  0.7534 -0.2157 -0.1369
    6CHL1   C24  432   0.929   4.451   9.040 -0.5943 -0.3927  0.3604
    6CHL1  H24A  433   1.021   4.396   9.072 -0.1892  0.3274  0.4518
    6CHL1  H24B  434   0.844   4.385   9.065 -1.7547  1.0023  0.1516
    6CHL1   C25  435   0.935   4.485   8.894  0.3039 -0.3252  0.4430
    6CHL1   H25  436   1.028   4.544   8.880  0.0397 -0.4619 -2.0215
    6CHL1   C26  437   0.934   4.355   8.808 -0.2690  0.2125 -0.3542
    6CHL1  H26A  438   1.011   4.281   8.838  1.8938  2.2157 -0.7967
    6CHL1  H26B  439   0.832   4.309   8.800 -0.7501  1.7090 -3.9680
    6CHL1  H26C  440   0.951   4.384   8.702 -0.6609  0.0986 -0.4528
    6CHL1   C27  441   0.821   4.571   8.850  0.4286 -0.0476 -0.1791
    6CHL1  H27A  442   0.831   4.663   8.913  0.8144 -1.7545  2.3010
    6CHL1  H27B  443   0.823   4.591   8.741 -2.7701 -0.9491 -0.4374
    6CHL1  H27C  444   0.723   4.526   8.872  0.0563  0.4623 -0.7888
    7CHL1    C3  445   4.238   0.868  10.432 -0.1191 -0.1932  0.3575
    7CHL1    H3  446   4.307   0.781  10.436  1.6550  1.0951 -1.3947
    7CHL1    O3  447   4.194   0.897  10.561  0.0009 -0.1126 -0.4924
    7CHL1   H3'  448   4.140   0.976  10.560  1.3297  0.8168 -0.2668
    7CHL1    C4  449   4.308   0.989  10.375 -0.6354  0.5909 -0.0462
    7CHL1   H4A  450   4.246   1.078  10.399  0.8250  1.5106  0.4301
    7CHL1   H4B  451   4.409   0.996  10.421  0.8389  1.2438 -3.2257
    7CHL1    C5  452   4.333   0.991  10.225  0.1147 -0.4923  0.4584
    7CHL1    C6  453   4.456   0.994  10.175  0.1781  0.6873  0.2386
    7CHL1    H6  454   4.541   0.990  10.245  1.3220  0.1008 -1.1596
    7CHL1    C7  455   4.503   0.995  10.031 -0.7274  0.2394 -0.2539
    7CHL1   H7A  456   4.585   1.066  10.011  0.2836 -0.6219  0.7710
    7CHL1   H7B  457   4.530   0.892   9.999  2.3515  1.2765 -1.1618
    7CHL1    C8  458   4.378   1.014   9.941  0.3553  0.3510  0.2637
    7CHL1    H8  459   4.338   1.118   9.943  0.5508  0.3996  2.1985
    7CHL1   C14  460   4.423   0.979   9.796  0.0102  0.0866 -0.3266
    7CHL1   H14  461   4.451   0.872   9.800  1.1255  0.3938  0.2840
    7CHL1   C15  462   4.551   1.041   9.736  1.0025  0.4589 -0.4077
    7CHL1  H15A  463   4.529   1.149   9.749 -1.1091 -0.2075  2.2734
    7CHL1  H15B  464   4.647   1.010   9.782  0.3623 -2.2233 -0.8014
    7CHL1   C16  465   4.542   1.002   9.586 -0.7205  0.4821 -0.1707
    7CHL1  H16A  466   4.571   1.083   9.516  1.0028 -2.2086 -2.7223
    7CHL1  H16B  467   4.613   0.918   9.566  0.7637  0.6551  3.9733
    7CHL1   C17  468   4.394   0.952   9.560  0.1830 -0.7513  0.7835
    7CHL1   H17  469   4.403   0.841   9.562  0.3333 -0.7598 -0.2557
    7CHL1   C13  470   4.314   0.997   9.691  0.0749  0.1672  0.0076
    7CHL1   C18  471   4.265   1.139   9.694  0.3388 -0.0171  0.2165
    7CHL1  H18A  472   4.183   1.155   9.620 -1.1467 -0.2877  1.7668
    7CHL1  H18B  473   4.237   1.184   9.791  0.0760  1.3968 -0.5013
    7CHL1  H18C  474   4.345   1.205   9.652 -0.1119 -1.2548 -2.7332
    7CHL1   C12  475   4.199   0.904   9.728 -0.1310 -0.8263  0.4121
    7CHL1  H12A  476   4.116   0.896   9.654 -0.2991  0.2840  0.4698
    7CHL1  H12B  477   4.248   0.804   9.726  1.5921 -0.0464  2.2914
    7CHL1   C11  478   4.147   0.932   9.872  0.0516  1.1743 -0.4449
    7CHL1  H11A  479   4.090   1.026   9.878  0.7771  1.5371  0.9935
    7CHL1  H11B  480   4.075   0.848   9.887  0.5242  0.8894  0.2607
    7CHL1    C9  481   4.257   0.934   9.988  0.3583  0.2007 -0.0456
    7CHL1    H9  482   4.302   0.833   9.978  0.1393  0.1847 -0.8601
    7CHL1   C10  483   4.212   0.954  10.141 -0.6795 -0.7819  0.3121
    7CHL1   C19  484   4.134   1.091  10.137  0.1298  0.2169 -1.1075
    7CHL1  H19A  485   4.047   1.092  10.068 -0.9471  0.5555  0.2551
    7CHL1  H19B  486   4.092   1.121  10.235 -1.2714 -0.6723 -1.4219
    7CHL1  H19C  487   4.198   1.173  10.098 -0.4895  0.5336 -1.4733
    7CHL1    C1  488   4.138   0.828  10.195 -0.2182  0.0127  0.0549
    7CHL1   H1A  489   4.048   0.804  10.135 -0.6609  1.5583  0.0684
    7CHL1   H1B  490   4.202   0.738  10.183 -1.1787 -0.7021  0.1511
    7CHL1    C2  491   4.110   0.835  10.349 -1.0657 -0.0513  0.6584
    7CHL1   H2A  492   4.071   0.735  10.379 -1.6266  0.3082  1.1149
    7CHL1   H2B  493   4.044   0.920  10.373 -2.5683 -0.7305 -0.9332
    7CHL1   C20  494   4.341   0.973   9.418 -0.9784 -0.3140  0.0336
    7CHL1   H20  495   4.321   1.081   9.398  1.7566 -0.0775 -1.7584
    7CHL1   C21  496   4.201   0.896   9.412 -0.5264 -0.3494 -0.7249
    7CHL1  H21A  497   4.126   0.960   9.463 -0.8810 -1.0565 -0.3538
    7CHL1  H21B  498   4.214   0.803   9.472  2.6071  1.5943  1.7267
    7CHL1  H21C  499   4.170   0.876   9.307 -1.1833 -1.9870 -0.2306
    7CHL1   C22  500   4.435   0.930   9.313  0.0087  0.3848  0.4093
    7CHL1  H22A  501   4.522   0.999   9.303 -0.9927  1.4096 -1.4576
    7CHL1  H22B  502   4.479   0.829   9.329 -0.6658  0.2395  1.3246
    7CHL1   C23  503   4.381   0.936   9.158 -0.3812  0.0792 -0.4694
    7CHL1  H23A  504   4.290   0.874   9.143 -1.0026  0.6410  0.9097
    7CHL1  H23B  505   4.336   1.038   9.158  0.3662  0.4140 -0.9457
    7CHL1   C24  506   4.484   0.934   9.043 -0.1373  0.3765 -0.1089
    7CHL1  H24A  507   4.536   1.031   9.036 -0.1566  0.4788  1.0909
    7CHL1  H24B  508   4.557   0.853   9.065  0.8488  0.7917 -1.7530
    7CHL1   C25  509   4.414   0.896   8.913  0.3602  0.3494 -0.0784
    7CHL1   H25  510   4.368   0.795   8.923 -0.4887  0.6236 -1.0570
    7CHL1   C26  511   4.320   1.008   8.869 -0.1383  0.5590  0.3085
    7CHL1  H26A  512   4.269   0.987   8.773 -0.5581  2.0448  0.1918
    7CHL1  H26B  513   4.231   1.026   8.933 -0.8814  0.9978 -0.8497
    7CHL1  H26C  514   4.365   1.109   8.857  1.4446 -0.2245 -0.5164
    7CHL1   C27  515   4.522   0.891   8.807  0.3932 -0.6887  0.5017
    7CHL1  H27A  516   4.468   0.856   8.717  0.4416 -2.0946  1.0144
    7CHL1  H27B  517   4.561   0.994   8.787 -2.7621  1.1711  3.3439
    7CHL1  H27C  518   4.613   0.828   8.820  1.3825  0.8531  1.3220
    8CHL1    C3  519   3.923   2.743  10.383 -0.4742 -0.3623 -0.2385
    8CHL1    H3  520   3.846   2.664  10.372 -0.2603 -0.5230 -0.5820
    8CHL1    O3  521   3.985   2.711  10.507 -0.0098 -0.1900 -0.0771
    8CHL1   H3'  522   4.027   2.791  10.540  2.7786 -0.7035 -2.1288
    8CHL1    C4  523   4.031   2.752  10.277  0.7611  0.0617 -0.1520
    8CHL1   H4A  524   4.108   2.822  10.314 -0.1800  0.0600  1.8812
    8CHL1   H4B  525   4.085   2.656  10.263  1.5371  0.7578 -2.0959
    8CHL1    C5  526   3.967   2.801  10.149 -0.7090  0.4410 -0.0624
    8CHL1    C6  527   3.964   2.719  10.038 -0.9091 -0.3179  0.5024
    8CHL1    H6  528   4.010   2.620  10.050 -0.4218 -0.2759 -0.9034
    8CHL1    C7  529   3.912   2.761   9.904 -0.2058  0.0201 -0.2943
    8CHL1   H7A  530   3.980   2.723   9.825  1.6977  1.0294  0.8288
    8CHL1   H7B  531   3.811   2.714   9.893  0.3667 -0.9130 -1.6380
    8CHL1    C8  532   3.896   2.919   9.893 -0.4677 -0.0523  0.1039
    8CHL1    H8  533   3.999   2.960   9.882  0.5914 -3.1159 -1.9739
    8CHL1   C14  534   3.795   2.950   9.777  0.1556 -0.0158  0.1261
    8CHL1   H14  535   3.694   2.908   9.798  0.7085 -0.3713  2.2304
    8CHL1   C15  536   3.835   2.900   9.639  0.7813 -0.6783 -0.2290
    8CHL1  H15A  537   3.934   2.945   9.612  0.4143  0.3799  0.1530
    8CHL1  H15B  538   3.827   2.790   9.634  0.8109 -0.6087 -2.0957
    8CHL1   C16  539   3.738   2.962   9.543 -1.0466  0.5744 -0.1499
    8CHL1  H16A  540   3.780   3.001   9.448  2.9543 -0.0595  1.2932
    8CHL1  H16B  541   3.660   2.893   9.504 -0.8983  0.8817 -0.9938
    8CHL1   C17  542   3.680   3.085   9.629  1.0623  0.3092  0.1159
    8CHL1   H17  543   3.579   3.052   9.662  2.4412 -0.4791  3.6886
    8CHL1   C13  544   3.765   3.096   9.760 -0.0335  0.5063  0.7752
    8CHL1   C18  545   3.898   3.183   9.741 -0.1782  0.2479  0.5996
    8CHL1  H18A  546   3.966   3.178   9.828 -0.4138 -0.6357  0.7373
    8CHL1  H18B  547   3.953   3.146   9.651 -1.3864  0.1727 -0.1142
    8CHL1  H18C  548   3.870   3.289   9.721 -0.8675 -0.7323 -4.4011
    8CHL1   C12  549   3.688   3.146   9.883  0.3372 -0.5247  0.1430
    8CHL1  H12A  550   3.670   3.254   9.868 -0.1267 -0.6496 -0.2130
    8CHL1  H12B  551   3.583   3.108   9.882 -0.9824  2.9527  0.3436
    8CHL1   C11  552   3.772   3.117  10.009  0.3984  0.5706 -0.9163
    8CHL1  H11A  553   3.845   3.199   9.997  1.3307 -0.5502 -3.0054
    8CHL1  H11B  554   3.700   3.138  10.092  1.9837 -0.5448  0.8034
    8CHL1    C9  555   3.826   2.968  10.017 -0.3245  0.1790 -0.2463
    8CHL1    H9  556   3.734   2.905  10.018  0.4738 -0.9766  0.4170
    8CHL1   C10  557   3.899   2.938  10.147 -0.0059  0.0002  0.2602
    8CHL1   C19  558   4.011   3.046  10.172 -0.2384 -0.6242 -0.6938
    8CHL1  H19A  559   4.079   3.061  10.086  1.8933  1.8921  1.3250
    8CHL1  H19B  560   3.965   3.146  10.173  1.6650  0.3086  2.1761
    8CHL1  H19C  561   4.066   3.033  10.268 -1.1709  0.2818 -0.0272
    8CHL1    C1  562   3.800   2.933  10.267 -0.4640 -0.1670  0.3067
    8CHL1   H1A  563   3.747   3.030  10.277  0.1044  0.2205 -0.3523
    8CHL1   H1B  564   3.718   2.864  10.240  0.4159 -0.1565 -2.5990
    8CHL1    C2  565   3.858   2.884  10.397  0.0470 -0.4361  0.6296
    8CHL1   H2A  566   3.779   2.878  10.475 -1.8300  1.6367 -1.0682
    8CHL1   H2B  567   3.939   2.956  10.422 -0.7520  0.8359 -0.4296
    8CHL1   C20  568   3.654   3.206   9.539 -0.3452 -0.4308  0.2828
    8CHL1   H20  569   3.749   3.227   9.486  0.0396 -0.3878  0.9792
    8CHL1   C21  570   3.607   3.329   9.612  0.0828 -0.2610 -0.5777
    8CHL1  H21A  571   3.595   3.406   9.533  1.7677  0.2511 -0.3480
    8CHL1  H21B  572   3.681   3.368   9.685  0.7689 -2.2724 -0.1833
    8CHL1  H21C  573   3.510   3.314   9.665  1.8694  1.6604  3.4152
    8CHL1   C22  574   3.550   3.159   9.432 -0.3123 -0.7726  0.2557
    8CHL1  H22A  575   3.595   3.067   9.388 -0.2904 -1.7730  2.3006
    8CHL1  H22B  576   3.450   3.132   9.471 -0.4931 -0.9306 -0.3059
    8CHL1   C23  577   3.532   3.263   9.326 -0.4869  0.7382  0.0869
    8CHL1  H23A  578   3.450   3.333   9.353 -1.8859 -1.6813  2.3014
    8CHL1  H23B  579   3.629   3.316   9.316 -0.2318  0.4734  1.1042
    8CHL1   C24  580   3.478   3.196   9.193  0.3512 -0.2837 -0.2379
    8CHL1  H24A  581   3.557   3.130   9.152 -0.9947 -1.1798 -1.4502
    8CHL1  H24B  582   3.388   3.135   9.218  1.0331 -1.2965 -0.2276
    8CHL1   C25  583   3.433   3.297   9.081  0.3482 -0.0650  0.3309
    8CHL1   H25  584   3.351   3.363   9.117 -0.4619 -0.8700  0.0019
    8CHL1   C26  585   3.554   3.388   9.040  0.8821 -0.4601  0.3003
    8CHL1  H26A  586   3.641   3.323   9.017 -0.3231 -2.6359  1.7967
    8CHL1  H26B  587   3.535   3.445   8.946  0.6836  0.6630  1.0071
    8CHL1  H26C  588   3.575   3.474   9.108  1.6920  0.4311 -1.0512
    8CHL1   C27  589   3.387   3.227   8.954 -0.2265  0.2849  1.0568
    8CHL1  H27A  590   3.468   3.155   8.929  0.0375  1.1964 -0.8745
    8CHL1  H27B  591   3.294   3.167   8.958  0.0521 -0.2726 -0.3910
    8CHL1  H27C  592   3.382   3.297   8.867 -1.4594  1.0145  1.6976
    9CHL1    C3  593   0.583   6.322  10.066  0.7035 -0.5397 -0.7046
    9CHL1    H3  594   0.544   6.225  10.026 -0.3987 -0.1837 -0.5269
    9CHL1    O3  595   0.587   6.311  10.206 -0.1071 -0.6441 -0.1908
    9CHL1   H3'  596   0.621   6.396  10.233  0.1335 -1.0414  0.7853
    9CHL1    C4  597   0.724   6.349  10.020 -0.0563 -0.5537 -0.0967
    9CHL1   H4A  598   0.769   6.438  10.069 -1.7399  1.5663 -2.3309
    9CHL1   H4B  599   0.786   6.261  10.052  0.6031  0.4775  1.5406
    9CHL1    C5  600   0.718   6.372   9.873  0.1755 -0.2550 -0.3921
    9CHL1    C6  601   0.807   6.315   9.787  0.9892  0.3529 -0.5663
    9CHL1    H6  602   0.887   6.253   9.831  1.3499  1.1362 -0.0910
    9CHL1    C7  603   0.810   6.329   9.636  0.2239 -0.0653 -0.9891
    9CHL1   H7A  604   0.918   6.329   9.610  0.2312  0.1872 -0.9663
    9CHL1   H7B  605   0.760   6.242   9.588 -0.1916 -0.0719 -0.5446
    9CHL1    C8  606   0.745   6.461   9.590 -0.2522 -0.3106 -0.6997
    9CHL1    H8  607   0.815   6.544   9.614  0.5121 -1.0790 -0.1957
    9CHL1   C14  608   0.716   6.452   9.440  0.3945 -0.6219 -0.3189
    9CHL1   H14  609   0.638   6.373   9.433 -0.2283 -0.1471  1.0110
    9CHL1   C15  610   0.822   6.413   9.333 -0.0918  0.4267  0.3677
    9CHL1  H15A  611   0.907   6.484   9.337 -0.3445  0.6699  1.9098
    9CHL1  H15B  612   0.854   6.309   9.356  0.1794  0.5781  0.6648
    9CHL1   C16  613   0.747   6.437   9.203 -0.1073  0.0345  0.3219
    9CHL1  H16A  614   0.819   6.498   9.144 -2.0816  2.4397  0.3642
    9CHL1  H16B  615   0.718   6.335   9.168  0.1111 -0.3077  1.1260
    9CHL1   C17  616   0.628   6.530   9.230  1.0157  1.0052  0.1913
    9CHL1   H17  617   0.534   6.471   9.221  1.8548 -0.6131  1.8928
    9CHL1   C13  618   0.642   6.575   9.374 -0.5504 -0.0069  0.6209
    9CHL1   C18  619   0.735   6.700   9.381  1.0382  0.2890 -0.1157
    9CHL1  H18A  620   0.787   6.702   9.479 -0.6241  0.3089  0.7651
    9CHL1  H18B  621   0.808   6.707   9.296 -0.3386  0.5110 -1.2999
    9CHL1  H18C  622   0.684   6.799   9.382  0.5818  0.0379  1.6217
    9CHL1   C12  623   0.518   6.599   9.452  1.0316  0.1068 -0.4302
    9CHL1  H12A  624   0.478   6.700   9.428  1.1068 -0.1478 -1.6839
    9CHL1  H12B  625   0.440   6.523   9.429  0.4522 -0.2784  2.5889
    9CHL1   C11  626   0.552   6.608   9.603  0.4922  0.6609 -0.1863
    9CHL1  H11A  627   0.621   6.692   9.626 -1.6540  1.3454  4.5068
    9CHL1  H11B  628   0.457   6.633   9.656  0.5075 -0.3131  0.3126
    9CHL1    C9  629   0.614   6.485   9.662 -0.0057 -0.1703 -0.6575
    9CHL1    H9  630   0.546   6.401   9.633  0.5673 -1.5168  1.7373
    9CHL1   C10  631   0.621   6.483   9.818  0.1865 -0.5377 -0.0337
    9CHL1   C19  632   0.687   6.617   9.873  0.8001  0.4569 -0.5372
    9CHL1  H19A  633   0.765   6.648   9.800  0.6887 -0.6995 -1.1632
    9CHL1  H19B  634   0.616   6.703   9.870  0.2310 -0.0356 -1.6266
    9CHL1  H19C  635   0.724   6.626   9.977 -1.1963  2.9713  0.0185
    9CHL1    C1  636   0.485   6.459   9.877  0.1910  0.0947 -1.1837
    9CHL1   H1A  637   0.433   6.556   9.863  0.4398  0.3888 -0.1559
    9CHL1   H1B  638   0.434   6.380   9.819  0.3394 -1.8557  1.2816
    9CHL1    C2  639   0.473   6.424  10.023  0.0298 -0.4371 -0.4728
    9CHL1   H2A  640   0.371   6.385  10.043 -0.4000  0.8848 -0.0445
    9CHL1   H2B  641   0.496   6.516  10.080 -2.0633  1.8902 -3.2553
    9CHL1   C20  642   0.600   6.636   9.119 -0.7364  0.0001 -0.4515
    9CHL1   H20  643   0.687   6.704   9.132 -1.6341  0.8215  1.3853
    9CHL1   C21  644   0.473   6.725   9.144 -0.2881  0.3104 -0.1898
    9CHL1  H21A  645   0.487   6.783   9.237  2.8196 -3.7960  2.0931
    9CHL1  H21B  646   0.383   6.666   9.170 -1.0009  1.3315 -0.3328
    9CHL1  H21C  647   0.445   6.784   9.054  1.1291  0.3550 -0.6091
    9CHL1   C22  648   0.605   6.569   8.977 -0.4050 -0.2278 -0.9515
    9CHL1  H22A  649   0.706   6.523   8.973  0.8553  2.5524 -2.2754
    9CHL1  H22B  650   0.521   6.496   8.965 -0.0330 -0.7421 -0.4206
    9CHL1   C23  651   0.610   6.674   8.854 -0.3560  0.8692  0.2182
    9CHL1  H23A  652   0.524   6.744   8.857  0.8162  2.3896 -0.7595
    9CHL1  H23B  653   0.693   6.747   8.865  2.4893 -2.3211  0.8066
    9CHL1   C24  654   0.637   6.623   8.710 -0.8279  0.3188 -0.3939
    9CHL1  H24A  655   0.739   6.580   8.708  0.9672  4.3967 -1.7917
    9CHL1  H24B  656   0.569   6.539   8.686 -0.2213  0.5985 -3.3452
    9CHL1   C25  657   0.623   6.731   8.597  0.2082  0.3842 -0.3306
    9CHL1   H25  658   0.526   6.780   8.619 -0.7713 -1.6208 -0.0760
    9CHL1   C26  659   0.732   6.836   8.592  0.1541 -0.3551 -0.2458
    9CHL1  H26A  660   0.744   6.880   8.694  0.1191 -0.9318  0.0071
    9CHL1  H26B  661   0.831   6.799   8.557 -0.0263 -1.7714  0.7002
    9CHL1  H26C  662   0.701   6.928   8.537 -1.4714 -0.7954 -0.0962
    9CHL1   C27  663   0.611   6.663   8.463 -0.1980  0.0462  0.6301
    9CHL1  H27A  664   0.700   6.599   8.447 -0.5998 -0.3285 -0.1216
    9CHL1  H27B  665   0.519   6.600   8.465 -0.1592 -0.0499 -0.3355
    9CHL1  H27C  666   0.610   6.737   8.380 -0.2490 -0.5237  0.1227
   10CHL1    C3  667   6.306   2.828  10.221  0.3381  0.2986  0.5763
   10CHL1    H3  668   6.219   2.766  10.189  1.7356 -1.3680 -0.1370
   10CHL1    O3  669   6.294   2.831  10.363  0.2045  0.0100  0.0123
   10CHL1   H3'  670   6.376   2.875  10.387  0.2893  1.1104 -2.1792
   10CHL1    C4  671   6.436   2.745  10.186 -0.0671 -0.1846  0.1100
   10CHL1   H4A  672   6.524   2.797  10.230 -0.8190  1.3878 -0.1969
   10CHL1   H4B  673   6.433   2.651  10.245 -0.0193  0.1105  0.5903
   10CHL1    C5  674   6.456   2.741  10.039  0.2886  0.8985  0.4870
   10CHL1    C6  675   6.471   2.617   9.983  0.5356  0.3463 -0.2223
   10CHL1    H6  676   6.474   2.527  10.046 -2.0582 -0.4631 -1.1992
   10CHL1    C7  677   6.498   2.599   9.836 -0.0762  0.2837  0.8133
   10CHL1   H7A  678   6.585   2.531   9.821  1.2925  2.2426 -0.2763
   10CHL1   H7B  679   6.404   2.555   9.797 -0.1068  0.9616  0.1032
   10CHL1    C8  680   6.527   2.734   9.760 -0.1853 -0.4957 -0.7128
   10CHL1    H8  681   6.634   2.762   9.773 -0.1043 -0.1581 -2.0583
   10CHL1   C14  682   6.513   2.715   9.607 -0.6300  0.0511 -0.4797
   10CHL1   H14  683   6.406   2.693   9.589 -0.1405 -3.3798  0.4050
   10CHL1   C15  684   6.589   2.606   9.537  0.0426 -0.0957  0.0450
   10CHL1  H15A  685   6.697   2.608   9.565  1.0312 -2.2594 -3.1788
   10CHL1  H15B  686   6.561   2.506   9.576 -2.3297 -0.6403 -2.8611
   10CHL1   C16  687   6.567   2.632   9.386 -0.4200  0.7280 -0.2179
   10CHL1  H16A  688   6.667   2.620   9.338 -1.2002  2.5506 -2.3900
   10CHL1  H16B  689   6.488   2.571   9.339 -0.7522  2.0576 -1.4334
   10CHL1   C17  690   6.520   2.779   9.375 -0.0427  0.1347 -0.3867
   10CHL1   H17  691   6.409   2.780   9.371  0.0126 -0.8469 -2.4750
   10CHL1   C13  692   6.546   2.840   9.520 -0.3507  0.2894 -0.0932
   10CHL1   C18  693   6.689   2.891   9.525 -0.4082  0.8193 -0.5999
   10CHL1  H18A  694   6.718   2.913   9.630 -0.2503 -0.9982 -0.2426
   10CHL1  H18B  695   6.752   2.805   9.494 -1.1847  0.5601 -1.5067
   10CHL1  H18C  696   6.714   2.979   9.462  1.1827  0.7305 -0.1272
   10CHL1   C12  697   6.445   2.947   9.564  0.0491  0.6031 -0.3553
   10CHL1  H12A  698   6.463   3.044   9.512  0.8129 -0.5339 -2.2760
   10CHL1  H12B  699   6.340   2.919   9.542 -0.4734  0.4629  2.2396
   10CHL1   C11  700   6.457   2.971   9.716  0.6385  0.0902 -0.2291
   10CHL1  H11A  701   6.560   3.008   9.734  0.1627  0.8986  0.8418
   10CHL1  H11B  702   6.382   3.052   9.732  0.3106  0.2964 -2.5368
   10CHL1    C9  703   6.435   2.848   9.802 -0.1988  0.4093 -0.1034
   10CHL1    H9  704   6.336   2.802   9.782  0.5071 -0.6614 -1.2617
   10CHL1   C10  705   6.446   2.874   9.956 -0.5274 -0.4614 -0.7281
   10CHL1   C19  706   6.576   2.963   9.975  0.1018  0.0668 -0.2837
   10CHL1  H19A  707   6.617   2.965  10.078  0.9119 -0.2444 -0.5930
   10CHL1  H19B  708   6.665   2.934   9.916 -2.2390 -2.9491 -2.5146
   10CHL1  H19C  709   6.546   3.067   9.951 -0.4114 -0.1244 -0.4895
   10CHL1    C1  710   6.322   2.956  10.004 -0.5546  0.4131 -0.0253
   10CHL1   H1A  711   6.324   3.057   9.959  1.3706 -1.5282 -4.6077
   10CHL1   H1B  712   6.234   2.898   9.969  0.7069 -1.6360  0.1403
   10CHL1    C2  713   6.301   2.962  10.153 -0.7619  0.7874 -0.8448
   10CHL1   H2A  714   6.202   3.005  10.181 -0.9478  0.5557 -1.1255
   10CHL1   H2B  715   6.370   3.028  10.210  0.0480  0.0826 -1.0091
   10CHL1   C20  716   6.569   2.845   9.245 -0.7315 -1.1914  0.4049
   10CHL1   H20  717   6.678   2.861   9.259 -0.7821  0.0855 -0.5744
   10CHL1   C21  718   6.497   2.987   9.244 -0.2113 -0.0393  0.3258
   10CHL1  H21A  719   6.388   2.976   9.258 -0.6940  3.4280 -0.2828
   10CHL1  H21B  720   6.516   3.042   9.150 -1.2991 -0.1121  0.0639
   10CHL1  H21C  721   6.535   3.055   9.324 -0.7703 -0.3684  0.8743
   10CHL1   C22  722   6.539   2.773   9.115  0.9763 -0.0015 -0.2604
   10CHL1  H22A  723   6.611   2.815   9.042  1.5347  1.0997  0.9030
   10CHL1  H22B  724   6.562   2.665   9.116 -1.6843 -0.5927 -0.9422
   10CHL1   C23  725   6.395   2.786   9.061  0.6118  0.4054  0.0124
   10CHL1  H23A  726   6.327   2.739   9.135  0.2318 -1.4578 -1.4512
   10CHL1  H23B  727   6.363   2.892   9.057 -2.3062 -0.3849  0.7628
   10CHL1   C24  728   6.390   2.717   8.923  0.1236 -0.0268 -0.4684
   10CHL1  H24A  729   6.411   2.611   8.947 -3.5135 -0.6825  0.0374
   10CHL1  H24B  730   6.283   2.720   8.895  0.5845  2.4932 -2.0987
   10CHL1   C25  731   6.481   2.761   8.812 -0.0605 -0.1517 -0.5012
   10CHL1   H25  732   6.586   2.754   8.848  0.1191 -1.7131 -1.2650
   10CHL1   C26  733   6.467   2.665   8.683  0.5633  0.7331  0.8686
   10CHL1  H26A  734   6.515   2.696   8.588 -0.8539  1.9254  0.5285
   10CHL1  H26B  735   6.511   2.572   8.728 -2.1145 -0.7153  0.5825
   10CHL1  H26C  736   6.358   2.657   8.665  0.8252 -2.9990  0.5203
   10CHL1   C27  737   6.455   2.906   8.767 -0.1569 -0.2126  0.2850
   10CHL1  H27A  738   6.459   2.974   8.856 -1.6478 -0.5536  0.6162
   10CHL1  H27B  739   6.537   2.926   8.695 -0.8101  1.5783  0.0140
   10CHL1  H27C  740   6.357   2.918   8.717 -0.8381  0.3189  1.6949
   11CHL1    C3  741   2.120   6.479   9.928 -0.2541  0.7893 -0.2991
   11CHL1    H3  742   2.010   6.488   9.913 -0.5793 -3.0843 -0.8481
   11CHL1    O3  743   2.155   6.458  10.066  0.6087  0.4610 -0.2302
   11CHL1   H3'  744   2.243   6.492  10.084  0.4427 -0.2843  2.2348
   11CHL1    C4  745   2.182   6.362   9.839 -0.0093 -0.5107 -0.5736
   11CHL1   H4A  746   2.289   6.365   9.866 -0.1586 -0.9384  0.0605
   11CHL1   H4B  747   2.147   6.264   9.877  1.1025  0.2650  2.5547
   11CHL1    C5  748   2.152   6.403   9.691 -0.0429 -0.2345 -0.5898
   11CHL1    C6  749   2.079   6.320   9.612 -0.6619 -0.0410 -0.2311
   11CHL1    H6  750   2.034   6.228   9.652 -0.8163  0.2993  0.3846
   11CHL1    C7  751   2.059   6.344   9.473  0.5312  0.2904 -0.3327
   11CHL1   H7A  752   2.066   6.248   9.417 -0.9286 -0.0901  0.1068
   11CHL1   H7B  753   1.955   6.380   9.454  0.0410  0.2368  2.1536
   11CHL1    C8  754   2.158   6.456   9.422 -0.5139 -0.4574  0.1121
   11CHL1    H8  755   2.260   6.411   9.421 -1.0127 -1.6141 -1.6302
   11CHL1   C14  756   2.134   6.486   9.269  0.0270 -0.8095  0.1887
   11CHL1   H14  757   2.032   6.530   9.263  1.6906  3.9153  3.3682
   11CHL1   C15  758   2.158   6.367   9.174 -0.8727  0.1057 -0.1347
   11CHL1  H15A  759   2.257   6.318   9.188 -1.1991 -0.0281  1.8798
   11CHL1  H15B  760   2.079   6.291   9.188 -0.1895 -0.6274 -0.1792
   11CHL1   C16  761   2.151   6.445   9.040  0.0581 -0.2348 -0.5880
   11CHL1  H16A  762   2.237   6.402   8.985  1.7377  2.2117  0.0670
   11CHL1  H16B  763   2.050   6.440   8.994  0.0802 -1.5975 -0.5104
   11CHL1   C17  764   2.185   6.599   9.068 -0.0979 -0.1983  0.3373
   11CHL1   H17  765   2.086   6.649   9.067 -0.9074 -1.7111  1.9676
   11CHL1   C13  766   2.227   6.601   9.213 -0.2656  0.2095  0.2965
   11CHL1   C18  767   2.380   6.558   9.217  0.1797 -0.5352 -0.7288
   11CHL1  H18A  768   2.416   6.533   9.319  0.9700 -2.4338 -1.4423
   11CHL1  H18B  769   2.410   6.483   9.141  0.8225 -0.2328 -0.7769
   11CHL1  H18C  770   2.440   6.650   9.199 -1.5454  1.0204  1.2286
   11CHL1   C12  771   2.214   6.729   9.295 -0.9470  0.1061 -0.4148
   11CHL1  H12A  772   2.298   6.795   9.264  1.0587 -1.4332  1.5874
   11CHL1  H12B  773   2.110   6.758   9.267 -0.8618 -0.6968 -1.6171
   11CHL1   C11  774   2.230   6.702   9.446  0.0602 -0.2451 -0.8924
   11CHL1  H11A  775   2.338   6.681   9.459 -0.0674  0.1910  1.0967
   11CHL1  H11B  776   2.227   6.798   9.503  0.7450  0.3232 -1.8043
   11CHL1    C9  777   2.162   6.579   9.510  1.1502  0.6446 -0.2710
   11CHL1    H9  778   2.055   6.605   9.513  0.6123 -1.0320 -2.8881
   11CHL1   C10  779   2.208   6.544   9.653 -0.1455  0.2047  0.0970
   11CHL1   C19  780   2.370   6.536   9.658 -0.4766  0.0165  0.6981
   11CHL1  H19A  781   2.406   6.641   9.653 -1.5417  0.2897 -2.3244
   11CHL1  H19B  782   2.413   6.494   9.751 -0.0368  0.1700  0.5650
   11CHL1  H19C  783   2.407   6.472   9.575  3.3406  0.8208  1.6902
   11CHL1    C1  784   2.152   6.648   9.750 -0.7930  0.2119 -0.2360
   11CHL1   H1A  785   2.192   6.748   9.722 -0.4711  0.1001 -0.1785
   11CHL1   H1B  786   2.046   6.666   9.725 -0.9193 -0.5029 -0.2212
   11CHL1    C2  787   2.181   6.616   9.896  0.0867  0.0435 -0.3126
   11CHL1   H2A  788   2.131   6.688   9.965  1.2517 -0.9066  1.5853
   11CHL1   H2B  789   2.292   6.619   9.908 -0.0667  0.0865  1.1828
   11CHL1   C20  790   2.267   6.668   8.953 -0.1210  0.1598 -0.7997
   11CHL1   H20  791   2.373   6.635   8.955  0.2447  1.3263  2.3827
   11CHL1   C21  792   2.267   6.826   8.967 -0.1083 -0.1654 -0.3547
   11CHL1  H21A  793   2.316   6.870   8.878  0.8392 -1.1283 -0.3278
   11CHL1  H21B  794   2.322   6.853   9.060 -1.2344 -0.6549  0.4636
   11CHL1  H21C  795   2.165   6.869   8.973  0.6068  1.2090  3.4552
   11CHL1   C22  796   2.219   6.631   8.818 -0.0102  0.4694 -0.4290
   11CHL1  H22A  797   2.290   6.681   8.748  0.1352  0.3504 -0.3674
   11CHL1  H22B  798   2.238   6.522   8.820 -3.2197 -0.1314  0.4898
   11CHL1   C23  799   2.074   6.669   8.785 -0.5258 -0.4067 -0.5522
   11CHL1  H23A  800   2.012   6.637   8.872 -0.1568  1.9103  0.5935
   11CHL1  H23B  801   2.077   6.777   8.761  3.1516 -0.1018  0.9460
   11CHL1   C24  802   2.023   6.591   8.661  0.0264  0.5854 -0.2044
   11CHL1  H24A  803   2.078   6.616   8.568  0.3165 -1.8972 -0.7395
   11CHL1  H24B  804   2.040   6.483   8.682  1.0226  0.5664 -1.0443
   11CHL1   C25  805   1.872   6.607   8.636  0.0834  0.7565  1.0358
   11CHL1   H25  806   1.844   6.713   8.648  0.8420  1.1105 -0.2155
   11CHL1   C26  807   1.856   6.555   8.494 -0.5918  0.4260 -0.2295
   11CHL1  H26A  808   1.907   6.629   8.428  0.7961 -2.2066 -2.2227
   11CHL1  H26B  809   1.896   6.453   8.475 -0.4411  0.2405  1.0865
   11CHL1  H26C  810   1.750   6.552   8.461 -0.2796 -2.7379 -1.1273
   11CHL1   C27  811   1.774   6.523   8.734 -0.0708 -0.5275  0.6328
   11CHL1  H27A  812   1.778   6.562   8.838  1.1945  1.4925 -0.1622
   11CHL1  H27B  813   1.673   6.541   8.690  0.8669  0.9692 -0.9944
   11CHL1  H27C  814   1.800   6.415   8.732 -0.4535 -0.6254  0.9243
   12CHL1    C3  815   5.033   2.424  10.286 -0.2614 -1.2390 -0.0235
   12CHL1    H3  816   5.128   2.482  10.286 -0.2809 -1.1880  1.4052
   12CHL1    O3  817   5.016   2.368  10.410 -0.1999  0.7403  0.8040
   12CHL1   H3'  818   4.943   2.307  10.399 -0.1440  0.6258  1.0422
   12CHL1    C4  819   4.922   2.526  10.259  0.2175 -0.2917 -0.3616
   12CHL1   H4A  820   4.822   2.479  10.272  0.4455 -0.9714 -1.0177
   12CHL1   H4B  821   4.932   2.603  10.339 -1.7092 -1.9007  1.4965
   12CHL1    C5  822   4.917   2.582  10.117 -0.3237 -0.0750 -0.5842
   12CHL1    C6  823   4.913   2.716  10.100  0.4682 -0.1244 -0.2097
   12CHL1    H6  824   4.905   2.782  10.187 -0.2638 -0.4643 -0.0125
   12CHL1    C7  825   4.899   2.776   9.961 -0.8146  0.3772  0.0250
   12CHL1   H7A  826   4.812   2.845   9.968 -2.4563 -1.5288 -1.3441
   12CHL1   H7B  827   4.994   2.831   9.939 -0.8472 -0.5155 -2.4504
   12CHL1    C8  828   4.877   2.680   9.842  0.9080 -0.0595  0.0133
   12CHL1    H8  829   4.768   2.658   9.846  0.5065  1.7966  0.0464
   12CHL1   C14  830   4.931   2.748   9.719 -0.1937  0.4471 -0.6819
   12CHL1   H14  831   5.041   2.752   9.736 -0.1844  0.5615 -0.7736
   12CHL1   C15  832   4.878   2.893   9.670  0.4338  0.2376 -0.0878
   12CHL1  H15A  833   4.768   2.888   9.681  0.4430  1.1513  0.5143
   12CHL1  H15B  834   4.920   2.979   9.727  1.2851 -1.1178  1.3677
   12CHL1   C16  835   4.906   2.905   9.519 -0.2564 -0.1430 -0.0440
   12CHL1  H16A  836   4.805   2.922   9.477 -0.6015  1.6430  1.4094
   12CHL1  H16B  837   4.982   2.985   9.505  0.6376 -1.0925 -0.6978
   12CHL1   C17  838   4.977   2.759   9.490 -0.3092 -0.4040 -0.5427
   12CHL1   H17  839   5.079   2.794   9.516  0.3519 -1.6975 -1.3489
   12CHL1   C13  840   4.932   2.664   9.592  0.0656  0.3537  0.9843
   12CHL1   C18  841   4.786   2.625   9.570  0.2933 -0.4869  0.1681
   12CHL1  H18A  842   4.791   2.564   9.477  1.8902 -0.9209  0.5296
   12CHL1  H18B  843   4.741   2.559   9.648  2.5129 -2.7858 -0.4330
   12CHL1  H18C  844   4.720   2.715   9.562  1.6064  0.5553  0.9665
   12CHL1   C12  845   5.004   2.525   9.616 -0.1449  0.6972 -0.1204
   12CHL1  H12A  846   4.990   2.468   9.522 -1.7083  1.3532 -0.3034
   12CHL1  H12B  847   5.111   2.554   9.622  0.5833 -2.2719  2.0776
   12CHL1   C11  848   4.967   2.458   9.740 -0.3292  0.3601  0.5573
   12CHL1  H11A  849   4.868   2.410   9.727 -0.8919  1.0230  2.1489
   12CHL1  H11B  850   5.043   2.379   9.763  0.6949  0.4236 -2.4727
   12CHL1    C9  851   4.960   2.551   9.863  0.4453  0.1540 -0.3901
   12CHL1    H9  852   5.064   2.587   9.871  0.4184  0.1641 -0.0836
   12CHL1   C10  853   4.924   2.479  10.001 -0.0547  0.1565 -0.5570
   12CHL1   C19  854   4.788   2.424   9.989  0.5863  0.2191  0.0553
   12CHL1  H19A  855   4.775   2.362   9.898  3.1621  2.0612 -1.6200
   12CHL1  H19B  856   4.771   2.359  10.078 -1.3473 -0.5072 -0.8124
   12CHL1  H19C  857   4.707   2.500   9.984 -0.1590 -0.3732  2.4402
   12CHL1    C1  858   5.043   2.370  10.038  0.4720  0.0605  0.3792
   12CHL1   H1A  859   5.032   2.294   9.958 -1.5893  0.1030  0.5946
   12CHL1   H1B  860   5.141   2.419  10.019  0.3134 -0.4383 -1.8813
   12CHL1    C2  861   5.036   2.311  10.179 -0.1800  0.7213 -0.0455
   12CHL1   H2A  862   5.124   2.249  10.207 -0.6864 -0.8806 -1.8962
   12CHL1   H2B  863   4.948   2.248  10.205  0.1707 -0.0611 -0.7341
   12CHL1   C20  864   4.981   2.719   9.339  0.3372 -1.0285 -0.3849
   12CHL1   H20  865   4.968   2.609   9.342  0.2151 -1.0748 -2.1139
   12CHL1   C21  866   5.121   2.757   9.290 -0.1690 -0.0710  0.0026
   12CHL1  H21A  867   5.129   2.746   9.180  0.5697  0.8970 -0.0470
   12CHL1  H21B  868   5.200   2.693   9.335  4.2467  3.0111 -2.9065
   12CHL1  H21C  869   5.145   2.861   9.321  0.7196 -0.8320  2.0073
   12CHL1   C22  870   4.859   2.773   9.250 -0.1920 -1.1171  0.1858
   12CHL1  H22A  871   4.768   2.729   9.295  1.0070 -2.3961  1.4385
   12CHL1  H22B  872   4.870   2.883   9.261  0.8809 -0.9036 -2.4885
   12CHL1   C23  873   4.882   2.738   9.098 -0.0426 -0.2410 -0.0045
   12CHL1  H23A  874   4.962   2.803   9.055  0.2163 -0.3146  0.3583
   12CHL1  H23B  875   4.926   2.636   9.099  0.2480 -0.1162  0.9648
   12CHL1   C24  876   4.751   2.739   9.020 -0.5682 -0.1325 -0.4762
   12CHL1  H24A  877   4.676   2.682   9.079 -2.2802  1.0145 -1.4997
   12CHL1  H24B  878   4.724   2.846   9.011 -0.2311 -0.0320 -0.3151
   12CHL1   C25  879   4.762   2.689   8.872  0.0833  0.8031 -0.6455
   12CHL1   H25  880   4.656   2.688   8.840  0.7726  0.2601 -3.0237
   12CHL1   C26  881   4.852   2.775   8.783 -0.2494  0.4026  0.0865
   12CHL1  H26A  882   4.853   2.729   8.682 -0.6528 -1.3268  0.8515
   12CHL1  H26B  883   4.806   2.876   8.772  1.0774  0.9410 -0.6304
   12CHL1  H26C  884   4.954   2.767   8.826 -0.2039 -2.4785 -0.4819
   12CHL1   C27  885   4.798   2.538   8.870  0.1284  0.0302  0.0217
   12CHL1  H27A  886   4.900   2.537   8.915 -0.2977  0.8886  1.0364
   12CHL1  H27B  887   4.725   2.474   8.924 -0.7148 -0.0129 -1.1613
   12CHL1  H27C  888   4.805   2.500   8.766 -0.2091  0.2015 -0.0609
   13CHL1    C3  889   3.844   3.943   9.852  0.1680  0.6324  0.4915
   13CHL1    H3  890   3.841   3.834   9.831 -1.2753  0.7841 -0.2023
   13CHL1    O3  891   3.877   3.983   9.985  0.0838 -0.5657  0.1063
   13CHL1   H3'  892   3.865   4.077   9.999  0.6058 -0.5126  0.1761
   13CHL1    C4  893   3.957   4.007   9.759  0.1777 -0.1046 -0.0755
   13CHL1   H4A  894   3.965   4.114   9.787  0.3862  0.5900 -2.6680
   13CHL1   H4B  895   4.056   3.971   9.796 -1.9854 -2.4935  3.7299
   13CHL1    C5  896   3.943   3.989   9.610 -0.3765 -0.5959 -0.7507
   13CHL1    C6  897   4.043   3.939   9.536  0.3812  0.2233  0.9300
   13CHL1    H6  898   4.131   3.909   9.595 -0.3832 -2.3028  0.8142
   13CHL1    C7  899   4.034   3.926   9.393 -0.4168  0.0053 -0.1552
   13CHL1   H7A  900   4.122   3.981   9.351  0.3858 -0.8226  0.4248
   13CHL1   H7B  901   4.038   3.823   9.353 -0.9296  0.2226 -0.7781
   13CHL1    C8  902   3.906   4.000   9.328 -0.2366  0.2035  1.1042
   13CHL1    H8  903   3.944   4.104   9.316  2.0072 -0.6625  0.5060
   13CHL1   C14  904   3.881   3.942   9.195 -0.0974  0.1767 -0.1497
   13CHL1   H14  905   3.864   3.834   9.214 -0.6100  0.3356  0.3138
   13CHL1   C15  906   3.990   3.949   9.087 -0.5127  0.2830  0.7120
   13CHL1  H15A  907   4.053   4.040   9.081  0.5352 -0.4139  0.9355
   13CHL1  H15B  908   4.072   3.882   9.120 -1.2723 -0.5512  0.9348
   13CHL1   C16  909   3.918   3.910   8.953  0.4967  0.3822  0.0255
   13CHL1  H16A  910   3.939   3.994   8.884 -0.8775 -0.2702 -1.2050
   13CHL1  H16B  911   3.942   3.812   8.908 -4.0758 -0.1420 -1.5219
   13CHL1   C17  912   3.763   3.901   8.994 -0.2479 -0.2289  0.5159
   13CHL1   H17  913   3.741   3.797   9.024 -0.1115  0.6175  3.7480
   13CHL1   C13  914   3.748   3.983   9.124  0.0846 -0.2242  0.7742
   13CHL1   C18  915   3.756   4.132   9.094 -0.3108  0.9885  0.5163
   13CHL1  H18A  916   3.807   4.186   9.176  0.9954 -0.1919  0.5010
   13CHL1  H18B  917   3.816   4.145   9.001  1.8808 -0.0922  1.7093
   13CHL1  H18C  918   3.656   4.175   9.075 -1.2991 -1.3246  0.3152
   13CHL1   C12  919   3.632   3.951   9.225 -0.9585 -0.6528  0.3426
   13CHL1  H12A  920   3.535   3.985   9.182  0.1410  1.1277 -0.7810
   13CHL1  H12B  921   3.622   3.842   9.247 -4.1445 -0.8989 -1.9176
   13CHL1   C11  922   3.642   4.006   9.363  0.3348  0.4856 -0.5437
   13CHL1  H11A  923   3.626   4.116   9.360  0.6657  0.5067 -3.4389
   13CHL1  H11B  924   3.570   3.960   9.433  0.2700  1.4707  0.0436
   13CHL1    C9  925   3.784   3.980   9.421  0.1700 -0.0761 -0.1583
   13CHL1    H9  926   3.784   3.871   9.442 -0.9955 -0.0772 -0.1471
   13CHL1   C10  927   3.804   4.033   9.573 -0.4246 -0.5411 -0.2640
   13CHL1   C19  928   3.797   4.186   9.569  0.2320 -0.4042  0.0919
   13CHL1  H19A  929   3.859   4.237   9.492  0.3215 -0.9038 -0.1664
   13CHL1  H19B  930   3.691   4.212   9.547  0.5790 -0.0444 -1.2105
   13CHL1  H19C  931   3.817   4.235   9.667 -0.9996 -1.1101  0.6895
   13CHL1    C1  932   3.685   3.978   9.659 -0.8658  0.4622  0.1741
   13CHL1   H1A  933   3.595   4.032   9.624 -0.0721  1.8180  0.1706
   13CHL1   H1B  934   3.685   3.872   9.628  0.9608  0.9253 -1.5371
   13CHL1    C2  935   3.705   3.999   9.807 -0.3788  0.7634  0.6604
   13CHL1   H2A  936   3.614   3.962   9.858 -0.5748 -0.1667 -0.3611
   13CHL1   H2B  937   3.694   4.103   9.844  1.1881  0.2831  2.5772
   13CHL1   C20  938   3.669   3.929   8.876  0.2690  0.3911  0.3971
   13CHL1   H20  939   3.692   4.028   8.831  2.2167 -0.7923 -1.2651
   13CHL1   C21  940   3.515   3.932   8.916 -0.1108  0.3427  0.0911
   13CHL1  H21A  941   3.490   3.827   8.945  1.0820  0.0481  0.0895
   13CHL1  H21B  942   3.451   3.961   8.830  0.0212  0.6229  0.0866
   13CHL1  H21C  943   3.499   4.003   9.000  0.1249 -2.0330  2.1995
   13CHL1   C22  944   3.695   3.839   8.753  0.2362  0.6091 -0.1602
   13CHL1  H22A  945   3.617   3.868   8.679 -1.2781  1.2352  1.6251
   13CHL1  H22B  946   3.798   3.859   8.718  0.2928 -0.0395 -0.3606
   13CHL1   C23  947   3.688   3.685   8.781  0.5761 -0.0512 -0.1619
   13CHL1  H23A  948   3.738   3.655   8.876 -0.8212  0.7513  0.8466
   13CHL1  H23B  949   3.585   3.647   8.800  0.4761 -0.5314 -1.6044
   13CHL1   C24  950   3.749   3.600   8.669  0.5131  0.6080  0.0653
   13CHL1  H24A  951   3.709   3.622   8.568 -0.7781 -0.5824  0.2947
   13CHL1  H24B  952   3.857   3.626   8.663  0.7665 -0.3311  0.4677
   13CHL1   C25  953   3.747   3.442   8.695 -0.1973  0.7928  0.4068
   13CHL1   H25  954   3.768   3.416   8.801 -1.8785 -2.5590 -0.0143
   13CHL1   C26  955   3.604   3.385   8.666  0.0070  0.2353 -0.0378
   13CHL1  H26A  956   3.605   3.276   8.685  0.7417  0.1137 -0.7610
   13CHL1  H26B  957   3.538   3.435   8.740 -0.1815 -0.7574  0.4806
   13CHL1  H26C  958   3.578   3.411   8.561 -1.1647  1.5240  0.5507
   13CHL1   C27  959   3.848   3.377   8.607  0.6456  0.0491 -0.2791
   13CHL1  H27A  960   3.950   3.409   8.635  0.9321  2.1674 -3.4788
   13CHL1  H27B  961   3.848   3.266   8.611  0.6147  0.1145  3.0501
   13CHL1  H27C  962   3.839   3.407   8.500  0.8049  1.1997  0.0285
   14CHL1    C3  963   3.690   0.414  10.317 -0.0793  0.4208 -0.3444
   14CHL1    H3  964   3.612   0.487  10.290  0.7502  0.4384 -2.8440
   14CHL1    O3  965   3.690   0.416  10.461  0.1436  0.1191  0.5992
   14CHL1   H3'  966   3.736   0.338  10.493  0.3715 -0.3319 -0.7625
   14CHL1    C4  967   3.665   0.274  10.263  0.1019  0.7234  0.0377
   14CHL1   H4A  968   3.744   0.207  10.304 -1.0771  0.0363  1.2409
   14CHL1   H4B  969   3.565   0.244  10.302  0.0687  1.2103  0.3279
   14CHL1    C5  970   3.668   0.263  10.113  0.0749  0.5024  0.1453
   14CHL1    C6  971   3.564   0.210  10.051  0.1714 -0.5330 -0.3771
   14CHL1    H6  972   3.476   0.171  10.106 -1.4527  0.5982 -2.0888
   14CHL1    C7  973   3.563   0.209   9.902  0.1046 -0.5830 -0.3343
   14CHL1   H7A  974   3.519   0.113   9.867  0.5118 -0.6503 -0.6663
   14CHL1   H7B  975   3.502   0.296   9.871  1.7610  0.5289 -0.5451
   14CHL1    C8  976   3.694   0.239   9.829 -0.1191 -0.1162  0.1511
   14CHL1    H8  977   3.758   0.149   9.841 -0.1027 -0.0817  0.3214
   14CHL1   C14  978   3.667   0.264   9.679  0.4001 -0.6532 -0.3647
   14CHL1   H14  979   3.603   0.355   9.680  1.1733 -0.0685 -1.7883
   14CHL1   C15  980   3.572   0.168   9.595  0.5108  0.3064 -0.5151
   14CHL1  H15A  981   3.602   0.064   9.618  0.2014  0.8989  2.8336
   14CHL1  H15B  982   3.462   0.182   9.602  0.7190  1.6175  0.4195
   14CHL1   C16  983   3.615   0.209   9.449 -0.0156  0.2064 -0.3682
   14CHL1  H16A  984   3.638   0.109   9.407  0.0275  0.7058 -1.5573
   14CHL1  H16B  985   3.533   0.264   9.398  0.2039  0.6630 -0.2310
   14CHL1   C17  986   3.742   0.304   9.464 -0.2583 -0.4988  0.0692
   14CHL1   H17  987   3.689   0.401   9.460  0.3491 -0.2030 -1.2356
   14CHL1   C13  988   3.801   0.282   9.602 -0.1035 -0.4125 -0.0170
   14CHL1   C18  989   3.881   0.150   9.604 -0.5244  0.3443  0.2940
   14CHL1  H18A  990   3.923   0.117   9.701 -0.9604  0.6961  0.6043
   14CHL1  H18B  991   3.834   0.061   9.558 -0.6019  0.9077 -0.7393
   14CHL1  H18C  992   3.970   0.172   9.541 -1.6467  1.2345 -1.0332
   14CHL1   C12  993   3.880   0.405   9.663  0.1261 -0.2728  0.1923
   14CHL1  H12A  994   3.981   0.416   9.618  0.1658 -0.2261  0.2927
   14CHL1  H12B  995   3.819   0.496   9.645  2.3913  1.3175  0.2552
   14CHL1   C11  996   3.906   0.388   9.822  0.2293 -0.5577  0.0811
   14CHL1  H11A  997   3.992   0.318   9.824 -0.2769 -1.1921 -0.2460
   14CHL1  H11B  998   3.946   0.484   9.860 -2.0499  0.3109  0.4004
   14CHL1    C9  999   3.774   0.356   9.894  0.2178 -0.2257 -0.1413
   14CHL1    H9 1000   3.705   0.441   9.875 -3.0859 -2.5425  1.1123
   14CHL1   C10 1001   3.789   0.335  10.045 -0.2545  0.1977 -0.4222
   14CHL1   C19 1002   3.904   0.240  10.069  0.2750  0.0818 -0.1251
   14CHL1  H19A 1003   3.923   0.225  10.177  0.3138  0.9319 -0.0090
   14CHL1  H19B 1004   3.878   0.135  10.044 -0.3703 -0.0178  0.9417
   14CHL1  H19C 1005   4.001   0.246  10.016  0.0126 -4.0757 -1.2351
   14CHL1    C1 1006   3.828   0.470  10.116 -0.0071  0.1371 -0.7494
   14CHL1   H1A 1007   3.930   0.505  10.087  0.7700 -0.5084  1.1127
   14CHL1   H1B 1008   3.756   0.547  10.082 -1.5225 -0.1881  1.6134
   14CHL1    C2 1009   3.825   0.460  10.273 -0.8469  0.0995  0.6304
   14CHL1   H2A 1010   3.858   0.560  10.306  1.4256  0.9197 -3.6825
   14CHL1   H2B 1011   3.891   0.386  10.323 -2.1379 -2.4101 -1.2067
   14CHL1   C20 1012   3.826   0.287   9.335  0.6797 -0.9087 -0.0472
   14CHL1   H20 1013   3.864   0.183   9.325 -0.9332 -1.6747  1.5153
   14CHL1   C21 1014   3.947   0.378   9.341  0.5185  0.2100 -1.0828
   14CHL1  H21A 1015   3.997   0.376   9.241  0.9646 -1.1649 -0.8334
   14CHL1  H21B 1016   4.018   0.333   9.413  0.8803  1.0758 -0.8876
   14CHL1  H21C 1017   3.921   0.480   9.378  3.4378  0.1362  1.2972
   14CHL1   C22 1018   3.739   0.323   9.207  0.3183  0.9708  1.2348
   14CHL1  H22A 1019   3.650   0.256   9.199  0.4610  0.8477  0.6919
   14CHL1  H22B 1020   3.697   0.425   9.218  0.0180  0.9887 -0.0145
   14CHL1   C23 1021   3.812   0.305   9.064  0.2711 -0.1515 -0.5449
   14CHL1  H23A 1022   3.741   0.313   8.979 -1.5816 -3.0107  0.6648
   14CHL1  H23B 1023   3.877   0.395   9.059  2.8175 -1.8507  0.8714
   14CHL1   C24 1024   3.895   0.179   9.057  0.1784  0.1659 -0.5387
   14CHL1  H24A 1025   3.980   0.190   9.128  0.1632 -0.3986 -0.4302
   14CHL1  H24B 1026   3.837   0.087   9.082 -2.8556  2.6354  1.9709
   14CHL1   C25 1027   3.943   0.149   8.913  0.8568  0.3453 -0.1314
   14CHL1   H25 1028   3.854   0.132   8.848  1.4890 -1.1097 -0.6475
   14CHL1   C26 1029   4.005   0.274   8.845  0.1091  0.1366 -0.0113
   14CHL1  H26A 1030   3.921   0.328   8.796 -2.1808 -2.0227  1.3969
   14CHL1  H26B 1031   4.073   0.324   8.917  0.7232 -2.8777  1.6085
   14CHL1  H26C 1032   4.064   0.237   8.758 -0.0180 -0.5192  0.1791
   14CHL1   C27 1033   4.034   0.023   8.903  0.1632 -0.4636  0.0578
   14CHL1  H27A 1034   4.137   0.063   8.896 -0.1889  0.8136  1.9868
   14CHL1  H27B 1035   4.007  -0.047   8.985 -0.2891  0.8183  1.0003
   14CHL1  H27C 1036   4.015  -0.027   8.805  0.4832 -0.8196  0.1748
   15CHL1    C3 1037   4.201   6.162  10.062 -0.2840 -0.1672  0.8014
   15CHL1    H3 1038   4.311   6.161  10.048 -0.4023  3.2463 -1.1361
   15CHL1    O3 1039   4.171   6.162  10.204  0.5538  0.1964  0.7366
   15CHL1   H3' 1040   4.076   6.170  10.212 -0.0577 -3.1551 -2.1791
   15CHL1    C4 1041   4.147   6.286   9.990 -0.3623  0.1828  0.5419
   15CHL1   H4A 1042   4.043   6.302  10.024 -0.3049  3.0495 -0.5393
   15CHL1   H4B 1043   4.200   6.372  10.035  0.8175 -0.2706  0.0422
   15CHL1    C5 1044   4.164   6.278   9.840  0.1457  0.0100 -0.4247
   15CHL1    C6 1045   4.205   6.389   9.775 -0.5738 -0.2013  0.5043
   15CHL1    H6 1046   4.234   6.469   9.844 -1.1382 -0.8517  1.5145
   15CHL1    C7 1047   4.228   6.397   9.626  0.3676 -0.2843 -0.3120
   15CHL1   H7A 1048   4.186   6.491   9.586  0.7124  0.4253  0.9642
   15CHL1   H7B 1049   4.337   6.404   9.602 -0.5193  1.3177 -4.1473
   15CHL1    C8 1050   4.167   6.274   9.543 -0.2549  0.0717  0.4470
   15CHL1    H8 1051   4.057   6.292   9.541 -0.3995 -0.7796  0.6538
   15CHL1   C14 1052   4.238   6.265   9.406  0.0909 -0.3154 -0.6572
   15CHL1   H14 1053   4.340   6.228   9.429 -0.4831 -0.4079  1.9182
   15CHL1   C15 1054   4.250   6.383   9.312 -1.0328  0.2748  0.5293
   15CHL1  H15A 1055   4.157   6.443   9.309 -1.5099 -0.5021 -0.6925
   15CHL1  H15B 1056   4.327   6.455   9.345  1.3113 -2.0369  0.2833
   15CHL1   C16 1057   4.279   6.327   9.168  0.2817 -0.1703  0.7714
   15CHL1  H16A 1058   4.202   6.375   9.104 -0.3069 -1.6961  0.3137
   15CHL1  H16B 1059   4.382   6.342   9.129  0.2614 -0.7162  0.5030
   15CHL1   C17 1060   4.250   6.171   9.189  0.2827  0.1324  0.5285
   15CHL1   H17 1061   4.345   6.118   9.209 -0.0332 -0.2342  1.0648
   15CHL1   C13 1062   4.178   6.152   9.324 -0.5202  0.3269 -0.0396
   15CHL1   C18 1063   4.025   6.163   9.300  0.0798  0.4672 -0.0953
   15CHL1  H18A 1064   3.966   6.199   9.388 -0.1090 -0.9039  0.3392
   15CHL1  H18B 1065   4.003   6.229   9.213 -1.7816  0.9457  0.7019
   15CHL1  H18C 1066   3.982   6.068   9.264 -1.4872  0.7300  1.0218
   15CHL1   C12 1067   4.199   6.017   9.407  0.1541 -0.0767 -0.1859
   15CHL1  H12A 1068   4.155   5.925   9.363  1.0057 -0.8714  0.5966
   15CHL1  H12B 1069   4.308   5.992   9.405  0.0946 -0.3683  0.2384
   15CHL1   C11 1070   4.142   6.021   9.547  0.1560 -0.1511  0.3501
   15CHL1  H11A 1071   4.031   6.028   9.541 -0.0413 -0.3866  3.1203
   15CHL1  H11B 1072   4.156   5.925   9.601 -0.4304  1.2864  3.1169
   15CHL1    C9 1073   4.188   6.145   9.624 -0.4523 -0.0153  0.5836
   15CHL1    H9 1074   4.296   6.124   9.634 -0.4779 -1.4756 -1.7316
   15CHL1   C10 1075   4.119   6.147   9.768 -0.0681 -0.8754  0.0297
   15CHL1   C19 1076   3.960   6.157   9.768  0.3915  0.0469 -0.8339
   15CHL1  H19A 1077   3.915   6.064   9.726  1.9770 -1.7859  1.3915
   15CHL1  H19B 1078   3.917   6.166   9.870 -0.8294  0.9252 -1.4193
   15CHL1  H19C 1079   3.929   6.247   9.711 -0.8803 -0.4416 -0.9403
   15CHL1    C1 1080   4.160   6.018   9.856  0.1135  0.8252  0.3857
   15CHL1   H1A 1081   4.099   5.933   9.817 -0.8618  1.8476 -0.3282
   15CHL1   H1B 1082   4.268   6.008   9.833 -0.0921 -0.1491 -0.1622
   15CHL1    C2 1083   4.136   6.029  10.005 -0.5296  0.2428  0.4280
   15CHL1   H2A 1084   4.199   5.954  10.057 -0.6632 -1.5189 -1.8736
   15CHL1   H2B 1085   4.030   6.030  10.039 -1.5546 -1.9200 -2.5086
   15CHL1   C20 1086   4.187   6.102   9.062 -0.0649  0.2332  0.6636
   15CHL1   H20 1087   4.085   6.138   9.038 -1.1527 -2.6507  0.8521
   15CHL1   C21 1088   4.184   5.945   9.084 -0.3026  0.1246  0.2158
   15CHL1  H21A 1089   4.126   5.906   9.170  1.8433  0.9585  2.1165
   15CHL1  H21B 1090   4.290   5.912   9.096 -0.3569 -0.9250 -2.0739
   15CHL1  H21C 1091   4.146   5.888   8.997 -0.0647  1.6701 -0.9203
   15CHL1   C22 1092   4.278   6.124   8.942 -0.3834  0.7630 -0.0134
   15CHL1  H22A 1093   4.288   6.234   8.934 -2.7317  1.0559  0.8514
   15CHL1  H22B 1094   4.375   6.073   8.959  0.0486  2.2774  2.2763
   15CHL1   C23 1095   4.209   6.071   8.815  0.1788  0.1493 -0.9191
   15CHL1  H23A 1096   4.209   5.961   8.827 -0.5224  0.3532  1.1975
   15CHL1  H23B 1097   4.101   6.098   8.813  0.4688  1.4872  0.5479
   15CHL1   C24 1098   4.281   6.124   8.690  0.1369  0.0864 -0.3889
   15CHL1  H24A 1099   4.288   6.235   8.695  0.7815 -0.0178  1.2396
   15CHL1  H24B 1100   4.385   6.088   8.697 -0.0287 -0.6147 -1.3514
   15CHL1   C25 1101   4.219   6.085   8.557 -0.4655  0.0089  0.4067
   15CHL1   H25 1102   4.111   6.113   8.562 -0.4180 -0.0687  1.8901
   15CHL1   C26 1103   4.285   6.162   8.437 -0.1964  0.7988  0.4777
   15CHL1  H26A 1104   4.235   6.143   8.340  0.2266  0.7090  0.2764
   15CHL1  H26B 1105   4.272   6.272   8.442 -2.5816  0.4994  1.6700
   15CHL1  H26C 1106   4.394   6.146   8.446 -0.6318 -1.5276  1.9507
   15CHL1   C27 1107   4.233   5.942   8.529 -0.2713  0.2414  0.1541
   15CHL1  H27A 1108   4.177   5.885   8.607  1.8595  1.2651  2.5139
   15CHL1  H27B 1109   4.197   5.901   8.432 -2.6458 -1.5040  1.7071
   15CHL1  H27C 1110   4.340   5.914   8.536 -0.5807 -0.7390  1.1583
   16CHL1    C3 1111   4.950   0.008  10.164  0.0188 -0.2262  0.6881
   16CHL1    H3 1112   5.057   0.040  10.160 -0.2866  0.7734  0.2312
   16CHL1    O3 1113   4.929  -0.013  10.303  0.3276 -0.0197  0.3989
   16CHL1   H3' 1114   4.987  -0.087  10.323 -2.9260 -2.7704  0.1236
   16CHL1    C4 1115   4.857   0.116  10.109  0.1956  0.4056  0.0806
   16CHL1   H4A 1116   4.754   0.093  10.142  0.4735 -0.7365  0.1845
   16CHL1   H4B 1117   4.878   0.214  10.157 -1.4980  0.5300  0.5734
   16CHL1    C5 1118   4.871   0.135   9.962  0.1935 -0.3260 -0.5607
   16CHL1    C6 1119   4.902   0.246   9.908  0.6104 -0.4656  0.2527
   16CHL1    H6 1120   4.929   0.333   9.969 -1.3903  0.9828 -0.8796
   16CHL1    C7 1121   4.910   0.272   9.763 -0.4698 -0.6026 -0.1392
   16CHL1   H7A 1122   4.860   0.367   9.736  2.0726  0.9873  0.6382
   16CHL1   H7B 1123   5.016   0.299   9.746 -1.0647  3.1006  1.4173
   16CHL1    C8 1124   4.850   0.158   9.681  0.2929  0.1659 -0.4485
   16CHL1    H8 1125   4.741   0.176   9.681  0.3326  0.3895 -0.8893
   16CHL1   C14 1126   4.906   0.162   9.539  0.2148 -1.0081 -0.4138
   16CHL1   H14 1127   5.015   0.144   9.546  0.3893 -0.1238 -0.8063
   16CHL1   C15 1128   4.903   0.293   9.462  0.3651  0.0280 -0.6235
   16CHL1  H15A 1129   4.815   0.355   9.487  1.0999  1.5974 -1.8865
   16CHL1  H15B 1130   4.987   0.363   9.480  2.0036 -1.8389 -0.8023
   16CHL1   C16 1131   4.913   0.246   9.309  0.0789  0.3160  0.6119
   16CHL1  H16A 1132   4.821   0.290   9.264 -0.7934 -0.6052  1.4573
   16CHL1  H16B 1133   4.999   0.293   9.258 -0.9143 -0.4970 -1.8666
   16CHL1   C17 1134   4.917   0.096   9.308  0.2154 -0.4286 -0.3524
   16CHL1   H17 1135   5.022   0.060   9.319  0.3472 -0.0086 -0.2212
   16CHL1   C13 1136   4.847   0.059   9.444  0.1989  0.2926  0.7555
   16CHL1   C18 1137   4.692   0.077   9.427 -0.6376  0.8002 -0.0361
   16CHL1  H18A 1138   4.649   0.078   9.529  3.9634  1.6840  2.0370
   16CHL1  H18B 1139   4.658   0.165   9.370 -1.5153  0.3911 -0.1457
   16CHL1  H18C 1140   4.650  -0.011   9.373 -1.0422  1.6025 -1.0344
   16CHL1   C12 1141   4.881  -0.081   9.502 -0.1123 -0.7685 -0.0514
   16CHL1  H12A 1142   4.833  -0.159   9.440  0.7950 -1.5252  0.1966
   16CHL1  H12B 1143   4.988  -0.105   9.488  0.2706  1.0829 -0.4774
   16CHL1   C11 1144   4.841  -0.106   9.654 -0.3275  0.0248 -0.4602
   16CHL1  H11A 1145   4.731  -0.113   9.655 -0.4463  1.7186 -0.6689
   16CHL1  H11B 1146   4.884  -0.201   9.693 -2.2962  0.0405  1.8616
   16CHL1    C9 1147   4.885   0.022   9.745  0.9320  0.1693 -0.3387
   16CHL1    H9 1148   4.996   0.020   9.733  1.0151 -0.3798  0.4277
   16CHL1   C10 1149   4.851   0.001   9.890  0.0682 -0.0798 -0.2723
   16CHL1   C19 1150   4.698  -0.045   9.897  0.3904  0.1563 -0.1302
   16CHL1  H19A 1151   4.656  -0.053  10.000  1.7458  0.6996  0.4830
   16CHL1  H19B 1152   4.651   0.029   9.829  2.3424  1.5165 -0.0463
   16CHL1  H19C 1153   4.678  -0.146   9.855 -0.2921 -0.5701  1.8549
   16CHL1    C1 1154   4.946  -0.116   9.941 -0.2650  0.2707  0.0921
   16CHL1   H1A 1155   4.915  -0.217   9.906  2.2153 -1.4372  2.5074
   16CHL1   H1B 1156   5.053  -0.095   9.923  0.2484 -0.5030  2.0899
   16CHL1    C2 1157   4.933  -0.126  10.094 -0.5785  0.2789  0.2417
   16CHL1   H2A 1158   4.998  -0.209  10.129  0.8265  1.7691  1.1786
   16CHL1   H2B 1159   4.826  -0.154  10.110 -1.1535  2.2464 -0.1057
   16CHL1   C20 1160   4.860   0.036   9.175  0.6335  0.2885  0.7655
   16CHL1   H20 1161   4.751   0.058   9.167  0.2868 -1.3297  0.7297
   16CHL1   C21 1162   4.885  -0.111   9.180  0.9436  0.6143 -0.1474
   16CHL1  H21A 1163   4.825  -0.179   9.245  1.8152  0.3213  0.3617
   16CHL1  H21B 1164   4.993  -0.137   9.182  0.3723 -1.7760  1.2765
   16CHL1  H21C 1165   4.855  -0.158   9.084 -1.7949  2.0559 -0.0672
   16CHL1   C22 1166   4.937   0.087   9.051 -0.5885  0.8330  0.3307
   16CHL1  H22A 1167   4.927   0.197   9.041 -0.0620  0.7787 -0.9829
   16CHL1  H22B 1168   5.046   0.076   9.069 -0.0308 -0.9167 -3.4885
   16CHL1   C23 1169   4.889   0.022   8.916 -0.0557 -0.4537  0.9582
   16CHL1  H23A 1170   4.942  -0.075   8.905 -0.8146 -0.6883 -0.8376
   16CHL1  H23B 1171   4.783  -0.008   8.930 -1.5450  3.5280 -0.9918
   16CHL1   C24 1172   4.908   0.105   8.791 -0.0680 -0.3033  0.1085
   16CHL1  H24A 1173   4.848   0.198   8.801 -0.1648 -0.1142 -2.0896
   16CHL1  H24B 1174   5.018   0.120   8.789  0.0715 -1.3146 -0.2593
   16CHL1   C25 1175   4.875   0.034   8.654  0.3777 -0.2444 -0.0312
   16CHL1   H25 1176   4.942  -0.053   8.637  0.2287 -0.1019 -1.4544
   16CHL1   C26 1177   4.730  -0.024   8.661 -0.0081 -0.0949  1.3624
   16CHL1  H26A 1178   4.656   0.057   8.677 -0.5562 -0.6732  1.7914
   16CHL1  H26B 1179   4.696  -0.060   8.561  1.2551 -0.9935  1.2375
   16CHL1  H26C 1180   4.726  -0.104   8.738  0.5758 -1.8240 -0.3379
   16CHL1   C27 1181   4.884   0.119   8.525 -0.7488 -0.7462  0.6239
   16CHL1  H27A 1182   4.870   0.060   8.432 -1.5452 -1.9640  1.4861
   16CHL1  H27B 1183   4.806   0.197   8.528 -0.4187 -0.3847 -0.1761
   16CHL1  H27C 1184   4.981   0.174   8.519 -0.0376 -1.3310  4.8130
   17CHL1    C3 1185   0.539   3.657  10.461 -0.1727  0.0698  0.0109
   17CHL1    H3 1186   0.650   3.664  10.450 -0.2952  2.0973 -0.0495
   17CHL1    O3 1187   0.505   3.651  10.601  0.0423  0.1111  0.5987
   17CHL1   H3' 1188   0.517   3.736  10.643  1.2182 -0.1065  0.7013
   17CHL1    C4 1189   0.467   3.779  10.393  0.5145  0.1791  0.3294
   17CHL1   H4A 1190   0.362   3.776  10.430  0.6897  1.5414  0.9815
   17CHL1   H4B 1191   0.516   3.867  10.441 -0.9900  2.0065 -1.4073
   17CHL1    C5 1192   0.464   3.785  10.246  0.0270  0.3668 -0.4437
   17CHL1    C6 1193   0.496   3.893  10.177 -0.0052 -0.3147 -0.2716
   17CHL1    H6 1194   0.511   3.988  10.230  0.1738 -0.5144  0.0361
   17CHL1    C7 1195   0.505   3.906  10.023  0.6394  0.3019  0.4087
   17CHL1   H7A 1196   0.450   3.994   9.984  0.6846  0.5301  0.8524
   17CHL1   H7B 1197   0.608   3.915   9.982  1.3249 -0.8794  1.8186
   17CHL1    C8 1198   0.437   3.784   9.952 -0.1237 -0.0586  0.0455
   17CHL1    H8 1199   0.326   3.794   9.958 -0.2914 -0.1297 -2.5025
   17CHL1   C14 1200   0.466   3.780   9.802 -0.6761 -0.8604 -0.6567
   17CHL1   H14 1201   0.574   3.755   9.791 -0.6881 -1.4250  0.3503
   17CHL1   C15 1202   0.437   3.910   9.726  0.1596  0.0246 -0.5586
   17CHL1  H15A 1203   0.337   3.953   9.748  0.2745  0.7961 -1.5197
   17CHL1  H15B 1204   0.510   3.992   9.745  0.8210 -0.3665 -1.4176
   17CHL1   C16 1205   0.431   3.852   9.585  0.3723  0.2748  0.3435
   17CHL1  H16A 1206   0.332   3.877   9.540 -0.3607  1.7863  2.7136
   17CHL1  H16B 1207   0.507   3.901   9.520  0.9289 -2.8063 -1.4187
   17CHL1   C17 1208   0.440   3.697   9.589  0.6549  0.2986  0.3483
   17CHL1   H17 1209   0.549   3.677   9.581  0.6904  0.3197  0.7745
   17CHL1   C13 1210   0.408   3.658   9.731 -0.2084 -0.0045  0.1775
   17CHL1   C18 1211   0.258   3.648   9.739  0.0260 -0.2733  0.8600
   17CHL1  H18A 1212   0.210   3.557   9.699 -1.4014  0.5086  0.7435
   17CHL1  H18B 1213   0.216   3.665   9.841 -3.4093 -1.1584 -0.3617
   17CHL1  H18C 1214   0.205   3.716   9.669  1.1124 -0.9200 -0.6204
   17CHL1   C12 1215   0.472   3.533   9.791 -0.7908 -0.1631 -0.0511
   17CHL1  H12A 1216   0.434   3.446   9.733 -2.6123  2.0274 -2.2237
   17CHL1  H12B 1217   0.582   3.545   9.780 -0.9396  0.2211 -1.1577
   17CHL1   C11 1218   0.438   3.519   9.938  0.5009  0.4737  0.9412
   17CHL1  H11A 1219   0.327   3.505   9.940  0.6130 -0.5207  0.2795
   17CHL1  H11B 1220   0.486   3.425   9.972 -0.5889 -0.4464 -0.0080
   17CHL1    C9 1221   0.480   3.651  10.021 -0.0407 -0.1851  0.3416
   17CHL1    H9 1222   0.591   3.653  10.011 -0.0976 -1.0642 -0.6158
   17CHL1   C10 1223   0.442   3.650  10.170  0.2522  0.4017  0.9933
   17CHL1   C19 1224   0.285   3.644  10.181  0.6243  0.9204  0.3362
   17CHL1  H19A 1225   0.246   3.630  10.284  4.0704 -2.3018  1.3110
   17CHL1  H19B 1226   0.227   3.726  10.134 -0.8924  0.7454  1.8714
   17CHL1  H19C 1227   0.259   3.548  10.132  0.8243  0.7055  0.6495
   17CHL1    C1 1228   0.514   3.534  10.247  0.6409 -0.7745  0.0706
   17CHL1   H1A 1229   0.485   3.434  10.208 -2.9681  0.1469  0.1566
   17CHL1   H1B 1230   0.623   3.546  10.230  0.2599  1.4307 -1.0622
   17CHL1    C2 1231   0.486   3.534  10.396  0.0317  0.7010 -0.1779
   17CHL1   H2A 1232   0.542   3.449  10.440 -0.0106  1.3713  1.2228
   17CHL1   H2B 1233   0.376   3.522  10.404  0.1126  0.9081  1.3972
   17CHL1   C20 1234   0.373   3.628   9.469 -0.2433  0.0956  0.5748
   17CHL1   H20 1235   0.265   3.652   9.475  0.4310  3.0833  1.4869
   17CHL1   C21 1236   0.403   3.479   9.480 -0.4255 -0.2768 -0.3758
   17CHL1  H21A 1237   0.509   3.457   9.507  0.6705  2.6576 -2.0348
   17CHL1  H21B 1238   0.379   3.431   9.382  2.6770 -1.2748 -0.7010
   17CHL1  H21C 1239   0.338   3.437   9.560  2.5639 -1.5939  1.4590
   17CHL1   C22 1240   0.429   3.681   9.340 -0.6378 -0.2247  0.4713
   17CHL1  H22A 1241   0.413   3.791   9.344  0.3216 -0.0344 -0.3623
   17CHL1  H22B 1242   0.535   3.647   9.329 -0.2458  0.8639  0.8036
   17CHL1   C23 1243   0.353   3.660   9.207  0.0129 -0.1441 -0.6679
   17CHL1  H23A 1244   0.341   3.551   9.194  1.0712 -0.5260  1.2837
   17CHL1  H23B 1245   0.253   3.704   9.226  0.9176  1.5785  0.3250
   17CHL1   C24 1246   0.420   3.708   9.072  0.6958  0.2402  0.7431
   17CHL1  H24A 1247   0.450   3.811   9.101 -1.4797  1.1930 -0.2620
   17CHL1  H24B 1248   0.512   3.646   9.065 -0.2417 -1.5064  3.1954
   17CHL1   C25 1249   0.339   3.696   8.954  0.0853  0.1309  0.5689
   17CHL1   H25 1250   0.394   3.721   8.860  1.8829  0.1144  1.6002
   17CHL1   C26 1251   0.283   3.556   8.929 -0.0848 -0.4810  0.0373
   17CHL1  H26A 1252   0.213   3.531   9.011 -0.1133  0.7671  0.4056
   17CHL1  H26B 1253   0.220   3.565   8.838 -1.1133 -2.1766  0.5603
   17CHL1  H26C 1254   0.366   3.483   8.923  0.7576  0.2134  2.8508
   17CHL1   C27 1255   0.226   3.794   8.972  0.1846  0.1639  0.1276
   17CHL1  H27A 1256   0.161   3.806   8.883 -1.7048 -5.2773  0.5625
   17CHL1  H27B 1257   0.152   3.752   9.043 -0.7713  0.8126 -0.4834
   17CHL1  H27C 1258   0.274   3.891   8.996  1.6712 -0.2722 -0.9681
   18CHL1    C3 1259   5.975   2.351  10.183  0.2168  0.3928 -0.6039
   18CHL1    H3 1260   5.951   2.246  10.155 -0.8843  0.1539  1.1629
   18CHL1    O3 1261   5.975   2.363  10.325  0.8746  0.1737  1.4862
   18CHL1   H3' 1262   5.885   2.353  10.356  1.3414 -0.5089  2.6145
   18CHL1    C4 1263   6.118   2.388  10.128  0.3099 -0.4015  0.3540
   18CHL1   H4A 1264   6.139   2.490  10.168 -0.8145 -0.2615  0.6118
   18CHL1   H4B 1265   6.179   2.306  10.172 -0.9086 -1.3682  0.2404
   18CHL1    C5 1266   6.125   2.375   9.978  0.4609  0.1167  0.6244
   18CHL1    C6 1267   6.227   2.304   9.922  0.4922 -0.2236 -0.9784
   18CHL1    H6 1268   6.307   2.255   9.981  1.0774 -1.8165 -3.0290
   18CHL1    C7 1269   6.244   2.294   9.771  0.2574  0.1731  1.1388
   18CHL1   H7A 1270   6.351   2.298   9.740 -0.2826  3.0457 -0.5514
   18CHL1   H7B 1271   6.226   2.190   9.739  0.6990 -0.1002  1.7503
   18CHL1    C8 1272   6.159   2.400   9.695  0.4348  0.1644 -0.9821
   18CHL1    H8 1273   6.206   2.500   9.711 -1.8094  1.0566  0.3131
   18CHL1   C14 1274   6.165   2.376   9.550 -0.2435  0.1216  0.5283
   18CHL1   H14 1275   6.142   2.268   9.542  2.1919 -0.4211  0.5097
   18CHL1   C15 1276   6.298   2.389   9.475 -0.3752 -0.1659 -0.0708
   18CHL1  H15A 1277   6.333   2.488   9.513 -1.8568 -0.3009  1.7612
   18CHL1  H15B 1278   6.378   2.314   9.494 -0.7147 -0.5852 -0.2989
   18CHL1   C16 1279   6.264   2.387   9.324  0.0862 -0.7967 -0.7030
   18CHL1  H16A 1280   6.306   2.476   9.272 -0.5265  0.9331  1.6680
   18CHL1  H16B 1281   6.288   2.292   9.272 -1.5483 -0.7406 -1.6252
   18CHL1   C17 1282   6.105   2.393   9.311 -0.6789  0.1251 -0.5473
   18CHL1   H17 1283   6.086   2.284   9.319  2.1609 -0.2609  1.6032
   18CHL1   C13 1284   6.065   2.448   9.451 -1.0573 -0.3857  0.7752
   18CHL1   C18 1285   6.103   2.598   9.445  0.1429 -0.3445 -0.1002
   18CHL1  H18A 1286   6.199   2.610   9.391  0.4576  1.6845  0.8606
   18CHL1  H18B 1287   6.032   2.666   9.392  1.1582  0.7860 -0.0248
   18CHL1  H18C 1288   6.122   2.635   9.549  3.1464 -3.3707  0.5089
   18CHL1   C12 1289   5.922   2.429   9.508 -0.4033  0.1312  0.7220
   18CHL1  H12A 1290   5.860   2.492   9.440 -0.4101  1.0455  1.5670
   18CHL1  H12B 1291   5.890   2.323   9.505 -0.6381  0.1755  1.7629
   18CHL1   C11 1292   5.910   2.487   9.653  0.2384  0.3955 -0.6174
   18CHL1  H11A 1293   5.929   2.596   9.659  1.0348  0.2739 -0.9428
   18CHL1  H11B 1294   5.804   2.473   9.686  0.3961  1.2001  0.2439
   18CHL1    C9 1295   6.009   2.408   9.752 -0.6082 -0.2984  0.1118
   18CHL1    H9 1296   5.961   2.308   9.751 -0.3515 -0.4227  0.0762
   18CHL1   C10 1297   6.015   2.446   9.901 -0.4128  0.0368  0.3630
   18CHL1   C19 1298   6.033   2.605   9.912 -0.9354  0.6178  0.1272
   18CHL1  H19A 1299   5.931   2.644   9.893 -1.1917 -0.5823 -1.0466
   18CHL1  H19B 1300   6.053   2.631  10.018  2.5785  1.1493 -0.5806
   18CHL1  H19C 1301   6.114   2.653   9.853 -0.4373 -0.3355  0.0200
   18CHL1    C1 1302   5.875   2.414   9.964 -0.1952 -0.3886  0.8071
   18CHL1   H1A 1303   5.803   2.476   9.907  1.0287  1.4612  1.2235
   18CHL1   H1B 1304   5.845   2.311   9.937 -1.8432  0.2041  0.3263
   18CHL1    C2 1305   5.870   2.441  10.117  0.1399  0.1639 -0.0387
   18CHL1   H2A 1306   5.768   2.425  10.156 -1.3264  3.9587 -2.0140
   18CHL1   H2B 1307   5.894   2.545  10.148  2.2443 -0.5672  0.8680
   18CHL1   C20 1308   6.055   2.455   9.183  0.3405  0.5401 -0.1156
   18CHL1   H20 1309   6.066   2.566   9.180  1.2663  0.4266 -1.0090
   18CHL1   C21 1310   5.903   2.437   9.176 -0.0981  0.1909 -0.0136
   18CHL1  H21A 1311   5.870   2.496   9.088  1.2938  2.5562  1.0103
   18CHL1  H21B 1312   5.844   2.497   9.248  0.6211  1.7013 -0.6603
   18CHL1  H21C 1313   5.876   2.330   9.172 -0.5476  0.3201 -0.5880
   18CHL1   C22 1314   6.125   2.391   9.064 -0.0487  0.0866  0.2328
   18CHL1  H22A 1315   6.227   2.435   9.061  0.2555 -0.5168  1.5833
   18CHL1  H22B 1316   6.123   2.282   9.084  1.2765 -0.9432 -4.6959
   18CHL1   C23 1317   6.066   2.422   8.922 -0.3515  0.3837 -0.0158
   18CHL1  H23A 1318   5.963   2.385   8.902 -0.9254  1.4573  0.9656
   18CHL1  H23B 1319   6.062   2.532   8.918  2.0981  0.4943 -0.6184
   18CHL1   C24 1320   6.162   2.374   8.807 -0.6410 -0.2506  0.7738
   18CHL1  H24A 1321   6.260   2.425   8.819  0.1956 -1.8397  0.7186
   18CHL1  H24B 1322   6.198   2.270   8.819  0.2874 -0.1609 -1.1814
   18CHL1   C25 1323   6.109   2.387   8.664  0.2787 -0.3560  0.5182
   18CHL1   H25 1324   6.014   2.330   8.657  0.0117  0.3861 -3.4571
   18CHL1   C26 1325   6.073   2.527   8.622 -0.2373  0.2048 -0.4297
   18CHL1  H26A 1326   6.000   2.536   8.539 -0.6666 -0.0371 -0.0752
   18CHL1  H26B 1327   6.032   2.586   8.707  0.1207 -1.3506  0.8407
   18CHL1  H26C 1328   6.172   2.570   8.594  1.8032 -1.3542  3.9289
   18CHL1   C27 1329   6.216   2.338   8.568 -0.1620 -0.2887 -0.4649
   18CHL1  H27A 1330   6.188   2.352   8.461  1.3754  3.7890 -0.4136
   18CHL1  H27B 1331   6.308   2.396   8.589 -0.9494  1.3791 -1.4430
   18CHL1  H27C 1332   6.235   2.230   8.586 -3.2539 -0.7281  0.5346
   19CHL1    C3 1333   3.961   5.629  10.140  0.2141 -0.2623  0.5773
   19CHL1    H3 1334   4.027   5.718  10.125  1.4740 -1.5553 -1.8558
   19CHL1    O3 1335   3.923   5.621  10.273 -0.2621 -0.0160  0.2175
   19CHL1   H3' 1336   3.877   5.537  10.279 -1.2297  0.3946 -1.1496
   19CHL1    C4 1337   3.830   5.654  10.058 -0.4237  0.0792  0.3150
   19CHL1   H4A 1338   3.757   5.575  10.085 -0.6641 -0.1793 -1.0762
   19CHL1   H4B 1339   3.785   5.750  10.089  0.1323  0.8308 -1.1508
   19CHL1    C5 1340   3.860   5.661   9.914  0.5473  0.6780  0.6588
   19CHL1    C6 1341   3.836   5.766   9.835  0.1119 -0.8474 -0.0079
   19CHL1    H6 1342   3.777   5.851   9.873 -1.7532 -1.4631 -1.4504
   19CHL1    C7 1343   3.854   5.764   9.683 -1.0319  0.0091  0.8544
   19CHL1   H7A 1344   3.771   5.820   9.635  0.8313  1.3108 -0.9170
   19CHL1   H7B 1345   3.946   5.824   9.665 -1.3173 -0.4605 -2.3989
   19CHL1    C8 1346   3.872   5.626   9.618  0.7300 -0.0007 -0.1801
   19CHL1    H8 1347   3.767   5.589   9.616  0.0725  1.4402  3.3256
   19CHL1   C14 1348   3.925   5.632   9.475 -0.4677 -0.2066 -0.3891
   19CHL1   H14 1349   4.030   5.667   9.488 -1.8403  3.1943  2.3018
   19CHL1   C15 1350   3.860   5.729   9.377 -0.4057 -0.2162  0.2066
   19CHL1  H15A 1351   3.751   5.736   9.397 -0.2307  0.8858  0.7953
   19CHL1  H15B 1352   3.911   5.825   9.401  1.2112 -1.6565  2.7616
   19CHL1   C16 1353   3.897   5.679   9.236 -0.1968  0.4177  0.5659
   19CHL1  H16A 1354   3.812   5.649   9.171  0.8247 -0.5793 -0.3121
   19CHL1  H16B 1355   3.964   5.752   9.186  0.2734  0.8173  1.7595
   19CHL1   C17 1356   3.979   5.552   9.263  0.4288 -0.0971 -0.0985
   19CHL1   H17 1357   4.085   5.584   9.277  0.5499 -0.3727 -0.3772
   19CHL1   C13 1358   3.941   5.496   9.402  0.3923 -0.4723  0.3106
   19CHL1   C18 1359   3.808   5.424   9.390 -0.5202 -0.3569  0.5074
   19CHL1  H18A 1360   3.737   5.431   9.475  1.1467  0.7599  1.8441
   19CHL1  H18B 1361   3.750   5.469   9.306 -0.0947  2.3969  1.6514
   19CHL1  H18C 1362   3.822   5.317   9.364  0.6000 -0.3604  1.1032
   19CHL1   C12 1363   4.044   5.420   9.493  0.0516  0.3676  0.1588
   19CHL1  H12A 1364   4.089   5.322   9.466 -4.8737 -1.8302 -0.6348
   19CHL1  H12B 1365   4.128   5.493   9.497 -0.8661  1.3836  1.5619
   19CHL1   C11 1366   3.989   5.410   9.631 -0.7133  0.5499  0.8459
   19CHL1  H11A 1367   3.904   5.340   9.645 -0.3573  0.0284  0.4189
   19CHL1  H11B 1368   4.075   5.368   9.689 -0.6116 -1.2015 -0.5207
   19CHL1    C9 1369   3.963   5.542   9.704 -0.4876 -0.3377 -0.3758
   19CHL1    H9 1370   4.058   5.599   9.705  0.5778 -1.9777 -2.2509
   19CHL1   C10 1371   3.933   5.539   9.863 -0.2965  0.5891 -0.5248
   19CHL1   C19 1372   3.833   5.419   9.881  0.3316 -0.5641 -0.7963
   19CHL1  H19A 1373   3.793   5.409   9.984 -0.3270  1.1223 -0.8611
   19CHL1  H19B 1374   3.741   5.432   9.820  0.2315  2.0661 -0.1674
   19CHL1  H19C 1375   3.884   5.324   9.857  0.6145  0.0088 -2.5447
   19CHL1    C1 1376   4.060   5.505   9.948 -0.3713  0.0314  0.1705
   19CHL1   H1A 1377   4.107   5.409   9.917  0.7015  1.0335 -1.4011
   19CHL1   H1B 1378   4.127   5.591   9.925 -0.3680 -0.7220 -2.7630
   19CHL1    C2 1379   4.030   5.500  10.100 -0.7030 -0.0558 -0.2730
   19CHL1   H2A 1380   4.129   5.494  10.149 -0.9536  2.7284  0.7054
   19CHL1   H2B 1381   3.973   5.410  10.130 -1.8344  1.4163  2.1738
   19CHL1   C20 1382   3.978   5.458   9.141 -0.0943 -0.2675 -0.0748
   19CHL1   H20 1383   3.872   5.425   9.141  0.0623 -0.9223  2.7015
   19CHL1   C21 1384   4.071   5.341   9.174  0.0354 -0.3788 -0.3367
   19CHL1  H21A 1385   4.023   5.284   9.257  0.8616  0.2094  0.5390
   19CHL1  H21B 1386   4.172   5.375   9.203 -0.4396  2.3700 -1.7830
   19CHL1  H21C 1387   4.078   5.270   9.089 -2.2551 -0.4200 -0.5473
   19CHL1   C22 1388   3.998   5.515   8.996  0.5293 -0.5612 -0.3752
   19CHL1  H22A 1389   3.942   5.611   8.991 -0.4355 -1.1415 -0.6676
   19CHL1  H22B 1390   4.106   5.538   8.986 -0.1627  3.0476 -0.4312
   19CHL1   C23 1391   3.963   5.419   8.882 -0.4149 -0.3536 -0.5553
   19CHL1  H23A 1392   4.034   5.335   8.863 -0.9609 -1.1356  0.8291
   19CHL1  H23B 1393   3.867   5.367   8.902 -1.3914  0.8343 -1.9615
   19CHL1   C24 1394   3.948   5.499   8.745  0.4539  0.3332 -0.2807
   19CHL1  H24A 1395   3.886   5.591   8.757 -0.0595  0.0155 -0.4926
   19CHL1  H24B 1396   4.050   5.543   8.743 -0.1816  1.8848  0.1980
   19CHL1   C25 1397   3.914   5.418   8.616 -0.7280  0.1163 -0.1630
   19CHL1   H25 1398   3.972   5.324   8.613 -0.7565  0.1242 -0.9349
   19CHL1   C26 1399   3.764   5.386   8.607  0.1538  0.1476 -0.1702
   19CHL1  H26A 1400   3.729   5.325   8.522 -0.1693  1.0038 -0.6533
   19CHL1  H26B 1401   3.743   5.333   8.703  0.0296  0.7530  0.1412
   19CHL1  H26C 1402   3.713   5.485   8.608 -0.6774 -0.2790 -0.3315
   19CHL1   C27 1403   3.969   5.483   8.486 -0.0802 -0.1576 -0.0621
   19CHL1  H27A 1404   3.957   5.410   8.403  1.7395 -1.0230  0.4153
   19CHL1  H27B 1405   3.918   5.577   8.456  0.0604  0.4000  1.4289
   19CHL1  H27C 1406   4.075   5.512   8.496 -0.9634  2.1882  3.1815
   20CHL1    C3 1407   6.029   6.324  10.276  0.3805 -0.8430 -0.4233
   20CHL1    H3 1408   5.985   6.426  10.275 -1.4275 -1.5956 -3.6679
   20CHL1    O3 1409   6.086   6.288  10.403 -0.1244  0.2530  0.1281
   20CHL1   H3' 1410   6.166   6.339  10.420 -0.3962 -0.1755  2.9247
   20CHL1    C4 1411   5.924   6.224  10.235 -0.3034  0.0395  0.8109
   20CHL1   H4A 1412   5.967   6.123  10.219  0.9691  0.8864 -1.3877
   20CHL1   H4B 1413   5.849   6.216  10.316  2.2828  0.1351  3.2922
   20CHL1    C5 1414   5.870   6.268  10.097 -0.6889  0.2344 -0.2761
   20CHL1    C6 1415   5.743   6.297  10.089  0.1222 -0.3074 -0.3434
   20CHL1    H6 1416   5.682   6.283  10.180  0.6445  0.6504  0.1594
   20CHL1    C7 1417   5.672   6.313   9.960 -0.4578 -0.4510 -0.7633
   20CHL1   H7A 1418   5.576   6.256   9.964 -0.3908 -0.5581 -0.6758
   20CHL1   H7B 1419   5.635   6.414   9.932  0.0518 -0.1652 -0.4078
   20CHL1    C8 1420   5.760   6.272   9.838  0.1201  0.4405  0.3905
   20CHL1    H8 1421   5.764   6.161   9.843  1.0784  0.5115  1.4593
   20CHL1   C14 1422   5.695   6.318   9.712 -0.3095  0.5780 -0.1459
   20CHL1   H14 1423   5.693   6.429   9.708  2.7375  0.6405 -1.4251
   20CHL1   C15 1424   5.556   6.263   9.680  0.2325  0.4128  0.4360
   20CHL1  H15A 1425   5.553   6.153   9.693  0.7210  0.2277 -0.8526
   20CHL1  H15B 1426   5.479   6.299   9.751 -1.4278 -0.2280 -1.0230
   20CHL1   C16 1427   5.542   6.289   9.531  0.2420 -0.6764 -0.3013
   20CHL1  H16A 1428   5.479   6.210   9.485 -1.2557  0.9140 -1.0625
   20CHL1  H16B 1429   5.484   6.384   9.528  1.0111 -0.2595 -1.9992
   20CHL1   C17 1430   5.690   6.319   9.473  0.3079 -0.4360 -0.2115
   20CHL1   H17 1431   5.697   6.428   9.454  0.0779 -0.5940 -1.2275
   20CHL1   C13 1432   5.782   6.281   9.592  0.3021  0.0920  0.3271
   20CHL1   C18 1433   5.810   6.129   9.590  0.0186 -0.2522 -0.1435
   20CHL1  H18A 1434   5.711   6.079   9.582 -0.5711  0.9913 -0.8756
   20CHL1  H18B 1435   5.873   6.088   9.508  0.4108 -2.4838  1.2205
   20CHL1  H18C 1436   5.867   6.098   9.679 -2.9662 -1.8520  1.2944
   20CHL1   C12 1437   5.913   6.366   9.607  0.3696  0.2521 -0.5548
   20CHL1  H12A 1438   5.981   6.352   9.521  2.3900  1.0690  0.8764
   20CHL1  H12B 1439   5.890   6.475   9.602 -0.0439  0.2036  0.2320
   20CHL1   C11 1440   5.989   6.315   9.728 -0.8541  0.1428  0.1609
   20CHL1  H11A 1441   6.028   6.212   9.713 -1.8797 -0.2450  0.1220
   20CHL1  H11B 1442   6.076   6.382   9.742 -0.4613 -0.4510  0.6021
   20CHL1    C9 1443   5.901   6.323   9.856 -0.4627 -0.4056 -0.4387
   20CHL1    H9 1444   5.891   6.432   9.875 -1.9460 -0.5177 -0.5075
   20CHL1   C10 1445   5.980   6.269   9.980  0.1746  0.4014  0.7406
   20CHL1   C19 1446   6.049   6.131   9.949 -0.0582 -0.5778 -0.0831
   20CHL1  H19A 1447   6.091   6.094  10.045 -0.5209 -0.7375  0.0588
   20CHL1  H19B 1448   5.978   6.052   9.915 -1.6208  0.4926  0.6121
   20CHL1  H19C 1449   6.125   6.148   9.870 -0.3239  0.4579 -0.1204
   20CHL1    C1 1450   6.086   6.367  10.032  0.1160  0.1525  0.4175
   20CHL1   H1A 1451   6.169   6.382   9.959  1.1105  1.8793  1.8539
   20CHL1   H1B 1452   6.045   6.470  10.034  1.7524  0.8449 -0.7111
   20CHL1    C2 1453   6.138   6.327  10.167  0.2664  0.3396 -0.4548
   20CHL1   H2A 1454   6.208   6.399  10.215 -2.2148  1.3211  1.8304
   20CHL1   H2B 1455   6.195   6.232  10.166  0.2585  0.2334  3.1472
   20CHL1   C20 1456   5.713   6.260   9.335 -0.0066 -0.8398 -0.4007
   20CHL1   H20 1457   5.709   6.149   9.345  0.0374 -0.5955  3.3895
   20CHL1   C21 1458   5.853   6.316   9.291 -0.4296  0.3510  0.0966
   20CHL1  H21A 1459   5.864   6.279   9.187  1.8887  0.3019  0.3291
   20CHL1  H21B 1460   5.936   6.269   9.347 -0.4765  0.4464  0.2481
   20CHL1  H21C 1461   5.860   6.427   9.292 -0.0698  0.3287  0.2083
   20CHL1   C22 1462   5.606   6.312   9.237  1.1968 -0.0441 -0.0648
   20CHL1  H22A 1463   5.510   6.269   9.274  0.5193  1.6116  0.1376
   20CHL1  H22B 1464   5.600   6.422   9.254  0.8562 -0.0035 -0.4463
   20CHL1   C23 1465   5.622   6.270   9.094 -0.1688 -0.0830 -0.0577
   20CHL1  H23A 1466   5.528   6.308   9.047 -0.0045 -1.7075 -1.7843
   20CHL1  H23B 1467   5.709   6.320   9.047 -1.2032 -0.3030 -2.3028
   20CHL1   C24 1468   5.635   6.119   9.080 -0.2773  0.7522  0.1367
   20CHL1  H24A 1469   5.728   6.080   9.127 -0.8675  2.2109  2.6199
   20CHL1  H24B 1470   5.551   6.076   9.139  0.0528  0.1091  0.1392
   20CHL1   C25 1471   5.629   6.063   8.930 -0.4392 -0.4997 -0.3661
   20CHL1   H25 1472   5.547   6.113   8.874  0.1699 -0.6922 -1.4348
   20CHL1   C26 1473   5.760   6.088   8.850  0.2653 -0.1100 -0.1603
   20CHL1  H26A 1474   5.777   6.196   8.832  0.4551 -0.4689 -2.3315
   20CHL1  H26B 1475   5.846   6.048   8.908  1.5869 -0.9732 -2.6293
   20CHL1  H26C 1476   5.748   6.040   8.750 -2.0112 -0.0721  0.0822
   20CHL1   C27 1477   5.585   5.919   8.931  0.3112  0.0150 -0.3932
   20CHL1  H27A 1478   5.495   5.895   8.991  0.6029 -1.3762 -0.5041
   20CHL1  H27B 1479   5.578   5.875   8.829  0.9493 -1.8878  0.3772
   20CHL1  H27C 1480   5.673   5.867   8.975  0.5010  1.2906  0.7689
   21CHL1    C3 1481   5.333   2.749  10.412 -0.4070  0.0997  0.6115
   21CHL1    H3 1482   5.370   2.841  10.462 -1.4807  0.1690  1.3095
   21CHL1    O3 1483   5.257   2.680  10.504 -0.4985 -0.5617  0.1080
   21CHL1   H3' 1484   5.172   2.722  10.519 -0.3096  0.6111 -1.8491
   21CHL1    C4 1485   5.238   2.791  10.308 -0.0024 -0.4953  0.6558
   21CHL1   H4A 1486   5.162   2.715  10.280 -0.6488  1.1420 -2.1799
   21CHL1   H4B 1487   5.171   2.867  10.354  1.7573 -0.1511  2.7809
   21CHL1    C5 1488   5.294   2.825  10.171  0.2292  0.2817 -1.0505
   21CHL1    C6 1489   5.267   2.934  10.097  0.4434 -0.1666 -0.1113
   21CHL1    H6 1490   5.197   3.003  10.146  1.1493  1.1497 -0.9455
   21CHL1    C7 1491   5.315   2.968   9.966  0.5980 -0.3661 -0.4803
   21CHL1   H7A 1492   5.233   3.010   9.904 -0.4976  0.4111  1.4764
   21CHL1   H7B 1493   5.393   3.046   9.987  2.1746 -1.6911 -1.2655
   21CHL1    C8 1494   5.370   2.845   9.897  0.2961  0.3954 -0.4297
   21CHL1    H8 1495   5.279   2.785   9.876  0.5230  0.4804 -1.7137
   21CHL1   C14 1496   5.441   2.889   9.772  0.3153  0.1575 -0.0937
   21CHL1   H14 1497   5.533   2.941   9.806  0.6571 -1.0520  0.8690
   21CHL1   C15 1498   5.364   2.983   9.678 -0.4241  0.2379  0.1797
   21CHL1  H15A 1499   5.260   2.942   9.680 -0.0957 -0.5636  1.1780
   21CHL1  H15B 1500   5.346   3.086   9.715  0.4774 -0.1494  1.7349
   21CHL1   C16 1501   5.425   2.971   9.543 -0.0299  0.6821 -0.1523
   21CHL1  H16A 1502   5.351   2.959   9.461 -0.6849 -2.0153  0.7835
   21CHL1  H16B 1503   5.490   3.057   9.517  3.2234 -1.2597  1.2832
   21CHL1   C17 1504   5.528   2.850   9.555  0.1689 -0.3583  0.1148
   21CHL1   H17 1505   5.625   2.889   9.592 -0.1408 -1.2387  1.9324
   21CHL1   C13 1506   5.483   2.772   9.681  0.0226 -0.5301  0.1017
   21CHL1   C18 1507   5.353   2.690   9.646 -0.1492  0.7270 -0.0976
   21CHL1  H18A 1508   5.281   2.758   9.595 -0.7641  2.0699  2.4903
   21CHL1  H18B 1509   5.361   2.607   9.572 -3.8386 -1.6710  1.9869
   21CHL1  H18C 1510   5.304   2.639   9.732  0.8267 -1.6529 -0.9040
   21CHL1   C12 1511   5.592   2.700   9.763  0.0011  0.3182  0.3892
   21CHL1  H12A 1512   5.638   2.613   9.711 -3.6368 -0.3737 -1.8921
   21CHL1  H12B 1513   5.672   2.775   9.783 -0.8195  1.0172  1.0965
   21CHL1   C11 1514   5.554   2.654   9.903  0.6533 -0.2057  0.4125
   21CHL1  H11A 1515   5.493   2.562   9.889  1.8559 -0.8402 -0.8152
   21CHL1  H11B 1516   5.635   2.619   9.970  2.9125  0.0415 -2.1191
   21CHL1    C9 1517   5.470   2.764   9.982  0.3418  0.3188 -0.8305
   21CHL1    H9 1518   5.547   2.841  10.005  0.3593  0.6487 -1.9844
   21CHL1   C10 1519   5.405   2.724  10.119  0.1146  0.8680  0.2240
   21CHL1   C19 1520   5.328   2.595  10.091 -0.7390  0.5517 -0.1535
   21CHL1  H19A 1521   5.391   2.507  10.065 -1.4894  0.4702 -1.7439
   21CHL1  H19B 1522   5.262   2.574  10.177 -0.5358  0.3131 -0.0544
   21CHL1  H19C 1523   5.265   2.605  10.000  3.3977  2.8659 -2.9544
   21CHL1    C1 1524   5.512   2.702  10.228 -0.7512 -0.7796 -0.1860
   21CHL1   H1A 1525   5.586   2.623  10.203  0.4376  0.0935  0.5280
   21CHL1   H1B 1526   5.561   2.799  10.249  1.1409 -1.5000 -1.1308
   21CHL1    C2 1527   5.442   2.660  10.359 -1.0749 -0.3952  0.3166
   21CHL1   H2A 1528   5.518   2.645  10.438 -2.0802  0.1438  1.4186
   21CHL1   H2B 1529   5.405   2.555  10.354 -1.3303 -0.3100  0.4043
   21CHL1   C20 1530   5.574   2.776   9.423  0.4405 -0.1974 -0.1866
   21CHL1   H20 1531   5.491   2.717   9.377  1.2842  0.0263 -2.0532
   21CHL1   C21 1532   5.685   2.683   9.451  0.0545  0.1084  0.1460
   21CHL1  H21A 1533   5.765   2.731   9.511  1.2138 -0.8672 -0.5895
   21CHL1  H21B 1534   5.728   2.657   9.352  2.1080  0.3703  0.9425
   21CHL1  H21C 1535   5.644   2.589   9.493  1.4981 -0.3907  0.4400
   21CHL1   C22 1536   5.612   2.877   9.312 -0.1356 -0.4014  0.4530
   21CHL1  H22A 1537   5.549   2.968   9.315  1.6346  0.8281  2.0702
   21CHL1  H22B 1538   5.713   2.914   9.341 -0.2453  0.7186 -0.5410
   21CHL1   C23 1539   5.603   2.825   9.174 -0.1900 -0.4749 -0.3851
   21CHL1  H23A 1540   5.641   2.908   9.111 -1.5985 -2.5781 -4.1495
   21CHL1  H23B 1541   5.657   2.728   9.161  1.1765  0.4542 -1.8232
   21CHL1   C24 1542   5.456   2.800   9.135 -0.5545 -0.0642 -0.0926
   21CHL1  H24A 1543   5.416   2.707   9.181 -2.7136  0.5703 -0.6169
   21CHL1  H24B 1544   5.402   2.883   9.185 -0.7857  0.0867 -0.5932
   21CHL1   C25 1545   5.428   2.794   8.983  1.1501 -0.2753 -0.2598
   21CHL1   H25 1546   5.322   2.761   8.978  1.2631 -0.9897  1.5347
   21CHL1   C26 1547   5.457   2.922   8.910 -0.0832  0.4971  0.0485
   21CHL1  H26A 1548   5.412   3.001   8.974 -1.4343 -0.9133  0.8591
   21CHL1  H26B 1549   5.568   2.931   8.918 -0.3795  3.3229  1.8686
   21CHL1  H26C 1550   5.430   2.934   8.803  1.3737  0.3641 -0.3520
   21CHL1   C27 1551   5.508   2.679   8.923 -0.1715  0.3652  0.7072
   21CHL1  H27A 1552   5.499   2.587   8.985  1.1103  0.7622  1.5066
   21CHL1  H27B 1553   5.492   2.660   8.815  2.6711 -1.5258  0.5335
   21CHL1  H27C 1554   5.617   2.703   8.928 -0.1225  0.8302 -1.7930
   22CHL1    C3 1555   5.112   3.781  10.073  0.2300 -0.3388 -0.0145
   22CHL1    H3 1556   5.153   3.678  10.060 -0.8799 -1.1113  2.2574
   22CHL1    O3 1557   5.136   3.816  10.211  0.3443 -0.4974 -0.0614
   22CHL1   H3' 1558   5.205   3.883  10.215  0.9411 -1.1475  0.6373
   22CHL1    C4 1559   5.179   3.884   9.976  0.7816 -0.2774 -0.9635
   22CHL1   H4A 1560   5.148   3.987  10.004  2.1805 -0.5993  1.8914
   22CHL1   H4B 1561   5.284   3.873  10.011 -0.0734 -0.9460  1.5049
   22CHL1    C5 1562   5.165   3.867   9.827  1.1459  0.3452  0.6098
   22CHL1    C6 1563   5.273   3.864   9.745  0.0894  0.1611  0.2218
   22CHL1    H6 1564   5.376   3.873   9.784 -0.2231 -1.3260  1.3999
   22CHL1    C7 1565   5.258   3.835   9.596 -0.1723  0.7903 -0.3769
   22CHL1   H7A 1566   5.312   3.911   9.536  0.7569  0.5625  0.1453
   22CHL1   H7B 1567   5.312   3.741   9.572 -0.3813 -0.0175  2.1336
   22CHL1    C8 1568   5.108   3.824   9.551  0.6900 -0.0829 -0.3992
   22CHL1    H8 1569   5.069   3.927   9.532  0.7027 -0.3316 -1.8357
   22CHL1   C14 1570   5.105   3.764   9.410  0.3803 -0.6298 -0.4373
   22CHL1   H14 1571   5.134   3.659   9.432  0.5945 -0.4381  0.1916
   22CHL1   C15 1572   5.209   3.806   9.299 -0.5568  0.0560 -0.5150
   22CHL1  H15A 1573   5.220   3.917   9.294 -0.3670  0.1303  1.3854
   22CHL1  H15B 1574   5.314   3.778   9.319 -0.4783  0.3512 -0.5105
   22CHL1   C16 1575   5.147   3.741   9.170 -0.8386 -0.3186 -0.3238
   22CHL1  H16A 1576   5.124   3.817   9.093  0.0787 -1.5479 -1.8419
   22CHL1  H16B 1577   5.211   3.664   9.122 -0.8315  2.4683 -5.0326
   22CHL1   C17 1578   5.010   3.679   9.212  0.3380  0.1581 -0.1696
   22CHL1   H17 1579   5.033   3.577   9.247 -1.8794  0.0525  1.0696
   22CHL1   C13 1580   4.967   3.749   9.343 -1.8315  0.6226 -0.1220
   22CHL1   C18 1581   4.907   3.885   9.306 -0.4801 -0.3223  0.3584
   22CHL1  H18A 1582   4.907   3.961   9.386 -0.8816  1.2836 -1.1375
   22CHL1  H18B 1583   4.965   3.918   9.217 -1.8959 -4.6335 -2.3350
   22CHL1  H18C 1584   4.802   3.868   9.273 -1.3643  1.4810  2.1267
   22CHL1   C12 1585   4.877   3.671   9.444  0.5478  0.1616 -0.6907
   22CHL1  H12A 1586   4.774   3.660   9.404 -0.2803  0.5830  1.2853
   22CHL1  H12B 1587   4.923   3.570   9.452  0.8590  0.3082 -0.6414
   22CHL1   C11 1588   4.877   3.733   9.584 -0.2233  0.4833 -0.2528
   22CHL1  H11A 1589   4.818   3.827   9.573  1.5200  1.6731  0.4327
   22CHL1  H11B 1590   4.825   3.661   9.652 -0.8778 -0.7276 -1.9877
   22CHL1    C9 1591   5.019   3.758   9.645 -0.3434  0.5383  0.2174
   22CHL1    H9 1592   5.072   3.660   9.646  2.3541  1.9514  0.4034
   22CHL1   C10 1593   5.022   3.825   9.781 -0.6441 -0.0175 -0.2166
   22CHL1   C19 1594   4.951   3.962   9.777 -0.4534  0.5540  0.0036
   22CHL1  H19A 1595   4.944   4.018   9.873 -0.1589 -1.4248  1.1885
   22CHL1  H19B 1596   4.995   4.032   9.703 -1.9052 -1.0323 -2.4089
   22CHL1  H19C 1597   4.847   3.942   9.742 -0.7816  1.2836  0.5203
   22CHL1    C1 1598   4.958   3.722   9.889 -0.5717 -1.0336 -0.1541
   22CHL1   H1A 1599   4.851   3.705   9.864 -0.8031  0.9166 -0.5162
   22CHL1   H1B 1600   5.013   3.626   9.879  1.0293 -0.1099 -0.3486
   22CHL1    C2 1601   4.968   3.784  10.030  0.4361 -0.1937  0.1262
   22CHL1   H2A 1602   4.906   3.712  10.087 -1.0284  0.8662 -0.1068
   22CHL1   H2B 1603   4.920   3.883  10.034 -2.8029 -1.7990  2.8069
   22CHL1   C20 1604   4.912   3.666   9.101  0.6961  0.1356  0.0043
   22CHL1   H20 1605   4.861   3.761   9.073 -1.5438 -1.2258 -0.7019
   22CHL1   C21 1606   4.796   3.576   9.156 -0.5815  0.2000 -0.3939
   22CHL1  H21A 1607   4.742   3.532   9.069 -0.1484 -1.6117  0.2281
   22CHL1  H21B 1608   4.727   3.646   9.209  0.2643  0.3347  0.5371
   22CHL1  H21C 1609   4.836   3.492   9.217 -0.1540  0.9439  0.3756
   22CHL1   C22 1610   4.974   3.600   8.977  0.4300  0.0159 -0.5496
   22CHL1  H22A 1611   5.084   3.609   8.966  0.7459 -1.9643  0.9007
   22CHL1  H22B 1612   4.936   3.498   8.957  1.8083 -0.7986  0.8899
   22CHL1   C23 1613   4.907   3.664   8.847 -0.0897 -0.7296  0.3669
   22CHL1  H23A 1614   4.805   3.624   8.831 -0.6443  0.0306  1.9237
   22CHL1  H23B 1615   4.891   3.774   8.853  0.1636 -0.6710 -0.0089
   22CHL1   C24 1616   4.993   3.643   8.720 -0.2654 -0.9169  0.8502
   22CHL1  H24A 1617   4.944   3.695   8.635 -1.2843 -0.5708  1.6464
   22CHL1  H24B 1618   5.091   3.693   8.734 -0.8247  0.4267  0.1377
   22CHL1   C25 1619   5.016   3.495   8.684  0.2943  0.0953  0.4331
   22CHL1   H25 1620   5.054   3.447   8.777 -0.5817 -0.1560  0.6731
   22CHL1   C26 1621   4.888   3.424   8.632  0.3537  0.0899 -0.6994
   22CHL1  H26A 1622   4.859   3.456   8.530  1.5437 -1.3413 -1.5073
   22CHL1  H26B 1623   4.890   3.313   8.623  0.1001 -0.1646  1.9773
   22CHL1  H26C 1624   4.804   3.446   8.701  1.3672 -1.0139  0.9327
   22CHL1   C27 1625   5.131   3.495   8.587  0.1053 -0.1317  0.2429
   22CHL1  H27A 1626   5.223   3.531   8.638 -0.0208  0.2463  0.2029
   22CHL1  H27B 1627   5.148   3.393   8.546  0.8240  0.4698 -0.9829
   22CHL1  H27C 1628   5.101   3.560   8.502  1.3594  1.3002  0.8600
   23CHL1    C3 1629   1.054   5.235  10.179 -0.1634  0.1112  0.2797
   23CHL1    H3 1630   0.958   5.184  10.159 -0.6975  1.1257  0.2349
   23CHL1    O3 1631   1.086   5.217  10.315  0.0992  0.0951  0.2751
   23CHL1   H3' 1632   1.176   5.253  10.314  1.2800 -2.6894 -3.8039
   23CHL1    C4 1633   1.178   5.179  10.102 -0.2485  0.1676 -0.5679
   23CHL1   H4A 1634   1.278   5.217  10.133  0.2474 -1.7260  0.2254
   23CHL1   H4B 1635   1.188   5.071  10.127  2.4332  0.3795 -0.6187
   23CHL1    C5 1636   1.149   5.206   9.958 -0.3631 -0.1697  0.0831
   23CHL1    C6 1637   1.149   5.097   9.874 -1.2831  1.0032  0.4386
   23CHL1    H6 1638   1.164   4.991   9.901 -1.4324  0.9398  0.2804
   23CHL1    C7 1639   1.129   5.125   9.725  0.5379  0.5191 -0.2167
   23CHL1   H7A 1640   1.189   5.061   9.658 -0.3028 -0.0450 -0.4324
   23CHL1   H7B 1641   1.026   5.092   9.699 -0.0389  2.2917 -0.2727
   23CHL1    C8 1642   1.149   5.268   9.677  0.4942  0.3609 -0.3889
   23CHL1    H8 1643   1.259   5.284   9.678  0.4516  0.7605  2.5353
   23CHL1   C14 1644   1.104   5.290   9.531  0.5258 -0.0993  0.0711
   23CHL1   H14 1645   0.995   5.269   9.538  0.8491 -1.6078  0.8780
   23CHL1   C15 1646   1.141   5.196   9.417 -0.2892 -0.1798 -0.0344
   23CHL1  H15A 1647   1.249   5.178   9.433  0.2456  1.3595 -1.7388
   23CHL1  H15B 1648   1.091   5.097   9.428 -2.5338  0.6484 -2.2437
   23CHL1   C16 1649   1.116   5.271   9.284 -0.3174 -0.0366  0.0177
   23CHL1  H16A 1650   1.216   5.283   9.235  0.0559 -0.2008  0.7393
   23CHL1  H16B 1651   1.048   5.227   9.208  0.4584  0.0421 -0.7457
   23CHL1   C17 1652   1.069   5.411   9.327  0.8362 -0.4538 -0.7023
   23CHL1   H17 1653   0.958   5.408   9.327  0.7122  2.1411 -2.1716
   23CHL1   C13 1654   1.107   5.433   9.474  0.6143 -0.3454 -0.0703
   23CHL1   C18 1655   1.258   5.478   9.479  0.0681 -0.0646 -0.1484
   23CHL1  H18A 1656   1.278   5.580   9.439  1.7729 -1.2063 -2.3051
   23CHL1  H18B 1657   1.296   5.479   9.583 -1.4390 -0.4037  0.4163
   23CHL1  H18C 1658   1.317   5.401   9.426 -1.4290 -0.3557 -1.4321
   23CHL1   C12 1659   1.016   5.516   9.564 -0.7744  0.1776  0.2935
   23CHL1  H12A 1660   1.021   5.612   9.508  0.0291 -0.9176 -1.5313
   23CHL1  H12B 1661   0.910   5.485   9.554 -0.5867 -0.0104 -1.2042
   23CHL1   C11 1662   1.058   5.507   9.710 -0.2374 -0.3472  0.2406
   23CHL1  H11A 1663   1.155   5.560   9.719 -0.6137  0.2316  0.9000
   23CHL1  H11B 1664   0.985   5.558   9.776 -0.9451 -2.1627  0.8840
   23CHL1    C9 1665   1.077   5.362   9.769 -0.2185 -0.3825  0.3823
   23CHL1    H9 1666   0.972   5.326   9.780 -0.6154  1.0013  1.3216
   23CHL1   C10 1667   1.131   5.348   9.915 -0.0570 -0.5928  0.3207
   23CHL1   C19 1668   1.262   5.429   9.920  0.5156  0.0536 -0.2231
   23CHL1  H19A 1669   1.347   5.388   9.862 -0.2116 -0.3231 -1.0356
   23CHL1  H19B 1670   1.258   5.531   9.874  0.2205  0.7036  1.2192
   23CHL1  H19C 1671   1.308   5.429  10.021 -0.0026 -2.4016  0.0372
   23CHL1    C1 1672   1.021   5.412  10.008 -0.3663  0.0437  0.4047
   23CHL1   H1A 1673   1.014   5.523   9.998  3.4523  0.1978 -1.4727
   23CHL1   H1B 1674   0.920   5.376   9.979  0.4696 -2.0527 -0.0178
   23CHL1    C2 1675   1.037   5.380  10.159  0.2620  0.0217  0.3905
   23CHL1   H2A 1676   0.946   5.414  10.213 -1.0643  0.3382 -1.9372
   23CHL1   H2B 1677   1.123   5.440  10.194  1.1781 -0.4737 -0.9481
   23CHL1   C20 1678   1.111   5.515   9.218  0.2419 -0.1471  0.0693
   23CHL1   H20 1679   1.221   5.525   9.222  0.1468 -0.0272  4.4375
   23CHL1   C21 1680   1.055   5.659   9.246 -0.1431 -0.6405  0.2953
   23CHL1  H21A 1681   1.116   5.708   9.325 -2.1944  1.7199  0.4808
   23CHL1  H21B 1682   0.951   5.648   9.285  0.1011 -1.3025  0.7714
   23CHL1  H21C 1683   1.058   5.715   9.151 -0.1307 -0.1054  0.6074
   23CHL1   C22 1684   1.058   5.473   9.081  0.3233  0.7011  0.0002
   23CHL1  H22A 1685   1.082   5.366   9.069  0.5091  0.9630 -2.2646
   23CHL1  H22B 1686   0.948   5.489   9.078  0.2203 -0.2320 -2.7170
   23CHL1   C23 1687   1.126   5.554   8.969  0.2278 -0.6504 -0.7950
   23CHL1  H23A 1688   1.092   5.660   8.975 -0.1440 -0.7504 -1.1235
   23CHL1  H23B 1689   1.237   5.560   8.979  0.2661  1.0365 -2.0002
   23CHL1   C24 1690   1.065   5.521   8.832 -0.2173  0.1596 -0.2404
   23CHL1  H24A 1691   0.958   5.546   8.825  0.0280  0.5903 -3.2110
   23CHL1  H24B 1692   1.108   5.590   8.756  0.1425 -0.8533 -0.9640
   23CHL1   C25 1693   1.082   5.374   8.787 -0.4859  0.5240  0.2110
   23CHL1   H25 1694   1.014   5.306   8.842 -0.7717 -0.7279 -1.6171
   23CHL1   C26 1695   1.036   5.345   8.642 -0.0036  0.5201  0.1408
   23CHL1  H26A 1696   0.929   5.369   8.622  0.3683  1.9488 -0.1629
   23CHL1  H26B 1697   1.101   5.387   8.563 -1.6016 -0.8312 -1.9558
   23CHL1  H26C 1698   1.039   5.234   8.629  1.3328  0.7171 -1.2905
   23CHL1   C27 1699   1.230   5.318   8.797 -0.1071  0.2129  0.2951
   23CHL1  H27A 1700   1.303   5.375   8.736 -0.7052 -0.7341 -1.3455
   23CHL1  H27B 1701   1.268   5.322   8.901  2.2203 -0.1564 -0.5068
   23CHL1  H27C 1702   1.226   5.210   8.772 -0.9619  0.3031  0.0179
   24CHL1    C3 1703   3.238   6.119  10.143 -0.4139 -1.0266  0.7128
   24CHL1    H3 1704   3.283   6.182  10.063 -0.6648  1.9249  2.8033
   24CHL1    O3 1705   3.279   6.181  10.264  0.1388  0.5850  0.5979
   24CHL1   H3' 1706   3.200   6.160  10.314  0.5400 -5.3149 -0.9018
   24CHL1    C4 1707   3.082   6.126  10.121  0.4786  0.1615  0.8468
   24CHL1   H4A 1708   3.040   6.057  10.197  2.5801 -0.6301  1.3224
   24CHL1   H4B 1709   3.057   6.232  10.143 -0.8171  0.5303 -2.2621
   24CHL1    C5 1710   3.042   6.068   9.991 -0.2817  0.6253  0.3639
   24CHL1    C6 1711   3.020   6.160   9.894 -0.7977  0.8311  0.7106
   24CHL1    H6 1712   3.029   6.268   9.914  0.3792  1.2173 -1.6246
   24CHL1    C7 1713   2.992   6.125   9.747 -0.2248  0.0160 -0.7161
   24CHL1   H7A 1714   2.902   6.175   9.705 -0.7066 -0.0151  0.2520
   24CHL1   H7B 1715   3.060   6.166   9.669  0.1957  0.1387 -0.2873
   24CHL1    C8 1716   2.969   5.971   9.723 -0.2547  0.0143  0.6953
   24CHL1    H8 1717   2.865   5.947   9.753  0.7557 -2.1992  2.6294
   24CHL1   C14 1718   2.992   5.939   9.580 -0.8378  0.0242  0.1764
   24CHL1   H14 1719   3.097   5.968   9.560 -1.0350  0.0142 -0.9190
   24CHL1   C15 1720   2.905   6.018   9.472  0.0249  0.4040  1.1486
   24CHL1  H15A 1721   2.802   6.013   9.512 -0.8116  0.2150 -0.9288
   24CHL1  H15B 1722   2.940   6.123   9.460 -3.1063  1.2906 -1.0142
   24CHL1   C16 1723   2.927   5.935   9.342 -0.4799  0.3589  0.1533
   24CHL1  H16A 1724   2.827   5.914   9.298  0.3451 -0.3017 -1.4493
   24CHL1  H16B 1725   2.984   5.986   9.261 -0.3389 -0.9671 -0.5907
   24CHL1   C17 1726   2.987   5.805   9.386 -1.0722  0.3244 -1.0454
   24CHL1   H17 1727   3.096   5.822   9.370 -0.7809  0.4026  0.9585
   24CHL1   C13 1728   2.965   5.788   9.539  1.0803 -0.0073  0.0156
   24CHL1   C18 1729   2.816   5.755   9.580 -0.7137  0.2747  0.7722
   24CHL1  H18A 1730   2.740   5.830   9.551 -1.7792 -1.4089 -0.8909
   24CHL1  H18B 1731   2.813   5.650   9.543  4.0389  0.2052  0.1826
   24CHL1  H18C 1732   2.798   5.755   9.690 -0.8654 -1.2366  0.7595
   24CHL1   C12 1733   3.069   5.708   9.621 -0.3398  0.3181  0.4687
   24CHL1  H12A 1734   3.055   5.598   9.616 -1.2778  0.4023  1.1492
   24CHL1  H12B 1735   3.173   5.735   9.595  0.3888  0.9091  3.8108
   24CHL1   C11 1736   3.054   5.738   9.774 -0.1510  0.1588  0.5206
   24CHL1  H11A 1737   2.963   5.688   9.811  0.5709 -1.1854  0.4948
   24CHL1  H11B 1738   3.136   5.679   9.820 -1.8782 -1.8279  1.1283
   24CHL1    C9 1739   3.062   5.890   9.818 -0.1866  0.9683  0.2198
   24CHL1    H9 1740   3.162   5.926   9.785 -0.5160  0.3260 -1.5317
   24CHL1   C10 1741   3.067   5.924   9.971 -0.4009 -0.0166 -0.3462
   24CHL1   C19 1742   2.962   5.838  10.040 -0.1746 -0.1009 -0.0524
   24CHL1  H19A 1743   3.000   5.735  10.054 -2.8822 -0.8231  2.5851
   24CHL1  H19B 1744   2.942   5.864  10.146  0.0287  1.9971 -0.5158
   24CHL1  H19C 1745   2.865   5.829   9.986 -0.3367  2.0523 -0.1690
   24CHL1    C1 1746   3.216   5.890  10.032 -0.2957  0.8473  0.6501
   24CHL1   H1A 1747   3.215   5.781  10.054 -3.3949  0.9999  1.4496
   24CHL1   H1B 1748   3.287   5.909   9.949  0.0094 -0.8338  0.5066
   24CHL1    C2 1749   3.284   5.967  10.146 -0.2293 -0.1965 -0.0653
   24CHL1   H2A 1750   3.393   5.947  10.157 -0.2973 -1.2953 -1.1908
   24CHL1   H2B 1751   3.240   5.935  10.242  1.1891 -0.3748  0.5412
   24CHL1   C20 1752   2.941   5.697   9.289 -0.4703 -0.3544  0.7154
   24CHL1   H20 1753   2.832   5.686   9.305 -0.5465 -2.1269 -0.8251
   24CHL1   C21 1754   3.008   5.563   9.327 -1.2581  0.8941 -0.8363
   24CHL1  H21A 1755   3.117   5.587   9.327 -0.9058 -0.5652  1.2977
   24CHL1  H21B 1756   2.990   5.472   9.266  0.7286 -1.6599  2.1791
   24CHL1  H21C 1757   2.979   5.535   9.431  1.0820  2.1281  0.1930
   24CHL1   C22 1758   2.983   5.729   9.140  0.7036 -0.0270 -0.9249
   24CHL1  H22A 1759   2.956   5.831   9.106 -0.6760  0.0195  0.2842
   24CHL1  H22B 1760   3.090   5.700   9.134  0.2685 -2.0190  0.4360
   24CHL1   C23 1761   2.901   5.647   9.048  0.0352  0.5956  0.3121
   24CHL1  H23A 1762   2.899   5.539   9.072 -0.4515  0.6980  0.7576
   24CHL1  H23B 1763   2.793   5.671   9.041 -0.2942 -0.7799  0.4992
   24CHL1   C24 1764   2.959   5.654   8.902 -0.4466  0.8563  0.4590
   24CHL1  H24A 1765   2.958   5.762   8.875 -1.1580  0.4317 -1.3116
   24CHL1  H24B 1766   3.066   5.624   8.896 -1.6083 -3.2098 -2.2483
   24CHL1   C25 1767   2.863   5.574   8.811 -0.5740  0.4760  0.2983
   24CHL1   H25 1768   2.765   5.616   8.840 -0.2767 -0.2353  2.4107
   24CHL1   C26 1769   2.875   5.609   8.661 -0.1417  0.7575  0.0492
   24CHL1  H26A 1770   2.789   5.577   8.598 -0.1263  1.2456 -0.2138
   24CHL1  H26B 1771   2.885   5.719   8.649 -0.9464  0.7141 -1.1203
   24CHL1  H26C 1772   2.962   5.558   8.613 -0.3152  0.2153  0.3083
   24CHL1   C27 1773   2.860   5.413   8.823  0.6883  0.2903  0.0653
   24CHL1  H27A 1774   2.824   5.363   8.731 -1.1624 -1.0508  1.4902
   24CHL1  H27B 1775   2.963   5.380   8.850 -0.5700 -4.3142 -0.4075
   24CHL1  H27C 1776   2.787   5.372   8.896 -2.0610 -0.1375 -2.8729
   25CHL1    C3 1777   4.424   0.562  10.288 -0.1431 -0.1333 -0.7719
   25CHL1    H3 1778   4.389   0.664  10.261  1.2614  1.0111  1.5070
   25CHL1    O3 1779   4.430   0.556  10.430  0.5312  0.7347 -0.0068
   25CHL1   H3' 1780   4.510   0.507  10.454 -0.0930 -0.0356  0.5268
   25CHL1    C4 1781   4.329   0.457  10.222  0.1401  0.2249 -0.0414
   25CHL1   H4A 1782   4.340   0.359  10.272  0.3761  0.5303  0.5137
   25CHL1   H4B 1783   4.226   0.488  10.250 -0.2042  0.1641 -1.1911
   25CHL1    C5 1784   4.335   0.474  10.068  0.2797 -0.4174  0.3777
   25CHL1    C6 1785   4.225   0.515  10.009 -0.8045  0.1154  0.5033
   25CHL1    H6 1786   4.131   0.515  10.067 -1.9469 -1.0237 -1.3034
   25CHL1    C7 1787   4.222   0.539   9.856  0.0262  0.2942 -0.3193
   25CHL1   H7A 1788   4.146   0.479   9.802  0.7951  1.3902 -2.7482
   25CHL1   H7B 1789   4.197   0.645   9.831 -3.0525  0.5214  3.3365
   25CHL1    C8 1790   4.360   0.491   9.788 -0.1376 -0.4238 -0.2923
   25CHL1    H8 1791   4.353   0.380   9.787 -2.4395 -0.3485 -3.7407
   25CHL1   C14 1792   4.369   0.537   9.640 -0.0591  0.1023 -0.1897
   25CHL1   H14 1793   4.367   0.648   9.649  0.4752  0.1632 -0.7649
   25CHL1   C15 1794   4.249   0.508   9.549  0.2731 -0.3310  0.3195
   25CHL1  H15A 1795   4.211   0.405   9.564 -0.4349 -0.2771 -1.0404
   25CHL1  H15B 1796   4.160   0.574   9.553 -0.9980 -2.0810  1.4413
   25CHL1   C16 1797   4.320   0.509   9.406 -0.0938 -0.2850 -0.3569
   25CHL1  H16A 1798   4.301   0.414   9.352  3.3702 -1.1027 -0.2537
   25CHL1  H16B 1799   4.264   0.589   9.352 -2.0516 -1.8379 -0.6828
   25CHL1   C17 1800   4.471   0.547   9.427  0.1015 -0.4935 -0.7931
   25CHL1   H17 1801   4.470   0.658   9.435  1.1738 -0.3122 -2.6862
   25CHL1   C13 1802   4.497   0.496   9.569 -0.5005  0.1296 -0.3391
   25CHL1   C18 1803   4.510   0.338   9.559 -0.3125 -0.3844 -0.2677
   25CHL1  H18A 1804   4.502   0.289   9.659  0.7879  1.5346  0.7729
   25CHL1  H18B 1805   4.428   0.305   9.492 -1.8181  2.6758 -0.0281
   25CHL1  H18C 1806   4.616   0.319   9.531  0.8313  0.8369  2.9431
   25CHL1   C12 1807   4.613   0.558   9.641  0.4461  0.1691  0.2534
   25CHL1  H12A 1808   4.705   0.539   9.582  0.3937  0.2978  0.1287
   25CHL1  H12B 1809   4.591   0.666   9.655 -2.3668 -0.2241 -0.8173
   25CHL1   C11 1810   4.620   0.504   9.780  0.3703 -1.0441  0.5146
   25CHL1  H11A 1811   4.635   0.393   9.781 -4.3512 -1.7732  0.6510
   25CHL1  H11B 1812   4.706   0.548   9.835  1.3207 -1.5963 -0.5046
   25CHL1    C9 1813   4.490   0.533   9.863 -0.4618 -0.5328  1.1285
   25CHL1    H9 1814   4.479   0.643   9.872  0.3401 -0.2937 -0.5038
   25CHL1   C10 1815   4.483   0.472  10.006  0.2098  0.2489  0.1430
   25CHL1   C19 1816   4.535   0.325  10.001 -0.7008  0.5107  0.2717
   25CHL1  H19A 1817   4.536   0.266  10.095  1.4983 -2.7080 -1.6848
   25CHL1  H19B 1818   4.464   0.259   9.947  2.7863 -0.7282 -2.9163
   25CHL1  H19C 1819   4.642   0.316   9.974 -0.8216  1.3106 -0.4855
   25CHL1    C1 1820   4.580   0.557  10.090  0.0046  0.6563 -0.2973
   25CHL1   H1A 1821   4.685   0.556  10.053  0.6157 -1.7176  1.3316
   25CHL1   H1B 1822   4.537   0.659  10.086  0.9434  1.1629  1.6261
   25CHL1    C2 1823   4.571   0.538  10.240  0.2951 -0.1774  0.4830
   25CHL1   H2A 1824   4.643   0.595  10.302 -0.1465 -0.1637  0.9864
   25CHL1   H2B 1825   4.600   0.431  10.251  2.5848  0.3816  0.1244
   25CHL1   C20 1826   4.567   0.521   9.307  0.3560 -0.5691 -0.4012
   25CHL1   H20 1827   4.609   0.419   9.318 -1.0439 -1.0524  0.7201
   25CHL1   C21 1828   4.682   0.626   9.304  0.3222  0.0335 -0.5352
   25CHL1  H21A 1829   4.760   0.587   9.235 -0.2441 -3.0009  0.4601
   25CHL1  H21B 1830   4.720   0.643   9.407 -0.0889 -0.2952 -0.3256
   25CHL1  H21C 1831   4.639   0.714   9.250  0.1664 -0.7246 -1.6622
   25CHL1   C22 1832   4.493   0.519   9.172 -0.5199 -0.4107  0.1301
   25CHL1  H22A 1833   4.432   0.426   9.175 -1.3288  0.0827 -0.4647
   25CHL1  H22B 1834   4.421   0.603   9.158 -1.7265 -1.7433 -2.0093
   25CHL1   C23 1835   4.586   0.491   9.049 -0.2317  0.5631  0.1624
   25CHL1  H23A 1836   4.616   0.592   9.016 -0.9140  1.1183  1.2125
   25CHL1  H23B 1837   4.674   0.428   9.074 -2.2891 -2.1201  0.9797
   25CHL1   C24 1838   4.508   0.427   8.933  0.2827  0.2876  0.1402
   25CHL1  H24A 1839   4.453   0.344   8.982  1.7822 -0.7518  0.1302
   25CHL1  H24B 1840   4.435   0.502   8.896  0.0475 -0.0187 -0.0185
   25CHL1   C25 1841   4.583   0.360   8.816 -0.2663 -0.1108 -0.4617
   25CHL1   H25 1842   4.671   0.306   8.856  0.0117  0.9887  0.4384
   25CHL1   C26 1843   4.480   0.282   8.739 -0.2190 -0.7246 -0.0916
   25CHL1  H26A 1844   4.529   0.223   8.659 -1.4247  1.4672 -2.5278
   25CHL1  H26B 1845   4.413   0.216   8.798  0.2841  1.0934  2.6540
   25CHL1  H26C 1846   4.412   0.365   8.708  0.8437  0.9268  1.8427
   25CHL1   C27 1847   4.637   0.468   8.731  0.2966  0.1751 -0.2144
   25CHL1  H27A 1848   4.668   0.429   8.631 -1.0806  2.7893 -1.7093
   25CHL1  H27B 1849   4.558   0.541   8.703 -0.6195 -0.8225 -0.2685
   25CHL1  H27C 1850   4.721   0.529   8.770 -0.5437 -0.3654  2.5851
   26CHL1    C3 1851   5.644   3.530  10.202  0.4824  0.3510 -0.1743
   26CHL1    H3 1852   5.745   3.483  10.200 -0.0582 -1.1725  3.7704
   26CHL1    O3 1853   5.616   3.549  10.344  0.1344 -0.0695  0.1793
   26CHL1   H3' 1854   5.527   3.584  10.351  0.3266  0.4999 -0.1397
   26CHL1    C4 1855   5.634   3.656  10.119  0.0618  0.3860 -0.3399
   26CHL1   H4A 1856   5.528   3.690  10.131 -0.7591 -2.3139  0.4665
   26CHL1   H4B 1857   5.685   3.742  10.168  0.3409 -0.7193  1.3646
   26CHL1    C5 1858   5.658   3.640   9.968  1.0580 -0.7626  0.0081
   26CHL1    C6 1859   5.756   3.708   9.907 -0.1745 -0.2457 -0.0262
   26CHL1    H6 1860   5.815   3.779   9.966  0.1063 -0.1151 -0.4619
   26CHL1    C7 1861   5.795   3.677   9.764  0.2214 -0.2707  0.7116
   26CHL1   H7A 1862   5.801   3.774   9.709 -0.7438 -0.7586 -0.2817
   26CHL1   H7B 1863   5.887   3.616   9.765 -0.6600 -1.6237  0.7265
   26CHL1    C8 1864   5.697   3.585   9.681  0.2043  0.1943 -0.2665
   26CHL1    H8 1865   5.607   3.646   9.658 -0.9774 -1.6362 -0.5289
   26CHL1   C14 1866   5.756   3.535   9.554 -0.2909  0.5378  0.7548
   26CHL1   H14 1867   5.833   3.459   9.582  0.2157  1.0724  0.8280
   26CHL1   C15 1868   5.829   3.630   9.465  0.0844 -0.2365 -0.0641
   26CHL1  H15A 1869   5.773   3.724   9.447 -0.0756 -0.3660 -0.2398
   26CHL1  H15B 1870   5.938   3.648   9.481  0.1857 -1.1107  0.2653
   26CHL1   C16 1871   5.833   3.553   9.326 -0.0825 -0.3014 -0.6545
   26CHL1  H16A 1872   5.806   3.622   9.244  1.3343  1.4844  0.3421
   26CHL1  H16B 1873   5.937   3.522   9.304  0.6966  1.0018  1.1074
   26CHL1   C17 1874   5.743   3.430   9.345  0.0188  0.1057 -0.2489
   26CHL1   H17 1875   5.810   3.346   9.372  0.9803  0.5526 -1.2110
   26CHL1   C13 1876   5.660   3.453   9.476 -0.3167  0.2711  0.4800
   26CHL1   C18 1877   5.535   3.533   9.434  0.0782  0.1495  0.0344
   26CHL1  H18A 1878   5.463   3.545   9.518 -2.1049 -2.2343 -1.4233
   26CHL1  H18B 1879   5.551   3.638   9.401 -1.8373  0.2946 -0.4678
   26CHL1  H18C 1880   5.474   3.483   9.356  0.2222 -1.2759  0.8287
   26CHL1   C12 1881   5.628   3.332   9.556  0.5388  0.6903 -0.2902
   26CHL1  H12A 1882   5.563   3.270   9.492  0.4398 -0.2994  0.7448
   26CHL1  H12B 1883   5.720   3.275   9.580 -0.4946 -0.6060  0.6727
   26CHL1   C11 1884   5.570   3.364   9.701  0.3025 -0.8961 -0.0022
   26CHL1  H11A 1885   5.463   3.394   9.693 -0.1388 -2.2053  0.8140
   26CHL1  H11B 1886   5.585   3.271   9.761 -0.9755 -0.1019  1.5989
   26CHL1    C9 1887   5.646   3.477   9.769  0.4651 -0.5697  1.0357
   26CHL1    H9 1888   5.738   3.430   9.809  0.2334 -0.5340  1.6115
   26CHL1   C10 1889   5.581   3.526   9.901 -0.3830 -0.1826  0.1921
   26CHL1   C19 1890   5.432   3.570   9.877 -0.0051 -0.1453 -0.2553
   26CHL1  H19A 1891   5.379   3.474   9.862 -1.9438  1.0171 -0.9483
   26CHL1  H19B 1892   5.396   3.607   9.975  1.3753  1.3401 -0.2921
   26CHL1  H19C 1893   5.418   3.636   9.789 -1.7227 -0.1128  0.0302
   26CHL1    C1 1894   5.575   3.403   9.999 -0.0180  0.4177 -0.4853
   26CHL1   H1A 1895   5.512   3.317   9.965  1.7052 -0.8092 -0.6449
   26CHL1   H1B 1896   5.680   3.368  10.002 -0.1134  0.2211  1.3431
   26CHL1    C2 1897   5.545   3.427  10.147  0.4511 -0.6413  0.4089
   26CHL1   H2A 1898   5.566   3.331  10.199 -3.6572 -1.4826  0.6538
   26CHL1   H2B 1899   5.439   3.450  10.169  0.0423 -0.2505 -1.8818
   26CHL1   C20 1900   5.678   3.390   9.216 -0.1008  0.4914 -0.2837
   26CHL1   H20 1901   5.601   3.464   9.186  1.5768  1.5895 -1.9752
   26CHL1   C21 1902   5.610   3.250   9.219 -0.1204  0.9020  0.0746
   26CHL1  H21A 1903   5.538   3.243   9.304 -3.0609 -0.2539 -2.4272
   26CHL1  H21B 1904   5.681   3.171   9.252 -0.4206  0.9676  0.8974
   26CHL1  H21C 1905   5.558   3.221   9.125 -2.0791  3.4286  0.3513
   26CHL1   C22 1906   5.773   3.395   9.088  0.2492  0.0433 -0.6046
   26CHL1  H22A 1907   5.819   3.495   9.074  1.2521 -0.3918 -0.4385
   26CHL1  H22B 1908   5.857   3.326   9.112 -0.4649 -0.7887 -0.4470
   26CHL1   C23 1909   5.715   3.348   8.949  0.3589  0.1340 -0.7167
   26CHL1  H23A 1910   5.678   3.245   8.965 -0.8956  0.7772  0.5406
   26CHL1  H23B 1911   5.630   3.414   8.923  1.5034  1.2604 -1.7088
   26CHL1   C24 1912   5.816   3.335   8.836 -0.3420  0.3846 -0.0227
   26CHL1  H24A 1913   5.876   3.429   8.837  1.0626 -0.4832 -0.8873
   26CHL1  H24B 1914   5.881   3.247   8.856 -1.2796 -0.7819 -1.9434
   26CHL1   C25 1915   5.750   3.311   8.697  0.0312  0.0295  0.1472
   26CHL1   H25 1916   5.833   3.307   8.624 -0.7848  1.8616 -0.9237
   26CHL1   C26 1917   5.674   3.177   8.697  0.1180  0.3143  0.1282
   26CHL1  H26A 1918   5.723   3.095   8.753  0.3754 -1.9442 -3.2387
   26CHL1  H26B 1919   5.581   3.203   8.753 -0.9607 -0.3421 -1.3012
   26CHL1  H26C 1920   5.652   3.152   8.591 -0.4011 -1.6741  0.6886
   26CHL1   C27 1921   5.654   3.420   8.637  0.1024  0.5119 -0.4024
   26CHL1  H27A 1922   5.711   3.515   8.639  2.6688 -0.9568 -1.8806
   26CHL1  H27B 1923   5.629   3.410   8.530  3.4359 -0.1149 -1.1925
   26CHL1  H27C 1924   5.559   3.422   8.695  0.2395 -4.1694  0.2267
   27CHL1    C3 1925   5.008   0.819  10.447 -0.2670  0.1915  0.2269
   27CHL1    H3 1926   5.017   0.929  10.439  0.0757  0.3866  2.7991
   27CHL1    O3 1927   4.983   0.779  10.579 -0.3949  0.8027 -0.1939
   27CHL1   H3' 1928   5.040   0.833  10.635  1.0985 -1.3766  0.4830
   27CHL1    C4 1929   4.898   0.757  10.358  0.7108  0.3640 -0.2395
   27CHL1   H4A 1930   4.884   0.650  10.387  1.9508  0.3738  0.4586
   27CHL1   H4B 1931   4.801   0.804  10.385 -0.2565 -0.0327 -2.8695
   27CHL1    C5 1932   4.923   0.780  10.207  0.1973  0.6763  0.2679
   27CHL1    C6 1933   4.839   0.846  10.134 -0.1310  0.6776 -0.6138
   27CHL1    H6 1934   4.750   0.894  10.178  1.1893  0.8720  1.9617
   27CHL1    C7 1935   4.858   0.857   9.985 -0.7032  0.0410  0.1538
   27CHL1   H7A 1936   4.761   0.834   9.937 -0.6384  1.3424 -0.6088
   27CHL1   H7B 1937   4.884   0.963   9.961 -0.8354 -0.1726 -0.9211
   27CHL1    C8 1938   4.969   0.763   9.924  0.2732 -0.3447  0.6487
   27CHL1    H8 1939   4.925   0.661   9.933 -0.1136  0.0310  3.6323
   27CHL1   C14 1940   5.010   0.802   9.782  1.1363 -0.1092 -0.7305
   27CHL1   H14 1941   5.055   0.904   9.788 -2.0030  1.3388 -1.1138
   27CHL1   C15 1942   4.896   0.819   9.676  0.4000  0.2053 -0.4482
   27CHL1  H15A 1943   4.813   0.744   9.679  0.5427  0.0768  0.4670
   27CHL1  H15B 1944   4.850   0.919   9.688 -1.5049 -0.9422  2.0949
   27CHL1   C16 1945   4.973   0.826   9.545  0.2345  1.0108  0.6020
   27CHL1  H16A 1946   4.937   0.739   9.486  3.2142 -0.4844  0.9044
   27CHL1  H16B 1947   4.979   0.919   9.484  0.4843  1.0756  0.7254
   27CHL1   C17 1948   5.126   0.782   9.580  0.3518 -0.1746 -0.5158
   27CHL1   H17 1949   5.171   0.883   9.589 -0.2361 -0.1050  1.9521
   27CHL1   C13 1950   5.118   0.715   9.719 -0.3357  0.0944  0.4436
   27CHL1   C18 1951   5.069   0.565   9.702  0.2776 -0.7970  0.3900
   27CHL1  H18A 1952   4.985   0.574   9.630  0.3129  5.0401  0.7966
   27CHL1  H18B 1953   5.149   0.493   9.673  1.7504  1.2024 -0.6542
   27CHL1  H18C 1954   5.028   0.521   9.796 -1.9968  2.8511  1.2286
   27CHL1   C12 1955   5.246   0.724   9.803 -0.2029  0.5004 -0.7704
   27CHL1  H12A 1956   5.324   0.663   9.753  1.0712  0.8469  0.7621
   27CHL1  H12B 1957   5.277   0.831   9.797  1.2481  0.2696  1.8887
   27CHL1   C11 1958   5.202   0.687   9.946  0.1749  0.4070  0.3595
   27CHL1  H11A 1959   5.175   0.579   9.946 -1.3657  0.7726  1.2923
   27CHL1  H11B 1960   5.290   0.699  10.012  0.4626 -0.8374  0.2171
   27CHL1    C9 1961   5.088   0.757  10.012  0.2403 -0.4505 -0.2951
   27CHL1    H9 1962   5.120   0.864  10.012 -0.8204 -0.1107 -1.4668
   27CHL1   C10 1963   5.051   0.713  10.159 -0.6438  0.2637 -0.6179
   27CHL1   C19 1964   5.029   0.555  10.166 -0.0438 -0.8300 -0.2870
   27CHL1  H19A 1965   5.109   0.500  10.113  0.4002  0.3873 -0.8870
   27CHL1  H19B 1966   5.028   0.510  10.268 -2.2890 -2.8517 -1.1404
   27CHL1  H19C 1967   4.934   0.523  10.117 -1.6368  4.4699 -0.9645
   27CHL1    C1 1968   5.167   0.754  10.249 -0.0616 -0.3039 -0.1408
   27CHL1   H1A 1969   5.253   0.684  10.238 -1.7708 -2.2772 -1.4038
   27CHL1   H1B 1970   5.200   0.855  10.217  1.6702 -0.2630  1.6531
   27CHL1    C2 1971   5.141   0.752  10.399  0.1414 -0.1697 -0.6327
   27CHL1   H2A 1972   5.218   0.816  10.447 -1.4593  1.2612  0.1075
   27CHL1   H2B 1973   5.137   0.647  10.436 -1.4874 -0.0429 -0.3895
   27CHL1   C20 1974   5.198   0.707   9.468 -0.1666 -0.9923 -0.1523
   27CHL1   H20 1975   5.205   0.597   9.476  1.7347 -0.9838 -1.3986
   27CHL1   C21 1976   5.340   0.757   9.470 -0.0385 -0.7792  0.2136
   27CHL1  H21A 1977   5.388   0.740   9.568  0.2952 -1.5474 -0.0861
   27CHL1  H21B 1978   5.354   0.865   9.448  1.2516 -0.8588  0.6311
   27CHL1  H21C 1979   5.413   0.712   9.400  2.7513  0.1870  2.4223
   27CHL1   C22 1980   5.141   0.728   9.327 -0.1861  0.1265  0.5453
   27CHL1  H22A 1981   5.060   0.652   9.329  0.5802 -0.7614 -1.0733
   27CHL1  H22B 1982   5.095   0.827   9.305  0.0036  0.0844 -0.0477
   27CHL1   C23 1983   5.237   0.697   9.209  0.5191  0.1903  0.2370
   27CHL1  H23A 1984   5.326   0.763   9.216  1.5400 -1.4318  3.6141
   27CHL1  H23B 1985   5.270   0.592   9.224 -0.5920 -0.0020  1.5106
   27CHL1   C24 1986   5.167   0.714   9.069  0.1282 -0.1374  0.3876
   27CHL1  H24A 1987   5.152   0.822   9.049 -0.3085 -0.0841  0.9692
   27CHL1  H24B 1988   5.250   0.674   9.007  0.1136  1.7956 -0.9052
   27CHL1   C25 1989   5.030   0.645   9.055 -0.5498 -0.8649 -0.0973
   27CHL1   H25 1990   4.945   0.684   9.115 -0.0920 -1.7447  1.1335
   27CHL1   C26 1991   4.968   0.664   8.911  0.7212 -0.2149 -0.3112
   27CHL1  H26A 1992   4.867   0.620   8.898  0.9346 -0.9020  0.3362
   27CHL1  H26B 1993   4.958   0.769   8.876  1.9867  0.2751  0.7652
   27CHL1  H26C 1994   5.037   0.612   8.842  1.5040  1.1255 -0.5560
   27CHL1   C27 1995   5.062   0.498   9.090  0.4740  0.1279  0.3257
   27CHL1  H27A 1996   4.963   0.447   9.087  0.6951 -0.2749 -0.2137
   27CHL1  H27B 1997   5.134   0.450   9.021  1.1620  2.0622 -0.3397
   27CHL1  H27C 1998   5.105   0.479   9.191 -2.2521 -2.6237  1.0385
   28CHL1    C3 1999   4.497   5.733   9.879  0.1974 -0.3598  0.2655
   28CHL1    H3 2000   4.417   5.809   9.865  0.7395  0.0596 -0.6375
   28CHL1    O3 2001   4.518   5.705  10.016 -0.2082  0.1368  0.5109
   28CHL1   H3' 2002   4.495   5.612  10.021  0.3575 -0.0027  0.5198
   28CHL1    C4 2003   4.474   5.604   9.798  0.4898  0.2992 -0.7666
   28CHL1   H4A 2004   4.539   5.520   9.831  1.6726  1.6364  0.3989
   28CHL1   H4B 2005   4.370   5.572   9.821  0.9970 -0.2622  0.8138
   28CHL1    C5 2006   4.482   5.620   9.647 -0.2036  0.1686 -0.3179
   28CHL1    C6 2007   4.388   5.580   9.562 -0.3502 -0.0059 -0.1108
   28CHL1    H6 2008   4.296   5.532   9.601 -1.5416  2.8805  0.7243
   28CHL1    C7 2009   4.375   5.595   9.414 -0.5341  0.0093 -0.5230
   28CHL1   H7A 2010   4.345   5.502   9.363  2.3399 -1.6931  0.7244
   28CHL1   H7B 2011   4.298   5.673   9.395  0.8068  1.3344 -0.6743
   28CHL1    C8 2012   4.511   5.640   9.353 -0.0534  0.4738 -1.6415
   28CHL1    H8 2013   4.582   5.555   9.356 -1.9820 -1.0923  2.7290
   28CHL1   C14 2014   4.490   5.694   9.215  0.7131  0.3735  0.7021
   28CHL1   H14 2015   4.429   5.785   9.235  0.7460  1.0614 -2.0611
   28CHL1   C15 2016   4.406   5.610   9.116  0.4226 -0.2636  0.3069
   28CHL1  H15A 2017   4.438   5.505   9.133  2.2542  0.4510  1.4728
   28CHL1  H15B 2018   4.297   5.619   9.135  0.2276 -0.1989 -0.8081
   28CHL1   C16 2019   4.444   5.663   8.979 -0.2475 -0.4836  0.3818
   28CHL1  H16A 2020   4.481   5.590   8.904  0.0478  0.2235 -0.1716
   28CHL1  H16B 2021   4.358   5.712   8.929  2.1274  3.8845  0.2459
   28CHL1   C17 2022   4.550   5.776   9.007 -0.1655 -0.4957  0.3836
   28CHL1   H17 2023   4.485   5.862   9.032  1.2702 -0.1622  3.1975
   28CHL1   C13 2024   4.619   5.738   9.143  0.1285 -0.5447  0.4755
   28CHL1   C18 2025   4.718   5.633   9.114 -0.3638 -0.0317  0.4360
   28CHL1  H18A 2026   4.798   5.676   9.050  0.7354 -1.8599  0.5434
   28CHL1  H18B 2027   4.761   5.598   9.210 -0.4921  0.9023  0.8452
   28CHL1  H18C 2028   4.687   5.541   9.060 -3.7966  1.7006 -0.7272
   28CHL1   C12 2029   4.674   5.853   9.226  0.4870  0.0282  0.0208
   28CHL1  H12A 2030   4.762   5.906   9.184  0.6129 -2.0708 -2.4413
   28CHL1  H12B 2031   4.599   5.936   9.222  2.5826  1.9173 -0.6826
   28CHL1   C11 2032   4.700   5.819   9.373 -0.6510 -0.6143 -0.4037
   28CHL1  H11A 2033   4.786   5.749   9.377 -0.9303 -0.9284  0.0810
   28CHL1  H11B 2034   4.732   5.906   9.434  0.2982 -1.4046  0.2437
   28CHL1    C9 2035   4.578   5.753   9.443  0.2610 -0.4234 -0.9609
   28CHL1    H9 2036   4.507   5.838   9.446 -0.1079 -0.6980 -1.8407
   28CHL1   C10 2037   4.602   5.706   9.593 -0.0290  0.2270  0.2929
   28CHL1   C19 2038   4.734   5.619   9.605 -0.0344 -0.5338 -0.1162
   28CHL1  H19A 2039   4.733   5.579   9.708  0.2753 -0.8790 -0.2439
   28CHL1  H19B 2040   4.733   5.533   9.535 -0.9752 -0.0403 -0.7261
   28CHL1  H19C 2041   4.828   5.678   9.596 -0.3063  0.1542  1.4713
   28CHL1    C1 2042   4.612   5.833   9.683  0.2187 -0.1625 -0.6358
   28CHL1   H1A 2043   4.704   5.891   9.660  0.8645 -0.5768  0.8059
   28CHL1   H1B 2044   4.524   5.898   9.664  0.4926  0.0276 -1.2754
   28CHL1    C2 2045   4.620   5.816   9.833 -0.3524  0.2833 -0.7906
   28CHL1   H2A 2046   4.627   5.915   9.884 -1.5910  0.3107 -0.6620
   28CHL1   H2B 2047   4.712   5.763   9.867 -0.5878  0.0831 -0.4620
   28CHL1   C20 2048   4.632   5.825   8.881 -0.1011 -0.0076  0.0945
   28CHL1   H20 2049   4.723   5.763   8.865  0.6829  1.3204 -0.6531
   28CHL1   C21 2050   4.664   5.977   8.907  0.1891 -0.3150 -0.0626
   28CHL1  H21A 2051   4.573   6.031   8.875 -0.3098 -0.4631  1.1007
   28CHL1  H21B 2052   4.751   6.013   8.847  1.8553 -1.8859  1.3292
   28CHL1  H21C 2053   4.688   5.998   9.014  0.1411 -1.3719  0.1653
   28CHL1   C22 2054   4.570   5.807   8.735 -0.3427 -0.0301 -0.0780
   28CHL1  H22A 2055   4.559   5.697   8.726  0.8850 -0.4527  3.0595
   28CHL1  H22B 2056   4.465   5.843   8.731 -0.4535 -0.4544 -1.6163
   28CHL1   C23 2057   4.657   5.860   8.621  0.5511  0.1775 -0.5991
   28CHL1  H23A 2058   4.624   5.966   8.611 -0.5310 -0.1691 -0.8796
   28CHL1  H23B 2059   4.764   5.850   8.647  0.5554  2.1594  0.2193
   28CHL1   C24 2060   4.623   5.792   8.482  0.2902 -0.6141  0.0452
   28CHL1  H24A 2061   4.628   5.682   8.490  0.3307 -0.7782 -1.9546
   28CHL1  H24B 2062   4.514   5.813   8.474  0.1924 -1.2718 -0.3943
   28CHL1   C25 2063   4.697   5.854   8.363 -0.0622 -0.4658 -0.6501
   28CHL1   H25 2064   4.804   5.850   8.393 -0.3759 -0.8037  0.4307
   28CHL1   C26 2065   4.689   5.759   8.238  0.1880  0.5678  0.1701
   28CHL1  H26A 2066   4.583   5.762   8.205  0.9261 -0.1577 -2.4077
   28CHL1  H26B 2067   4.754   5.794   8.154 -0.1049 -3.0377 -1.6186
   28CHL1  H26C 2068   4.718   5.658   8.273  0.1469  0.6230  0.3625
   28CHL1   C27 2069   4.642   5.992   8.337  0.2649 -0.8000  0.7642
   28CHL1  H27A 2070   4.532   5.981   8.331  0.2465 -0.5805  0.6973
   28CHL1  H27B 2071   4.666   6.067   8.416  0.0742 -0.3786  0.4201
   28CHL1  H27C 2072   4.692   6.020   8.242 -1.2077 -2.0820 -0.3952
   29CHL1    C3 2073   5.872   4.846   6.744  0.4302 -0.3494  0.1306
   29CHL1    H3 2074   5.807   4.934   6.764 -2.3607 -2.1802 -0.6773
   29CHL1    O3 2075   5.895   4.852   6.602  0.5584  0.3508 -0.2570
   29CHL1   H3' 2076   5.939   4.769   6.580 -0.0894 -0.2362  0.6197
   29CHL1    C4 2077   6.003   4.842   6.829 -0.1840 -0.1597 -0.5909
   29CHL1   H4A 2078   6.068   4.764   6.784 -0.3718 -1.1577  0.8527
   29CHL1   H4B 2079   6.060   4.934   6.804 -0.9773  0.5306  0.1203
   29CHL1    C5 2080   5.981   4.820   6.981  0.5349 -0.6374  0.5706
   29CHL1    C6 2081   6.036   4.906   7.067 -0.1339 -0.0829 -0.2972
   29CHL1    H6 2082   6.107   4.983   7.032  0.4117 -0.1889  0.5709
   29CHL1    C7 2083   6.029   4.894   7.221 -0.5089 -0.2967  0.0283
   29CHL1   H7A 2084   6.129   4.903   7.270 -0.4473 -1.3155  0.1086
   29CHL1   H7B 2085   5.964   4.977   7.255 -1.3681 -0.6972 -0.6290
   29CHL1    C8 2086   5.954   4.766   7.262  0.0175  1.2000 -0.1661
   29CHL1    H8 2087   6.025   4.680   7.258 -1.0174  0.3006  0.7146
   29CHL1   C14 2088   5.915   4.773   7.409  0.7866  0.5608  0.9998
   29CHL1   H14 2089   5.838   4.853   7.417  0.6450  0.5475 -0.1447
   29CHL1   C15 2090   6.026   4.808   7.506 -0.6524 -0.3865 -0.6418
   29CHL1  H15A 2091   6.119   4.758   7.472 -1.4485 -0.8052 -2.2770
   29CHL1  H15B 2092   6.044   4.917   7.515 -1.2364 -0.5607  4.2467
   29CHL1   C16 2093   5.960   4.765   7.639 -0.2458  0.7735  0.1016
   29CHL1  H16A 2094   6.022   4.703   7.707 -0.6821  1.1585  0.8564
   29CHL1  H16B 2095   5.936   4.859   7.693  0.0792  1.2601 -0.6019
   29CHL1   C17 2096   5.830   4.686   7.608  0.5184  0.1035  0.0618
   29CHL1   H17 2097   5.753   4.766   7.616 -1.3121 -1.6581  0.5920
   29CHL1   C13 2098   5.849   4.646   7.465 -0.1113 -0.2911  0.7115
   29CHL1   C18 2099   5.951   4.529   7.462 -0.1260 -0.0743  0.3713
   29CHL1  H18A 2100   5.900   4.434   7.490 -0.7627 -0.1339 -0.9582
   29CHL1  H18B 2101   5.990   4.508   7.360  0.7733  2.0707  0.2390
   29CHL1  H18C 2102   6.033   4.553   7.533  0.5938 -2.3365  0.3420
   29CHL1   C12 2103   5.722   4.620   7.381  0.6294 -0.2467  0.6173
   29CHL1  H12A 2104   5.664   4.533   7.418  1.0006 -1.3455 -1.2848
   29CHL1  H12B 2105   5.642   4.694   7.399 -0.6091 -1.6908  1.2010
   29CHL1   C11 2106   5.756   4.612   7.229  0.0289  0.2600  0.2686
   29CHL1  H11A 2107   5.824   4.524   7.221 -1.3963 -0.8700  0.3103
   29CHL1  H11B 2108   5.667   4.596   7.165 -0.3841 -3.2481  1.5918
   29CHL1    C9 2109   5.832   4.736   7.172 -0.1896  0.4384 -0.6542
   29CHL1    H9 2110   5.768   4.824   7.191 -1.4700  0.2775 -3.9105
   29CHL1   C10 2111   5.873   4.715   7.021  0.1415 -0.2868 -0.4180
   29CHL1   C19 2112   5.933   4.576   7.000 -0.2719 -0.1836 -0.4363
   29CHL1  H19A 2113   5.999   4.545   7.084  2.2722  1.8256 -1.6240
   29CHL1  H19B 2114   5.838   4.518   6.992  0.2306 -1.3541  1.5880
   29CHL1  H19C 2115   5.990   4.562   6.906 -0.6137 -2.0868 -0.3814
   29CHL1    C1 2116   5.749   4.722   6.924  0.6845  0.3153 -0.1856
   29CHL1   H1A 2117   5.682   4.637   6.949 -1.4172  1.4683 -1.6797
   29CHL1   H1B 2118   5.693   4.814   6.954 -1.8473 -0.8494 -1.1736
   29CHL1    C2 2119   5.788   4.732   6.780  0.8522  0.5726  0.2669
   29CHL1   H2A 2120   5.694   4.734   6.720  1.2334  3.4050 -0.2996
   29CHL1   H2B 2121   5.839   4.636   6.757 -1.7922 -0.7459 -0.3585
   29CHL1   C20 2122   5.808   4.584   7.720 -0.1590  0.4779  0.5475
   29CHL1   H20 2123   5.891   4.511   7.724 -0.3536  0.3266  2.1302
   29CHL1   C21 2124   5.679   4.497   7.695  0.1298 -0.1624 -0.2642
   29CHL1  H21A 2125   5.589   4.562   7.696  1.1120  1.2018  0.0928
   29CHL1  H21B 2126   5.666   4.429   7.782 -0.0901 -0.2467 -0.3631
   29CHL1  H21C 2127   5.695   4.440   7.601  2.5536  1.6639 -1.0192
   29CHL1   C22 2128   5.794   4.644   7.864 -0.6116 -0.6199  0.8351
   29CHL1  H22A 2129   5.755   4.563   7.929  1.6430  0.3767  3.5349
   29CHL1  H22B 2130   5.897   4.666   7.899 -0.1193 -1.8032  0.1728
   29CHL1   C23 2131   5.697   4.768   7.871  0.1218  1.1219  0.6020
   29CHL1  H23A 2132   5.743   4.859   7.826 -2.4286  1.5356 -1.2620
   29CHL1  H23B 2133   5.615   4.740   7.801 -0.2137 -0.9581  1.7814
   29CHL1   C24 2134   5.662   4.788   8.017 -0.1267 -0.2002  0.0633
   29CHL1  H24A 2135   5.641   4.692   8.069 -0.9191  0.1484  0.3982
   29CHL1  H24B 2136   5.754   4.826   8.066 -0.3489 -0.3108  0.5672
   29CHL1   C25 2137   5.538   4.889   8.041 -0.3131  0.5033  0.0930
   29CHL1   H25 2138   5.452   4.833   7.999  0.4345 -0.4228 -0.2458
   29CHL1   C26 2139   5.516   4.897   8.187  0.6738  0.1583  0.3647
   29CHL1  H26A 2140   5.512   4.796   8.233  1.6709  0.3233  0.8161
   29CHL1  H26B 2141   5.596   4.954   8.238  0.4434  1.1412 -0.3631
   29CHL1  H26C 2142   5.418   4.945   8.209 -0.9079 -1.2162 -3.2334
   29CHL1   C27 2143   5.552   5.022   7.981  0.3200 -0.1393  0.6802
   29CHL1  H27A 2144   5.626   5.077   8.044  1.2247 -0.6767  0.1065
   29CHL1  H27B 2145   5.582   5.028   7.875  0.1807  0.1380  0.6554
   29CHL1  H27C 2146   5.452   5.069   7.996 -0.0529 -0.6299 -0.2912
   30CHL1    C3 2147   3.933   3.270   7.403 -0.1811  0.1660  0.9043
   30CHL1    H3 2148   3.865   3.229   7.481 -0.6796  0.1191  0.4467
   30CHL1    O3 2149   3.913   3.202   7.281 -0.2684 -0.6256  0.2373
   30CHL1   H3' 2150   3.964   3.248   7.214  1.1244  0.9100  2.2737
   30CHL1    C4 2151   3.912   3.423   7.379  0.3575 -0.3242 -0.1632
   30CHL1   H4A 2152   3.972   3.454   7.290 -0.4849 -1.7239 -1.2379
   30CHL1   H4B 2153   3.805   3.429   7.349 -0.4379 -1.5592  2.3515
   30CHL1    C5 2154   3.956   3.513   7.493 -0.0653  0.3174 -0.0533
   30CHL1    C6 2155   3.874   3.602   7.546 -0.0654 -0.1991 -0.6848
   30CHL1    H6 2156   3.773   3.616   7.505 -0.4877 -1.6601 -0.1768
   30CHL1    C7 2157   3.904   3.697   7.654  0.0563 -0.3351 -0.4009
   30CHL1   H7A 2158   3.882   3.803   7.630  2.2224  0.3902  0.6467
   30CHL1   H7B 2159   3.846   3.685   7.748 -2.0924  0.1173 -1.6410
   30CHL1    C8 2160   4.057   3.707   7.676  0.4251 -0.1426  0.2025
   30CHL1    H8 2161   4.101   3.769   7.595  0.2415  1.5482  1.3867
   30CHL1   C14 2162   4.098   3.766   7.810  0.0237 -0.7710 -0.1293
   30CHL1   H14 2163   4.058   3.695   7.886 -2.1562  0.7016  0.1271
   30CHL1   C15 2164   4.023   3.898   7.857 -0.0150  0.7110  0.2412
   30CHL1  H15A 2165   4.007   3.970   7.774  1.6527 -0.2908 -0.9924
   30CHL1  H15B 2166   3.920   3.870   7.888  0.6009 -4.6967 -1.8945
   30CHL1   C16 2167   4.117   3.957   7.958  0.7560 -0.1868  0.0943
   30CHL1  H16A 2168   4.139   4.061   7.926  0.7032 -0.7120 -1.6664
   30CHL1  H16B 2169   4.065   3.966   8.056 -2.8494 -0.7466 -1.6957
   30CHL1   C17 2170   4.240   3.866   7.967 -0.2839  0.2135  0.1629
   30CHL1   H17 2171   4.212   3.778   8.028 -4.4242 -0.2560 -2.2853
   30CHL1   C13 2172   4.250   3.799   7.838  0.3470  0.5105  0.0454
   30CHL1   C18 2173   4.303   3.886   7.721 -0.2293 -0.2461  0.1056
   30CHL1  H18A 2174   4.310   3.838   7.621 -2.1663  0.0924 -0.1975
   30CHL1  H18B 2175   4.230   3.969   7.729 -0.0011  0.0043 -0.4101
   30CHL1  H18C 2176   4.401   3.932   7.747 -0.7634  0.1906  1.3970
   30CHL1   C12 2177   4.320   3.660   7.845  0.1678  0.1988  0.3216
   30CHL1  H12A 2178   4.427   3.687   7.833  0.5024 -2.1130 -2.5083
   30CHL1  H12B 2179   4.307   3.606   7.942 -0.6808 -0.5418 -0.1948
   30CHL1   C11 2180   4.276   3.576   7.715  0.4528 -0.7557 -0.0122
   30CHL1  H11A 2181   4.327   3.641   7.640 -0.5027  1.2447  1.0145
   30CHL1  H11B 2182   4.331   3.481   7.730 -2.2696 -2.3279  0.2408
   30CHL1    C9 2183   4.125   3.568   7.679  0.5343 -0.3203 -0.1444
   30CHL1    H9 2184   4.077   3.499   7.751  0.1373 -0.4057 -0.4880
   30CHL1   C10 2185   4.099   3.492   7.547  0.6058  0.0377 -0.4950
   30CHL1   C19 2186   4.188   3.547   7.433 -0.0415 -0.5879 -0.3717
   30CHL1  H19A 2187   4.164   3.651   7.403 -1.1353 -0.2631  1.5534
   30CHL1  H19B 2188   4.292   3.525   7.466 -1.0480 -0.5370  2.9996
   30CHL1  H19C 2189   4.186   3.484   7.342 -0.2993 -0.7938 -0.2246
   30CHL1    C1 2190   4.100   3.335   7.577 -0.3439 -0.1899 -0.2303
   30CHL1   H1A 2191   4.200   3.301   7.613 -1.5433 -1.8655  1.6630
   30CHL1   H1B 2192   4.030   3.305   7.658 -0.0571  1.7374  0.7627
   30CHL1    C2 2193   4.070   3.245   7.452  0.0851 -0.0435 -0.8508
   30CHL1   H2A 2194   4.089   3.137   7.470 -1.2118 -0.1588 -0.0668
   30CHL1   H2B 2195   4.151   3.279   7.384  0.3726  2.7847  0.8456
   30CHL1   C20 2196   4.356   3.925   8.044 -0.4904 -0.8103  0.3357
   30CHL1   H20 2197   4.364   4.029   8.005  2.9476 -0.2483  2.3695
   30CHL1   C21 2198   4.494   3.859   8.035 -0.0320 -0.1973  0.3262
   30CHL1  H21A 2199   4.530   3.861   7.930 -0.0496  0.9386  0.3434
   30CHL1  H21B 2200   4.489   3.754   8.073 -0.6365  0.0111  0.8361
   30CHL1  H21C 2201   4.564   3.922   8.095  1.9659 -2.6399  0.6690
   30CHL1   C22 2202   4.317   3.940   8.192  0.3175  0.1250 -0.8807
   30CHL1  H22A 2203   4.215   3.984   8.189  1.2100  2.5801  2.1568
   30CHL1  H22B 2204   4.315   3.839   8.239 -0.4317  0.8428  0.6826
   30CHL1   C23 2205   4.405   4.027   8.279 -0.2320  0.9684  0.2947
   30CHL1  H23A 2206   4.350   4.042   8.374  1.2543  2.1683  0.9906
   30CHL1  H23B 2207   4.503   3.979   8.300 -0.3856 -0.4325 -1.9845
   30CHL1   C24 2208   4.428   4.165   8.217  0.6279 -1.1768  0.2558
   30CHL1  H24A 2209   4.489   4.162   8.125 -1.4244  0.0857 -1.1964
   30CHL1  H24B 2210   4.333   4.221   8.202  0.4625 -1.4146  0.4133
   30CHL1   C25 2211   4.493   4.254   8.321  0.0766  0.2395 -0.3368
   30CHL1   H25 2212   4.596   4.223   8.350  0.2673  1.8397  0.7849
   30CHL1   C26 2213   4.510   4.397   8.269  0.4576 -0.0528  0.6679
   30CHL1  H26A 2214   4.577   4.454   8.337  1.7429  1.4027 -1.7794
   30CHL1  H26B 2215   4.561   4.388   8.171  0.4768 -1.2815  0.7835
   30CHL1  H26C 2216   4.417   4.456   8.259  0.8451  0.7615  1.7540
   30CHL1   C27 2217   4.414   4.263   8.456 -0.5322 -0.1483  0.2036
   30CHL1  H27A 2218   4.421   4.365   8.498  0.5971  0.2097 -0.8163
   30CHL1  H27B 2219   4.309   4.239   8.428 -0.3113  0.1350 -0.9077
   30CHL1  H27C 2220   4.451   4.183   8.524  1.0376  2.3166  2.3353
   31CHL1    C3 2221   3.466   5.050   6.619 -0.2630  0.0717 -0.0790
   31CHL1    H3 2222   3.520   5.145   6.640  0.3774 -0.3104  0.0154
   31CHL1    O3 2223   3.438   5.036   6.478  0.1788  0.3464 -0.0261
   31CHL1   H3' 2224   3.390   4.953   6.475 -0.1643  0.6000 -2.4168
   31CHL1    C4 2225   3.544   4.930   6.679 -0.3192  0.2854 -0.4405
   31CHL1   H4A 2226   3.495   4.836   6.648 -0.2229  0.0053  0.2376
   31CHL1   H4B 2227   3.647   4.923   6.638 -0.1498 -0.2976  0.0779
   31CHL1    C5 2228   3.553   4.936   6.828 -0.0436 -0.0238  0.4153
   31CHL1    C6 2229   3.671   4.931   6.893  0.0602  0.0914 -0.1495
   31CHL1    H6 2230   3.767   4.922   6.839 -0.5556 -1.3692 -1.0553
   31CHL1    C7 2231   3.682   4.926   7.045 -0.9720  0.6313  0.5044
   31CHL1   H7A 2232   3.767   4.855   7.056 -1.4690 -0.2883 -1.4290
   31CHL1   H7B 2233   3.714   5.026   7.080 -0.5918  0.7500 -0.1690
   31CHL1    C8 2234   3.555   4.883   7.116  0.4943 -0.4374  0.4240
   31CHL1    H8 2235   3.541   4.774   7.099  0.6609 -0.5370  0.9137
   31CHL1   C14 2236   3.560   4.915   7.267  0.4477  0.6183  0.5630
   31CHL1   H14 2237   3.576   5.024   7.276 -2.2797  0.9203  2.2295
   31CHL1   C15 2238   3.681   4.859   7.342 -0.8226 -0.5656 -0.5987
   31CHL1  H15A 2239   3.701   4.757   7.303  0.5533  0.0931 -1.6701
   31CHL1  H15B 2240   3.769   4.927   7.336 -0.7254 -0.7618 -1.5340
   31CHL1   C16 2241   3.644   4.857   7.488 -0.1370 -0.5983 -0.0299
   31CHL1  H16A 2242   3.657   4.756   7.533 -3.2468 -1.1321 -0.2091
   31CHL1  H16B 2243   3.700   4.923   7.557  1.2075  0.2396 -1.8790
   31CHL1   C17 2244   3.488   4.895   7.489  0.1207  0.2728 -0.0553
   31CHL1   H17 2245   3.493   5.006   7.497  2.8710  0.2197 -0.4053
   31CHL1   C13 2246   3.433   4.875   7.343  0.3915  0.4034  0.1315
   31CHL1   C18 2247   3.406   4.722   7.312  0.3531 -0.1371 -0.1449
   31CHL1  H18A 2248   3.379   4.699   7.207  0.6313  4.0085 -1.2084
   31CHL1  H18B 2249   3.501   4.669   7.332 -0.0660 -1.6250 -1.9467
   31CHL1  H18C 2250   3.318   4.687   7.370  0.3379 -2.2161 -1.3625
   31CHL1   C12 2251   3.320   4.972   7.287  0.4799  0.3933  0.2583
   31CHL1  H12A 2252   3.225   4.947   7.338 -0.4190 -1.6235 -2.2985
   31CHL1  H12B 2253   3.344   5.078   7.310  2.0958  0.1151 -0.0772
   31CHL1   C11 2254   3.301   4.952   7.138 -0.1387  0.1464  0.2707
   31CHL1  H11A 2255   3.256   4.852   7.123  1.1364 -0.3391 -0.3743
   31CHL1  H11B 2256   3.227   5.028   7.106 -1.4994 -0.1516  2.6220
   31CHL1    C9 2257   3.437   4.961   7.052  0.6713  0.1571  0.8653
   31CHL1    H9 2258   3.476   5.065   7.064  0.1940  0.5072 -0.5073
   31CHL1   C10 2259   3.421   4.939   6.896  0.0917 -0.3016 -0.0419
   31CHL1   C19 2260   3.350   4.805   6.884  0.1408  0.1558 -0.7585
   31CHL1  H19A 2261   3.379   4.724   6.954 -0.9090  0.7351  0.3559
   31CHL1  H19B 2262   3.245   4.824   6.915  0.4873  2.8440 -1.0875
   31CHL1  H19C 2263   3.360   4.764   6.781 -2.3738  0.3003 -1.0839
   31CHL1    C1 2264   3.337   5.057   6.831  0.4749 -0.1937  0.1575
   31CHL1   H1A 2265   3.237   5.050   6.879  0.2961  0.6805 -0.0804
   31CHL1   H1B 2266   3.384   5.155   6.853 -0.3925  0.3340 -0.3099
   31CHL1    C2 2267   3.324   5.045   6.684  0.1647  0.4026 -0.1235
   31CHL1   H2A 2268   3.270   5.138   6.656 -1.6602 -1.0197 -1.4841
   31CHL1   H2B 2269   3.272   4.955   6.643  3.3840 -0.5904 -2.1721
   31CHL1   C20 2270   3.411   4.826   7.603 -0.1803  0.1149  0.4813
   31CHL1   H20 2271   3.421   4.715   7.597 -1.3249  0.0284  0.0854
   31CHL1   C21 2272   3.257   4.846   7.593  0.2266 -0.3790 -0.0151
   31CHL1  H21A 2273   3.238   4.955   7.589  2.7781  0.0751 -0.6829
   31CHL1  H21B 2274   3.200   4.811   7.682 -1.8969  1.6815 -0.5171
   31CHL1  H21C 2275   3.205   4.812   7.501 -0.6995  2.2115 -0.4780
   31CHL1   C22 2276   3.463   4.870   7.745 -0.1938 -0.4919  0.7500
   31CHL1  H22A 2277   3.573   4.853   7.748 -0.0147  0.1265 -1.7418
   31CHL1  H22B 2278   3.439   4.978   7.752 -0.1774 -0.5084  1.0793
   31CHL1   C23 2279   3.398   4.795   7.862  0.4959  0.1692 -0.0726
   31CHL1  H23A 2280   3.288   4.814   7.861  0.3422 -0.6610  0.3901
   31CHL1  H23B 2281   3.417   4.686   7.864  1.9867  0.3999 -1.0788
   31CHL1   C24 2282   3.452   4.835   7.999 -0.0562  0.2296 -0.0651
   31CHL1  H24A 2283   3.563   4.837   8.003 -0.1435  1.7118  2.2162
   31CHL1  H24B 2284   3.417   4.938   8.022  1.1572  1.0035 -1.5974
   31CHL1   C25 2285   3.393   4.744   8.117  0.1051  0.5276 -0.5549
   31CHL1   H25 2286   3.442   4.646   8.098 -1.0516  0.0616 -1.1606
   31CHL1   C26 2287   3.459   4.794   8.243  0.1015 -0.8445  0.8022
   31CHL1  H26A 2288   3.425   4.719   8.317 -0.4822  0.1636  1.5734
   31CHL1  H26B 2289   3.570   4.790   8.234 -0.0564 -2.6859 -0.6508
   31CHL1  H26C 2290   3.430   4.898   8.269 -1.3609 -1.2388  0.7797
   31CHL1   C27 2291   3.245   4.731   8.127  0.0944  0.2857 -0.6724
   31CHL1  H27A 2292   3.209   4.668   8.211  1.5207  1.3417  0.7652
   31CHL1  H27B 2293   3.188   4.689   8.042 -1.7216 -1.3694  1.3103
   31CHL1  H27C 2294   3.197   4.828   8.154  0.2874  0.5170 -1.1486
   32CHL1    C3 2295   4.341   3.098   6.917  0.7262  0.6938  0.0991
   32CHL1    H3 2296   4.245   3.149   6.940 -0.7090 -1.8802  0.0569
   32CHL1    O3 2297   4.360   3.116   6.779  0.1046 -0.4901 -0.2652
   32CHL1   H3' 2298   4.456   3.115   6.774  0.2452 -1.7784  1.9532
   32CHL1    C4 2299   4.459   3.175   6.990  0.1672 -0.5678 -0.1484
   32CHL1   H4A 2300   4.556   3.135   6.953  0.7749 -0.9103  1.7474
   32CHL1   H4B 2301   4.462   3.283   6.964 -0.6457  0.0906  2.2988
   32CHL1    C5 2302   4.456   3.141   7.140 -0.2284 -0.5842 -0.2849
   32CHL1    C6 2303   4.470   3.240   7.233 -0.1189  0.0508  0.4925
   32CHL1    H6 2304   4.491   3.340   7.192  0.8697 -0.4808 -0.3163
   32CHL1    C7 2305   4.462   3.222   7.384  0.4546 -0.2649  0.0038
   32CHL1   H7A 2306   4.547   3.273   7.435 -1.1387 -0.8856  3.4242
   32CHL1   H7B 2307   4.365   3.259   7.423  0.0531 -2.1471  0.8454
   32CHL1    C8 2308   4.466   3.072   7.420 -0.0678  0.3818  0.1247
   32CHL1    H8 2309   4.570   3.034   7.407 -0.4679  0.3995 -3.6635
   32CHL1   C14 2310   4.425   3.052   7.567 -0.1477 -0.8494 -0.2620
   32CHL1   H14 2311   4.325   3.098   7.571  0.6558  0.8193  1.4850
   32CHL1   C15 2312   4.491   3.141   7.678 -0.6584  0.3772  0.3686
   32CHL1  H15A 2313   4.601   3.137   7.667 -0.6721 -0.8237  0.6030
   32CHL1  H15B 2314   4.459   3.247   7.665 -0.4428  0.4839  0.7263
   32CHL1   C16 2315   4.450   3.078   7.805 -0.0744  0.4329 -0.1720
   32CHL1  H16A 2316   4.528   3.080   7.883 -1.5493  0.8278  1.3240
   32CHL1  H16B 2317   4.375   3.137   7.862 -0.0915 -0.0689  0.3287
   32CHL1   C17 2318   4.399   2.937   7.771 -0.4280 -0.1822  0.2871
   32CHL1   H17 2319   4.291   2.953   7.788 -0.2214  2.7193 -0.7131
   32CHL1   C13 2320   4.427   2.912   7.615  0.3866 -0.0850  0.6145
   32CHL1   C18 2321   4.567   2.845   7.592  0.0796  0.0629 -0.1174
   32CHL1  H18A 2322   4.633   2.901   7.662 -1.8352  2.3786 -0.1339
   32CHL1  H18B 2323   4.571   2.740   7.629  0.2398 -0.9064 -2.7795
   32CHL1  H18C 2324   4.599   2.838   7.486  0.2130  1.1610 -0.1533
   32CHL1   C12 2325   4.317   2.840   7.532 -0.4447  0.4489  0.0184
   32CHL1  H12A 2326   4.302   2.733   7.559  0.3594  0.6043  1.1213
   32CHL1  H12B 2327   4.224   2.889   7.569  0.5834  0.7848  2.3016
   32CHL1   C11 2328   4.341   2.858   7.380  0.5174  0.5517 -0.0851
   32CHL1  H11A 2329   4.419   2.788   7.342  0.1587  1.7959 -3.2636
   32CHL1  H11B 2330   4.242   2.826   7.339  0.7407  1.6274 -1.4822
   32CHL1    C9 2331   4.373   2.995   7.327  0.6269  0.4903 -0.3881
   32CHL1    H9 2332   4.275   3.047   7.323 -1.0390 -2.3994  1.1279
   32CHL1   C10 2333   4.422   2.992   7.183  0.4650 -0.0526 -0.0781
   32CHL1   C19 2334   4.550   2.900   7.174  0.2617  0.3780  1.1363
   32CHL1  H19A 2335   4.604   2.924   7.080 -0.7035  4.0294  1.4454
   32CHL1  H19B 2336   4.620   2.916   7.258  0.7850  2.0751  0.4057
   32CHL1  H19C 2337   4.518   2.794   7.167  3.3453 -0.5939  0.8694
   32CHL1    C1 2338   4.311   2.934   7.101  0.4517  0.2276 -0.1230
   32CHL1   H1A 2339   4.306   2.825   7.121 -1.9344 -0.1486 -2.4514
   32CHL1   H1B 2340   4.217   2.984   7.133  0.1288 -0.1975 -0.4130
   32CHL1    C2 2341   4.328   2.955   6.948  0.5568  0.5811  0.3512
   32CHL1   H2A 2342   4.239   2.912   6.899  1.7732  0.5077 -1.8588
   32CHL1   H2B 2343   4.422   2.913   6.906  0.7350  0.4319  0.8946
   32CHL1   C20 2344   4.454   2.829   7.863  0.2687  0.6477 -0.2128
   32CHL1   H20 2345   4.562   2.811   7.849  0.7610  2.5062  0.9864
   32CHL1   C21 2346   4.389   2.692   7.834 -0.3696  0.2293  0.3634
   32CHL1  H21A 2347   4.396   2.656   7.729 -1.1684  0.2464  0.2995
   32CHL1  H21B 2348   4.278   2.695   7.842 -0.5502  1.2794 -2.0383
   32CHL1  H21C 2349   4.423   2.606   7.895 -1.7186 -0.5155  0.0856
   32CHL1   C22 2350   4.437   2.862   8.015  0.8462  0.7829 -0.0511
   32CHL1  H22A 2351   4.480   2.961   8.044 -0.1052  1.0372  0.5046
   32CHL1  H22B 2352   4.334   2.836   8.046  1.1752  0.7531  1.0315
   32CHL1   C23 2353   4.523   2.759   8.096 -0.3790 -0.0019 -0.8713
   32CHL1  H23A 2354   4.508   2.651   8.076 -0.9376 -0.1905  0.4684
   32CHL1  H23B 2355   4.630   2.775   8.070 -0.4650  0.3697 -1.0011
   32CHL1   C24 2356   4.509   2.775   8.248 -0.2796 -0.6518 -0.1911
   32CHL1  H24A 2357   4.548   2.875   8.278  0.7222 -1.2750  0.5637
   32CHL1  H24B 2358   4.401   2.770   8.274  0.4712  0.1548  3.3858
   32CHL1   C25 2359   4.588   2.673   8.330  0.2855  0.2438 -0.2729
   32CHL1   H25 2360   4.543   2.573   8.311  1.9279 -0.8601  1.5193
   32CHL1   C26 2361   4.731   2.678   8.295 -0.1003  0.1564 -0.7299
   32CHL1  H26A 2362   4.778   2.778   8.300  0.8560 -0.2825 -0.8083
   32CHL1  H26B 2363   4.784   2.616   8.371  1.6260  3.0019  0.4455
   32CHL1  H26C 2364   4.745   2.640   8.192  1.3765 -2.0153  0.2329
   32CHL1   C27 2365   4.559   2.697   8.482  0.1072  0.0525 -0.7945
   32CHL1  H27A 2366   4.615   2.785   8.519 -0.8911  0.2192  0.3512
   32CHL1  H27B 2367   4.448   2.701   8.488 -0.0550 -3.2363 -0.5143
   32CHL1  H27C 2368   4.601   2.607   8.532  0.8291  0.6568 -0.3061
   33CHL1    C3 2369   5.484   3.185   6.809 -0.5701  0.1039 -0.7699
   33CHL1    H3 2370   5.557   3.263   6.841  0.5193 -0.6362 -1.4164
   33CHL1    O3 2371   5.496   3.152   6.674  0.5225 -0.6109  0.2248
   33CHL1   H3' 2372   5.436   3.215   6.632  0.8384 -0.7561 -0.4464
   33CHL1    C4 2373   5.525   3.056   6.894  0.3554 -0.0619  0.1848
   33CHL1   H4A 2374   5.476   2.961   6.863 -0.9478  0.6145  0.1235
   33CHL1   H4B 2375   5.627   3.034   6.856 -0.7270 -0.2153 -2.8089
   33CHL1    C5 2376   5.523   3.074   7.047 -0.5616  0.5124  0.2719
   33CHL1    C6 2377   5.627   3.051   7.127 -0.0153 -0.4756 -0.1830
   33CHL1    H6 2378   5.720   3.005   7.090 -0.7266 -2.2275  0.1805
   33CHL1    C7 2379   5.626   3.064   7.281 -1.0446  0.3544 -0.1750
   33CHL1   H7A 2380   5.651   2.963   7.321 -0.4708  0.3878 -0.4367
   33CHL1   H7B 2381   5.705   3.136   7.311  0.3559 -1.1934 -0.0026
   33CHL1    C8 2382   5.488   3.101   7.336 -0.7272  0.2905 -0.0443
   33CHL1    H8 2383   5.421   3.013   7.342 -0.2437 -0.0967 -0.2511
   33CHL1   C14 2384   5.501   3.164   7.478  0.1391  0.0432 -0.2529
   33CHL1   H14 2385   5.558   3.257   7.456  0.0759  0.8460  2.7292
   33CHL1   C15 2386   5.592   3.089   7.575  0.2966  0.3212  0.2461
   33CHL1  H15A 2387   5.541   2.991   7.584 -0.0477  0.5235  0.4882
   33CHL1  H15B 2388   5.700   3.073   7.553 -0.0754 -0.0214 -1.4258
   33CHL1   C16 2389   5.567   3.173   7.705 -0.1706 -0.7281  0.0546
   33CHL1  H16A 2390   5.564   3.113   7.798  1.0073  3.5574  3.0169
   33CHL1  H16B 2391   5.656   3.240   7.712  0.3449 -0.9657 -3.3139
   33CHL1   C17 2392   5.438   3.265   7.676  0.9994 -0.5189  0.0573
   33CHL1   H17 2393   5.469   3.369   7.653 -2.3221  0.0327 -2.2369
   33CHL1   C13 2394   5.373   3.205   7.550  0.1300  0.0541  0.1340
   33CHL1   C18 2395   5.283   3.085   7.571  0.4799 -0.4511  0.4709
   33CHL1  H18A 2396   5.252   3.036   7.476  1.1449 -0.7745  0.4155
   33CHL1  H18B 2397   5.333   3.000   7.622  1.9790  0.3359  0.3225
   33CHL1  H18C 2398   5.195   3.118   7.630  0.3015 -1.5445  0.8454
   33CHL1   C12 2399   5.299   3.307   7.453 -0.1355  0.5681 -0.6498
   33CHL1  H12A 2400   5.204   3.329   7.506 -0.1080  0.0757 -0.3974
   33CHL1  H12B 2401   5.358   3.400   7.439  0.1005  0.7861  1.6896
   33CHL1   C11 2402   5.270   3.241   7.314  0.2491  0.2205 -0.3326
   33CHL1  H11A 2403   5.195   3.159   7.321  0.3741  0.2992  2.2019
   33CHL1  H11B 2404   5.215   3.305   7.241  0.1641  1.9271  1.2092
   33CHL1    C9 2405   5.407   3.190   7.248  0.0663 -0.0423  0.0875
   33CHL1    H9 2406   5.459   3.288   7.235  0.4241  0.0592  2.0295
   33CHL1   C10 2407   5.391   3.139   7.099 -0.6631 -0.4124 -0.2240
   33CHL1   C19 2408   5.276   3.033   7.084  0.7664 -0.3219  0.0668
   33CHL1  H19A 2409   5.286   2.951   7.158 -2.0430  0.4163  1.2857
   33CHL1  H19B 2410   5.181   3.088   7.097  0.3126 -1.3098  0.9368
   33CHL1  H19C 2411   5.267   2.986   6.984 -0.4263  0.5923 -0.2628
   33CHL1    C1 2412   5.359   3.265   7.008  0.1955  0.4888 -0.1713
   33CHL1   H1A 2413   5.257   3.296   7.041  0.0535  0.9601 -1.0300
   33CHL1   H1B 2414   5.428   3.349   7.033  1.2164 -0.8152  1.4771
   33CHL1    C2 2415   5.348   3.233   6.859  0.3644  0.6075 -0.2987
   33CHL1   H2A 2416   5.323   3.327   6.807 -2.0896 -0.9557 -2.0672
   33CHL1   H2B 2417   5.271   3.157   6.832 -0.4084  2.4405 -3.4799
   33CHL1   C20 2418   5.353   3.280   7.804  0.1787 -0.2215  0.2953
   33CHL1   H20 2419   5.321   3.178   7.835  1.9195 -0.3702  1.6589
   33CHL1   C21 2420   5.223   3.354   7.761 -0.1900  0.4326 -0.1196
   33CHL1  H21A 2421   5.162   3.292   7.692 -1.3081  1.6694 -0.2627
   33CHL1  H21B 2422   5.256   3.449   7.714 -1.2501  0.6725 -0.3892
   33CHL1  H21C 2423   5.151   3.376   7.842  0.0285  2.3699 -0.4285
   33CHL1   C22 2424   5.433   3.356   7.912 -0.9555 -0.4098 -1.4021
   33CHL1  H22A 2425   5.529   3.304   7.934 -0.0275  1.7861 -0.0712
   33CHL1  H22B 2426   5.446   3.459   7.873  0.2110  0.0602  0.1841
   33CHL1   C23 2427   5.363   3.342   8.049 -0.1102 -0.3524  0.0979
   33CHL1  H23A 2428   5.434   3.392   8.119 -0.7420  0.5451  0.1041
   33CHL1  H23B 2429   5.275   3.408   8.056 -0.0210  0.2278 -3.4486
   33CHL1   C24 2430   5.327   3.206   8.099 -0.4450  0.4475 -0.9776
   33CHL1  H24A 2431   5.233   3.170   8.052 -1.3047 -1.1127  1.7791
   33CHL1  H24B 2432   5.413   3.140   8.074 -0.9328  0.1594 -1.9096
   33CHL1   C25 2433   5.316   3.199   8.253  0.0988  0.6983  0.2806
   33CHL1   H25 2434   5.235   3.265   8.290 -2.9888 -2.9240  0.3020
   33CHL1   C26 2435   5.270   3.063   8.306  0.7838 -0.6960 -0.7360
   33CHL1  H26A 2436   5.326   2.976   8.265  1.3940 -0.6302 -0.0469
   33CHL1  H26B 2437   5.278   3.059   8.416 -1.3929  1.1577 -0.4692
   33CHL1  H26C 2438   5.162   3.048   8.282  0.4522 -2.7343  1.9083
   33CHL1   C27 2439   5.449   3.231   8.320  0.1875 -0.0504 -0.3813
   33CHL1  H27A 2440   5.537   3.164   8.307  1.9568  1.4708  3.1788
   33CHL1  H27B 2441   5.477   3.333   8.288  0.6518 -0.0121  0.1471
   33CHL1  H27C 2442   5.437   3.239   8.430 -1.2784 -2.5597 -0.3035
   34CHL1    C3 2443   6.647   1.751   6.994 -0.4592 -0.2808 -0.5261
   34CHL1    H3 2444   6.728   1.679   7.015  1.5779  2.7234  2.5495
   34CHL1    O3 2445   6.603   1.732   6.861  0.1308 -0.2035 -0.3582
   34CHL1   H3' 2446   6.534   1.799   6.863  0.6544  0.3048  0.9662
   34CHL1    C4 2447   6.532   1.721   7.093 -0.2458  0.6530 -0.9331
   34CHL1   H4A 2448   6.438   1.763   7.053  0.0324  1.3716 -0.8373
   34CHL1   H4B 2449   6.519   1.610   7.092  0.8387  0.5146 -3.1219
   34CHL1    C5 2450   6.548   1.767   7.235 -0.2001  0.7768 -0.2888
   34CHL1    C6 2451   6.538   1.683   7.342  0.0895 -0.2431  0.9302
   34CHL1    H6 2452   6.512   1.577   7.325  0.2189  0.2327 -2.5821
   34CHL1    C7 2453   6.550   1.721   7.485  0.7559  0.0398 -0.8316
   34CHL1   H7A 2454   6.476   1.661   7.542  2.0809 -1.3270 -0.5070
   34CHL1   H7B 2455   6.648   1.677   7.512  0.3534  0.2551  0.9933
   34CHL1    C8 2456   6.551   1.874   7.509  0.3221  0.9134  0.3890
   34CHL1    H8 2457   6.443   1.898   7.500  0.6697  2.2242 -0.4599
   34CHL1   C14 2458   6.600   1.923   7.649 -0.4798  0.2912  0.2794
   34CHL1   H14 2459   6.709   1.903   7.648  0.1504  3.4661  1.2943
   34CHL1   C15 2460   6.547   1.857   7.784 -0.0741  0.6206  0.2455
   34CHL1  H15A 2461   6.438   1.833   7.780  0.2775 -1.0017  0.2054
   34CHL1  H15B 2462   6.601   1.761   7.799 -1.5496 -0.5253 -1.5899
   34CHL1   C16 2463   6.586   1.952   7.887  0.2535 -0.1065  0.1471
   34CHL1  H16A 2464   6.495   1.968   7.950 -1.2501  1.6992 -2.4059
   34CHL1  H16B 2465   6.667   1.913   7.952 -0.0004 -0.1344  0.4520
   34CHL1   C17 2466   6.629   2.085   7.817 -0.2231  0.1720  0.5079
   34CHL1   H17 2467   6.740   2.075   7.812 -0.3315 -1.4796  1.1338
   34CHL1   C13 2468   6.583   2.076   7.673  0.2923  0.5632  0.1656
   34CHL1   C18 2469   6.435   2.116   7.659  0.4727 -0.8797 -0.6703
   34CHL1  H18A 2470   6.368   2.057   7.726 -0.0538  1.4539  0.9000
   34CHL1  H18B 2471   6.421   2.221   7.692 -1.5167 -0.9049 -1.3514
   34CHL1  H18C 2472   6.381   2.093   7.564 -0.3630  2.1268 -0.9715
   34CHL1   C12 2473   6.675   2.146   7.574  0.1496 -0.2893  0.0255
   34CHL1  H12A 2474   6.665   2.256   7.589 -0.2753 -0.3173 -0.0368
   34CHL1  H12B 2475   6.780   2.110   7.582  0.4952  0.8585  0.8303
   34CHL1   C11 2476   6.635   2.105   7.431 -0.1895  0.0225 -1.1986
   34CHL1  H11A 2477   6.535   2.146   7.408 -0.0869  1.4995  0.9073
   34CHL1  H11B 2478   6.713   2.142   7.360 -0.2307  0.4732 -1.0109
   34CHL1    C9 2479   6.632   1.953   7.405  0.3970 -0.9043  0.6691
   34CHL1    H9 2480   6.737   1.920   7.415  0.9484  0.6061  0.0554
   34CHL1   C10 2481   6.591   1.915   7.256 -0.7416 -0.0513 -0.2920
   34CHL1   C19 2482   6.469   1.997   7.214  0.6503  0.0478 -0.0336
   34CHL1  H19A 2483   6.448   1.979   7.107  0.0864 -0.3337  0.1431
   34CHL1  H19B 2484   6.380   1.966   7.272  1.2511 -0.1084  0.8216
   34CHL1  H19C 2485   6.472   2.107   7.227  1.2111 -0.0991  1.1838
   34CHL1    C1 2486   6.713   1.949   7.157  0.4701 -0.7027  0.2720
   34CHL1   H1A 2487   6.728   2.058   7.166 -0.8860 -0.5609  1.0104
   34CHL1   H1B 2488   6.804   1.899   7.196  0.7405  0.2949  0.9279
   34CHL1    C2 2489   6.689   1.898   7.011  0.1176  0.0386  0.0446
   34CHL1   H2A 2490   6.787   1.895   6.958 -0.3312  0.2743 -0.8040
   34CHL1   H2B 2491   6.620   1.966   6.958  1.1985  0.5871 -0.6575
   34CHL1   C20 2492   6.590   2.214   7.895 -0.6649  0.2325  0.5005
   34CHL1   H20 2493   6.481   2.228   7.909 -0.7957  0.0530 -0.3207
   34CHL1   C21 2494   6.634   2.342   7.827 -0.3984 -0.5793 -0.0790
   34CHL1  H21A 2495   6.738   2.335   7.789 -1.1950 -4.3872 -1.8273
   34CHL1  H21B 2496   6.629   2.435   7.887 -0.3955  0.5669 -1.8178
   34CHL1  H21C 2497   6.574   2.371   7.738  0.4142 -0.3760 -0.5732
   34CHL1   C22 2498   6.644   2.207   8.037 -0.2389 -0.0025 -0.0359
   34CHL1  H22A 2499   6.654   2.105   8.079  3.1762  1.5245  3.2035
   34CHL1  H22B 2500   6.745   2.247   8.016 -0.9876  1.2937 -1.2528
   34CHL1   C23 2501   6.575   2.291   8.148 -0.5396 -0.0031  0.9213
   34CHL1  H23A 2502   6.554   2.394   8.109  1.3458  0.3756  0.8979
   34CHL1  H23B 2503   6.485   2.233   8.177 -0.5944 -0.9919 -1.1120
   34CHL1   C24 2504   6.647   2.322   8.277 -0.1228 -0.5183 -0.0693
   34CHL1  H24A 2505   6.577   2.361   8.354 -0.9349 -1.8617 -0.1165
   34CHL1  H24B 2506   6.694   2.230   8.317 -0.5382 -1.0666 -0.8368
   34CHL1   C25 2507   6.751   2.441   8.266  0.1896  0.2044  0.5906
   34CHL1   H25 2508   6.795   2.428   8.165 -0.9439  2.4846 -0.2285
   34CHL1   C26 2509   6.687   2.583   8.260  0.5426 -0.6144  0.7684
   34CHL1  H26A 2510   6.626   2.592   8.352 -0.7898  0.2576 -0.1932
   34CHL1  H26B 2511   6.763   2.664   8.266  0.5148 -0.5785  0.6365
   34CHL1  H26C 2512   6.625   2.607   8.171 -1.6800  0.3242  2.5150
   34CHL1   C27 2513   6.872   2.422   8.356 -0.3813 -0.4443 -0.6586
   34CHL1  H27A 2514   6.851   2.397   8.462  0.6449  0.4915 -0.2314
   34CHL1  H27B 2515   6.938   2.340   8.320  1.2280  0.7058 -0.3823
   34CHL1  H27C 2516   6.926   2.519   8.359 -0.2944 -0.4672 -1.4425
   35CHL1    C3 2517   2.992   2.948   7.299 -0.0817 -0.3013  0.8219
   35CHL1    H3 2518   2.942   3.047   7.303  0.9338  0.3073 -1.2982
   35CHL1    O3 2519   3.016   2.916   7.164  0.4808  0.4150 -0.6563
   35CHL1   H3' 2520   3.110   2.915   7.144  0.5378  3.5279 -0.7979
   35CHL1    C4 2521   3.128   2.955   7.380 -0.6171 -0.0543 -0.7192
   35CHL1   H4A 2522   3.173   2.854   7.382 -0.3360  0.0666 -0.9618
   35CHL1   H4B 2523   3.187   3.038   7.336 -2.2087  0.0681 -2.6857
   35CHL1    C5 2524   3.102   2.974   7.532  0.1674  0.4467  1.0285
   35CHL1    C6 2525   3.151   3.077   7.593 -0.0157 -0.4857  0.3598
   35CHL1    H6 2526   3.216   3.142   7.533 -0.0651 -1.1553 -0.4427
   35CHL1    C7 2527   3.136   3.112   7.736 -0.2537 -0.3944 -0.7681
   35CHL1   H7A 2528   3.240   3.134   7.770 -0.6765  1.7995 -0.8728
   35CHL1   H7B 2529   3.075   3.204   7.740 -0.4405 -0.5355 -0.3247
   35CHL1    C8 2530   3.076   2.993   7.817 -0.1262 -0.6512  0.2820
   35CHL1    H8 2531   3.158   2.920   7.834 -0.2751 -1.2235 -1.4173
   35CHL1   C14 2532   3.023   3.052   7.946 -0.1466 -0.3259 -0.5237
   35CHL1   H14 2533   2.941   3.122   7.916  0.0740  1.4217  2.7719
   35CHL1   C15 2534   3.110   3.139   8.038  0.0980  0.8444 -0.0147
   35CHL1  H15A 2535   3.209   3.093   8.056 -0.3887  0.4499  1.7046
   35CHL1  H15B 2536   3.123   3.244   8.002 -1.3040  0.7774 -0.7704
   35CHL1   C16 2537   3.044   3.128   8.177 -0.3633  0.4077 -0.5585
   35CHL1  H16A 2538   3.122   3.090   8.247  0.4209 -0.4678 -1.8867
   35CHL1  H16B 2539   3.008   3.226   8.215 -4.3761 -1.4741  0.7944
   35CHL1   C17 2540   2.923   3.037   8.160  0.1675  0.1370 -0.0804
   35CHL1   H17 2541   2.837   3.103   8.137  1.8551  1.9331 -1.3234
   35CHL1   C13 2542   2.952   2.950   8.033 -0.0302 -0.8664  0.1531
   35CHL1   C18 2543   3.056   2.838   8.069 -0.3198  0.0263  0.9459
   35CHL1  H18A 2544   3.090   2.780   7.981 -0.0245 -0.6600  1.5025
   35CHL1  H18B 2545   3.151   2.884   8.102  0.1371  2.0411 -2.8885
   35CHL1  H18C 2546   3.014   2.762   8.138 -1.4753 -0.0567  0.1619
   35CHL1   C12 2547   2.829   2.890   7.961 -0.1676 -0.3006 -0.3569
   35CHL1  H12A 2548   2.762   2.815   8.008 -0.5771  0.8816  0.9819
   35CHL1  H12B 2549   2.764   2.978   7.938  1.6599  1.0633 -0.3894
   35CHL1   C11 2550   2.878   2.835   7.828  0.8221 -0.0394 -0.1112
   35CHL1  H11A 2551   2.931   2.740   7.851 -1.7137 -1.3517  0.6362
   35CHL1  H11B 2552   2.783   2.802   7.780  1.1089 -1.3611  0.2145
   35CHL1    C9 2553   2.961   2.932   7.740 -0.1748  0.0308  0.0998
   35CHL1    H9 2554   2.888   3.012   7.717 -1.9414 -0.4112  3.8188
   35CHL1   C10 2555   3.003   2.877   7.603  0.0547 -0.2236  0.2491
   35CHL1   C19 2556   3.070   2.743   7.618  0.3828  0.5403  0.0155
   35CHL1  H19A 2557   3.163   2.752   7.679  0.2436  0.2804  0.2696
   35CHL1  H19B 2558   3.003   2.665   7.659 -2.5053  2.6505 -0.5492
   35CHL1  H19C 2559   3.097   2.713   7.514 -1.6981  2.0028 -0.9786
   35CHL1    C1 2560   2.882   2.869   7.513  0.2083  0.1189 -0.5950
   35CHL1   H1A 2561   2.805   2.796   7.545  1.1698 -0.1747  1.1242
   35CHL1   H1B 2562   2.832   2.968   7.517  2.7335  1.3582  1.4308
   35CHL1    C2 2563   2.904   2.839   7.366 -0.4468  0.0147  0.3180
   35CHL1   H2A 2564   2.811   2.826   7.307 -1.3952  2.6537  1.1886
   35CHL1   H2B 2565   2.962   2.746   7.349 -1.2867 -0.2949 -0.9178
   35CHL1   C20 2566   2.877   2.970   8.286  0.4232  0.2582 -0.1656
   35CHL1   H20 2567   2.954   2.890   8.302  0.3460  0.4618  1.2750
   35CHL1   C21 2568   2.736   2.907   8.263  0.8053 -0.4659  0.3432
   35CHL1  H21A 2569   2.669   2.973   8.205  1.8183  0.0301 -0.2900
   35CHL1  H21B 2570   2.693   2.903   8.365  1.4181  2.9997  0.8055
   35CHL1  H21C 2571   2.736   2.804   8.221  1.9408  0.2794 -1.5140
   35CHL1   C22 2572   2.876   3.067   8.416 -0.1177  0.5264 -0.1692
   35CHL1  H22A 2573   2.846   3.001   8.500 -0.1786 -0.8462 -1.2584
   35CHL1  H22B 2574   2.978   3.102   8.443  0.1155 -1.0193  1.0064
   35CHL1   C23 2575   2.780   3.184   8.410  0.0919  0.2713 -0.2258
   35CHL1  H23A 2576   2.811   3.263   8.338 -2.6137  1.5609 -0.0343
   35CHL1  H23B 2577   2.675   3.158   8.388  0.4575 -1.6171  0.1475
   35CHL1   C24 2578   2.773   3.238   8.555  0.4306 -0.2454  0.0412
   35CHL1  H24A 2579   2.773   3.151   8.625  0.1832 -0.4022 -0.1533
   35CHL1  H24B 2580   2.852   3.313   8.578  1.1667 -1.0800  0.2739
   35CHL1   C25 2581   2.644   3.310   8.576  0.2555 -0.6342  0.5846
   35CHL1   H25 2582   2.557   3.254   8.534  0.5498 -0.9848  0.4425
   35CHL1   C26 2583   2.609   3.332   8.720 -0.4652 -0.1084  0.1112
   35CHL1  H26A 2584   2.508   3.373   8.741 -0.0988  0.1127  1.4676
   35CHL1  H26B 2585   2.613   3.239   8.780  0.4556 -1.1792 -1.5752
   35CHL1  H26C 2586   2.675   3.412   8.761 -1.4526  0.3128  0.8870
   35CHL1   C27 2587   2.656   3.451   8.518 -0.2776  0.4086  0.3469
   35CHL1  H27A 2588   2.658   3.453   8.407  1.0590  2.3881  0.3925
   35CHL1  H27B 2589   2.736   3.507   8.571 -0.1776  0.5655  0.0340
   35CHL1  H27C 2590   2.556   3.497   8.535 -0.0902  0.9681 -0.0497
   36CHL1    C3 2591   3.816   2.232   7.166  0.4089  0.3992  0.1871
   36CHL1    H3 2592   3.926   2.229   7.184  0.2974  0.6176  0.9204
   36CHL1    O3 2593   3.805   2.230   7.024 -0.1146  0.4150 -0.3009
   36CHL1   H3' 2594   3.790   2.320   6.996  0.6566  0.6546  0.0405
   36CHL1    C4 2595   3.770   2.098   7.228 -0.2154  0.0351 -0.0535
   36CHL1   H4A 2596   3.675   2.077   7.174  0.1948 -1.6846 -0.1415
   36CHL1   H4B 2597   3.849   2.030   7.188  0.8690  0.8608  0.6461
   36CHL1    C5 2598   3.755   2.094   7.382  0.4374 -0.0604  0.0284
   36CHL1    C6 2599   3.813   1.990   7.450 -0.5088 -0.3267 -0.0350
   36CHL1    H6 2600   3.849   1.907   7.388 -0.1141  0.5551 -0.9960
   36CHL1    C7 2601   3.813   1.981   7.602  0.3997  0.7442  0.1480
   36CHL1   H7A 2602   3.777   1.880   7.631  0.3152  0.8001  0.2355
   36CHL1   H7B 2603   3.918   1.988   7.640  0.1494  0.6289  0.8774
   36CHL1    C8 2604   3.722   2.093   7.672 -0.0236  0.0013 -0.3577
   36CHL1    H8 2605   3.620   2.051   7.664  0.3796 -1.2951  1.1147
   36CHL1   C14 2606   3.758   2.109   7.816 -0.0014  0.0305  0.1556
   36CHL1   H14 2607   3.862   2.147   7.822 -0.2523  0.4929  1.7028
   36CHL1   C15 2608   3.755   1.980   7.898  0.0214 -0.0731  0.2479
   36CHL1  H15A 2609   3.655   1.932   7.887  1.0174 -1.8368 -1.3352
   36CHL1  H15B 2610   3.841   1.914   7.876  0.0959 -0.1147  0.6700
   36CHL1   C16 2611   3.763   2.032   8.041  0.6923  0.3924 -0.1985
   36CHL1  H16A 2612   3.678   1.984   8.094  1.6506 -0.9937  0.1185
   36CHL1  H16B 2613   3.852   2.016   8.105  0.7231 -0.4908 -0.4550
   36CHL1   C17 2614   3.740   2.185   8.030  0.1106 -0.1280 -0.1047
   36CHL1   H17 2615   3.842   2.229   8.021 -1.1125  2.6984 -0.8541
   36CHL1   C13 2616   3.679   2.213   7.891 -0.1168  0.1622 -0.5791
   36CHL1   C18 2617   3.534   2.187   7.897  0.0306 -0.0740  0.8444
   36CHL1  H18A 2618   3.474   2.275   7.929 -1.2816  0.5909 -3.1623
   36CHL1  H18B 2619   3.496   2.160   7.796  1.0962 -1.4836  0.8070
   36CHL1  H18C 2620   3.501   2.101   7.959 -0.7221  0.0749  0.6616
   36CHL1   C12 2621   3.706   2.350   7.835  0.3641 -0.3685 -0.3208
   36CHL1  H12A 2622   3.638   2.430   7.872  1.1981  0.1322  0.1510
   36CHL1  H12B 2623   3.810   2.387   7.850 -0.6669  2.6968 -0.2928
   36CHL1   C11 2624   3.674   2.359   7.681 -0.1429 -0.1774  0.5893
   36CHL1  H11A 2625   3.566   2.371   7.656 -0.1833 -3.8560 -1.3338
   36CHL1  H11B 2626   3.738   2.443   7.646 -1.3401  2.3170  4.0196
   36CHL1    C9 2627   3.738   2.229   7.606  0.4767 -0.5694 -0.1061
   36CHL1    H9 2628   3.846   2.256   7.606 -0.2301  2.5296 -1.4271
   36CHL1   C10 2629   3.702   2.224   7.451  0.0537  0.9436  0.2112
   36CHL1   C19 2630   3.551   2.211   7.432 -0.4198 -0.2585 -0.5792
   36CHL1  H19A 2631   3.530   2.192   7.325  0.0123 -1.2026 -0.4953
   36CHL1  H19B 2632   3.506   2.130   7.493 -0.4962  0.3050  0.1174
   36CHL1  H19C 2633   3.495   2.299   7.471 -1.6794 -2.0407  1.7920
   36CHL1    C1 2634   3.747   2.353   7.368  0.0286 -0.0478 -0.0050
   36CHL1   H1A 2635   3.688   2.437   7.411 -2.2237 -2.3334  1.5197
   36CHL1   H1B 2636   3.854   2.380   7.379 -0.1646  1.3870 -1.4833
   36CHL1    C2 2637   3.734   2.343   7.222 -0.7109  0.0322 -0.5546
   36CHL1   H2A 2638   3.777   2.430   7.168  0.3477  0.0848  0.3565
   36CHL1   H2B 2639   3.630   2.339   7.183 -0.7337 -0.7748 -0.4243
   36CHL1   C20 2640   3.671   2.244   8.151 -0.3750 -0.7609 -0.0782
   36CHL1   H20 2641   3.565   2.211   8.147 -0.4964 -0.6571  2.1048
   36CHL1   C21 2642   3.672   2.399   8.152 -0.5271  0.1506 -0.2478
   36CHL1  H21A 2643   3.619   2.429   8.245 -0.3705  0.2321 -0.1867
   36CHL1  H21B 2644   3.604   2.434   8.072  0.4929 -1.0934 -1.6919
   36CHL1  H21C 2645   3.768   2.453   8.141  0.8832 -2.2576 -0.2073
   36CHL1   C22 2646   3.721   2.192   8.287 -0.0596  0.1440  0.4150
   36CHL1  H22A 2647   3.644   2.209   8.365  0.2110  2.0844  0.2852
   36CHL1  H22B 2648   3.733   2.082   8.279  0.0167  0.0293  1.9666
   36CHL1   C23 2649   3.840   2.264   8.342 -0.0100 -0.0062  0.0396
   36CHL1  H23A 2650   3.924   2.243   8.273 -1.4270 -0.8425 -1.4825
   36CHL1  H23B 2651   3.834   2.375   8.343 -1.4884 -0.0731 -0.1919
   36CHL1   C24 2652   3.870   2.219   8.483 -0.7382  0.2790  0.1181
   36CHL1  H24A 2653   3.927   2.287   8.549  2.3008  1.5067 -3.5234
   36CHL1  H24B 2654   3.774   2.237   8.535 -2.1665 -0.3400 -2.2250
   36CHL1   C25 2655   3.929   2.083   8.490  0.0268 -0.1726  0.0322
   36CHL1   H25 2656   3.866   2.018   8.425  2.8940 -2.5473 -0.4758
   36CHL1   C26 2657   4.076   2.084   8.445 -0.6331  0.7206 -0.0128
   36CHL1  H26A 2658   4.087   2.165   8.369  0.6882  1.3458  0.8094
   36CHL1  H26B 2659   4.143   2.102   8.532  1.0043 -3.2456 -0.3436
   36CHL1  H26C 2660   4.112   1.990   8.399  0.7492  2.0268 -1.7229
   36CHL1   C27 2661   3.921   2.019   8.626 -0.3782  0.3409 -0.1306
   36CHL1  H27A 2662   3.953   1.912   8.625  0.3472  0.5619 -0.1353
   36CHL1  H27B 2663   3.981   2.061   8.710 -1.4417  1.5983  0.0205
   36CHL1  H27C 2664   3.816   2.019   8.663 -0.3095  1.1955  0.0695
   37CHL1    C3 2665   0.234   4.253   6.888  0.5076 -0.1281 -0.6790
   37CHL1    H3 2666   0.284   4.350   6.906 -0.0114 -0.2735  1.7455
   37CHL1    O3 2667   0.224   4.236   6.747  0.1758  0.6224 -0.7021
   37CHL1   H3' 2668   0.157   4.167   6.741  0.9806 -0.6358  3.4871
   37CHL1    C4 2669   0.314   4.135   6.948  0.1195  0.5642 -0.2278
   37CHL1   H4A 2670   0.266   4.036   6.933 -0.2628  0.9304 -1.4802
   37CHL1   H4B 2671   0.413   4.124   6.898 -0.3602  1.8312 -1.4958
   37CHL1    C5 2672   0.327   4.140   7.097 -0.6123 -0.1866  0.3752
   37CHL1    C6 2673   0.449   4.153   7.153  0.1470 -0.1494  0.0639
   37CHL1    H6 2674   0.541   4.163   7.094 -1.0762  1.5878 -1.5939
   37CHL1    C7 2675   0.462   4.162   7.305 -0.7432  0.4670 -0.2423
   37CHL1   H7A 2676   0.548   4.100   7.338 -0.6318  0.9276  0.3338
   37CHL1   H7B 2677   0.489   4.267   7.330 -2.7794  0.9745 -0.1226
   37CHL1    C8 2678   0.332   4.135   7.380  0.6698  0.1215 -0.0570
   37CHL1    H8 2679   0.320   4.025   7.386  2.6058 -0.2733 -2.4659
   37CHL1   C14 2680   0.350   4.185   7.525  0.1944 -0.1397  0.1456
   37CHL1   H14 2681   0.360   4.295   7.513 -0.7997  0.2033  2.2424
   37CHL1   C15 2682   0.472   4.139   7.608 -1.3018 -0.8939  0.1768
   37CHL1  H15A 2683   0.477   4.028   7.609  1.2124 -0.8184 -0.6354
   37CHL1  H15B 2684   0.566   4.176   7.561 -0.3778 -1.9072  1.2124
   37CHL1   C16 2685   0.450   4.199   7.746  0.6159  0.1015 -0.1219
   37CHL1  H16A 2686   0.492   4.133   7.824  0.4527  0.4113  0.2322
   37CHL1  H16B 2687   0.491   4.302   7.743 -1.7354  1.0436 -1.5131
   37CHL1   C17 2688   0.291   4.227   7.752  0.4688  0.1451  0.1896
   37CHL1   H17 2689   0.274   4.335   7.736  0.9713  0.1083 -0.6195
   37CHL1   C13 2690   0.239   4.167   7.624  0.5362 -1.5277 -0.4594
   37CHL1   C18 2691   0.208   4.019   7.641 -0.2959  0.7210 -0.9151
   37CHL1  H18A 2692   0.286   3.958   7.691  0.1123  1.0485 -1.1530
   37CHL1  H18B 2693   0.116   4.000   7.700 -0.0721  0.9046 -0.5078
   37CHL1  H18C 2694   0.199   3.965   7.545  1.8633  0.7382 -1.1618
   37CHL1   C12 2695   0.119   4.241   7.556 -0.2878 -0.9430 -0.2799
   37CHL1  H12A 2696   0.029   4.217   7.616  0.5477  0.4111  1.5579
   37CHL1  H12B 2697   0.139   4.351   7.560  0.5677 -1.1832  2.7695
   37CHL1   C11 2698   0.099   4.194   7.413 -0.3703  0.4975  0.1170
   37CHL1  H11A 2699   0.057   4.092   7.425 -0.7267  0.5952 -0.2965
   37CHL1  H11B 2700   0.009   4.228   7.356 -0.7394 -0.1889  0.2850
   37CHL1    C9 2701   0.220   4.199   7.318  0.2887 -0.0290  0.4575
   37CHL1    H9 2702   0.245   4.307   7.318 -1.0164  0.2878 -0.3423
   37CHL1   C10 2703   0.195   4.147   7.173  0.1553 -0.6358  0.4162
   37CHL1   C19 2704   0.116   4.014   7.168 -0.1475 -0.2818 -0.0997
   37CHL1  H19A 2705   0.014   4.040   7.202  0.5842  2.5832  0.0866
   37CHL1  H19B 2706   0.104   3.968   7.068  0.5297  0.3219 -0.4601
   37CHL1  H19C 2707   0.167   3.943   7.237  2.6429 -0.6106 -2.4150
   37CHL1    C1 2708   0.108   4.251   7.106  0.1182  0.8646 -0.0433
   37CHL1   H1A 2709   0.008   4.262   7.154  0.8565  1.0270  1.4837
   37CHL1   H1B 2710   0.153   4.349   7.131  1.2878 -0.1041  1.8097
   37CHL1    C2 2711   0.092   4.251   6.952 -0.7708  0.1251 -0.5432
   37CHL1   H2A 2712   0.034   4.340   6.922 -0.6457 -0.2267 -1.8316
   37CHL1   H2B 2713   0.035   4.161   6.921 -1.2110 -0.5354  2.0663
   37CHL1   C20 2714   0.230   4.203   7.888  0.5345  0.7580 -0.2155
   37CHL1   H20 2715   0.250   4.096   7.913 -0.6807  0.4665 -0.4549
   37CHL1   C21 2716   0.079   4.245   7.895  0.4803 -0.3478  0.0369
   37CHL1  H21A 2717   0.017   4.191   7.820 -1.9740 -1.8621  3.0601
   37CHL1  H21B 2718   0.071   4.356   7.891  0.0910 -0.4233 -1.6552
   37CHL1  H21C 2719   0.034   4.216   7.992  0.5281  2.2668  0.8846
   37CHL1   C22 2720   0.298   4.290   7.991 -0.7768  0.5922  0.0098
   37CHL1  H22A 2721   0.405   4.259   7.995 -1.2148 -1.0144 -0.3754
   37CHL1  H22B 2722   0.290   4.393   7.949 -0.1370 -0.0891 -1.8256
   37CHL1   C23 2723   0.245   4.294   8.142 -0.0100 -0.3228 -0.0761
   37CHL1  H23A 2724   0.319   4.359   8.193 -0.8238 -1.9253  3.2320
   37CHL1  H23B 2725   0.141   4.334   8.142  0.4606  0.9329 -0.7172
   37CHL1   C24 2726   0.249   4.158   8.207 -0.0369 -0.1212  0.1023
   37CHL1  H24A 2727   0.188   4.087   8.147 -0.1864 -2.0963  2.4934
   37CHL1  H24B 2728   0.351   4.114   8.202  0.0314 -0.0071  0.4592
   37CHL1   C25 2729   0.198   4.169   8.353 -0.6831  0.3857  0.0768
   37CHL1   H25 2730   0.088   4.185   8.351 -1.0068 -1.7171 -3.4604
   37CHL1   C26 2731   0.219   4.048   8.445 -0.5348 -0.1681  0.3110
   37CHL1  H26A 2732   0.140   4.038   8.522 -1.2591  0.1316 -0.3889
   37CHL1  H26B 2733   0.211   3.957   8.382  1.4842  1.0122 -1.7392
   37CHL1  H26C 2734   0.326   4.040   8.472 -0.3083 -0.0331 -0.5278
   37CHL1   C27 2735   0.265   4.292   8.422  0.1055  1.1016 -0.0916
   37CHL1  H27A 2736   0.375   4.289   8.407  0.1860  2.5189  0.0697
   37CHL1  H27B 2737   0.229   4.389   8.382  0.7704  1.7199  0.7808
   37CHL1  H27C 2738   0.242   4.294   8.531 -0.0747 -1.0981 -0.0834
   38CHL1    C3 2739   3.337   5.560   6.687  0.4065 -0.9505  0.4392
   38CHL1    H3 2740   3.403   5.648   6.700  0.0608 -0.3953 -1.3402
   38CHL1    O3 2741   3.316   5.548   6.548 -0.0198 -0.4253 -0.2049
   38CHL1   H3' 2742   3.245   5.606   6.519  2.7584  3.1240 -0.1967
   38CHL1    C4 2743   3.387   5.420   6.746  0.4150 -0.0515 -0.1460
   38CHL1   H4A 2744   3.305   5.349   6.725 -1.1294  1.2264  1.4593
   38CHL1   H4B 2745   3.479   5.387   6.693  1.2861  0.8296  0.7826
   38CHL1    C5 2746   3.405   5.424   6.900 -0.3674  0.5328 -0.0101
   38CHL1    C6 2747   3.522   5.388   6.963  0.7785  0.3883 -0.4868
   38CHL1    H6 2748   3.608   5.361   6.901  1.1066  1.7607 -0.6394
   38CHL1    C7 2749   3.536   5.389   7.113  0.7030  0.0947  0.4490
   38CHL1   H7A 2750   3.590   5.299   7.150 -2.1133 -2.5887 -1.7017
   38CHL1   H7B 2751   3.608   5.467   7.147  1.5492 -1.2141  1.7354
   38CHL1    C8 2752   3.401   5.398   7.193 -0.4645 -0.2802 -0.1386
   38CHL1    H8 2753   3.348   5.302   7.175  0.5409 -0.9911  0.6391
   38CHL1   C14 2754   3.420   5.427   7.341  0.0065 -0.0187 -0.1751
   38CHL1   H14 2755   3.482   5.518   7.355 -1.7065  0.8768  1.8495
   38CHL1   C15 2756   3.494   5.324   7.413  0.7689  0.6095  0.5324
   38CHL1  H15A 2757   3.440   5.228   7.396 -0.2186  1.1424  0.6444
   38CHL1  H15B 2758   3.604   5.308   7.408  0.6473 -0.3552  0.7629
   38CHL1   C16 2759   3.471   5.367   7.559 -0.2028  0.5271 -0.9427
   38CHL1  H16A 2760   3.443   5.274   7.614  0.3920  0.5498 -0.6039
   38CHL1  H16B 2761   3.550   5.417   7.618  0.2058  0.0789 -1.1094
   38CHL1   C17 2762   3.363   5.469   7.561 -0.0465 -0.7569  0.1723
   38CHL1   H17 2763   3.406   5.572   7.559 -0.9839 -0.3661 -0.2974
   38CHL1   C13 2764   3.292   5.457   7.419  0.5706 -0.0439 -0.1929
   38CHL1   C18 2765   3.185   5.342   7.418  0.0359  0.1112 -0.4841
   38CHL1  H18A 2766   3.096   5.378   7.475  0.0445  0.2072 -0.5297
   38CHL1  H18B 2767   3.155   5.314   7.315  1.1193  0.7169 -0.9661
   38CHL1  H18C 2768   3.229   5.256   7.473  0.4222  1.9990  2.2935
   38CHL1   C12 2769   3.233   5.578   7.357  0.5977  0.3777 -0.4826
   38CHL1  H12A 2770   3.133   5.601   7.400  1.7081 -0.4056  2.6542
   38CHL1  H12B 2771   3.297   5.668   7.356 -0.2288  0.9622 -3.0222
   38CHL1   C11 2772   3.202   5.556   7.209  0.9831 -0.4830  0.0367
   38CHL1  H11A 2773   3.121   5.482   7.189  0.6905 -0.2531  0.3587
   38CHL1  H11B 2774   3.173   5.654   7.164  0.9823 -0.2127  0.6229
   38CHL1    C9 2775   3.319   5.505   7.124  0.1671  0.2154 -0.2023
   38CHL1    H9 2776   3.387   5.592   7.136 -0.8846  0.8130  1.7114
   38CHL1   C10 2777   3.283   5.479   6.974 -0.3039 -0.2592 -0.4344
   38CHL1   C19 2778   3.169   5.362   6.962  1.2886 -0.6940  0.4169
   38CHL1  H19A 2779   3.200   5.261   6.995  0.4750 -1.1868 -0.3012
   38CHL1  H19B 2780   3.084   5.392   7.027  1.3156  1.3555 -0.4299
   38CHL1  H19C 2781   3.132   5.340   6.859 -1.6006 -0.0124  1.2647
   38CHL1    C1 2782   3.229   5.608   6.903  0.1126 -0.1998 -0.3023
   38CHL1   H1A 2783   3.127   5.634   6.941  0.4485  0.5420  0.1003
   38CHL1   H1B 2784   3.294   5.695   6.925  2.1932 -2.0033  0.8847
   38CHL1    C2 2785   3.205   5.602   6.751 -0.2550 -0.0301  0.2814
   38CHL1   H2A 2786   3.169   5.694   6.699  0.8361 -0.3637 -1.0587
   38CHL1   H2B 2787   3.131   5.523   6.729  0.6388 -1.6121  2.7061
   38CHL1   C20 2788   3.261   5.473   7.677 -0.1647 -0.3745 -0.8506
   38CHL1   H20 2789   3.193   5.386   7.677 -0.3424 -0.2387 -1.1138
   38CHL1   C21 2790   3.173   5.601   7.679  0.0569 -0.2445 -0.0331
   38CHL1  H21A 2791   3.248   5.682   7.673 -0.9394  0.6429 -0.6961
   38CHL1  H21B 2792   3.117   5.612   7.774  0.8955  1.4559  0.2721
   38CHL1  H21C 2793   3.093   5.601   7.601 -0.7221 -0.1955  0.7585
   38CHL1   C22 2794   3.328   5.467   7.817  0.1664 -0.4359 -0.2218
   38CHL1  H22A 2795   3.407   5.389   7.818 -0.5362 -1.1780 -1.7632
   38CHL1  H22B 2796   3.375   5.566   7.836  2.4442 -1.6534  0.6417
   38CHL1   C23 2797   3.233   5.413   7.924  0.2609 -0.7528  0.5699
   38CHL1  H23A 2798   3.145   5.479   7.940 -0.8135 -1.7472 -1.0416
   38CHL1  H23B 2799   3.185   5.326   7.874 -2.9722  1.8424 -1.0730
   38CHL1   C24 2800   3.304   5.378   8.048 -0.4691 -0.2656 -0.2735
   38CHL1  H24A 2801   3.386   5.308   8.021 -0.2929 -0.2676  0.2656
   38CHL1  H24B 2802   3.344   5.473   8.089  2.2579 -1.4214 -0.1740
   38CHL1   C25 2803   3.219   5.297   8.147  0.3677  0.0068 -0.7398
   38CHL1   H25 2804   3.187   5.202   8.098 -3.7992  1.7761 -1.7422
   38CHL1   C26 2805   3.304   5.264   8.266  0.1395 -0.6518  0.3856
   38CHL1  H26A 2806   3.393   5.209   8.231 -0.4155 -0.8378 -0.7558
   38CHL1  H26B 2807   3.320   5.353   8.330 -2.5508  0.7967 -0.8599
   38CHL1  H26C 2808   3.247   5.188   8.324  0.5951 -1.6821 -0.5041
   38CHL1   C27 2809   3.097   5.382   8.181  0.0815 -0.3585  1.2107
   38CHL1  H27A 2810   3.030   5.414   8.098 -0.4913 -0.5143  1.6060
   38CHL1  H27B 2811   3.040   5.340   8.267  0.9606  0.5891  2.2658
   38CHL1  H27C 2812   3.127   5.482   8.219  1.4174  0.7370 -2.4821
   39CHL1    C3 2813   3.065   4.448   6.957  0.1746 -0.1703 -0.4374
   39CHL1    H3 2814   3.051   4.338   6.970  2.1268 -0.2231  1.4155
   39CHL1    O3 2815   3.114   4.474   6.824  0.5703  0.4200  0.1105
   39CHL1   H3' 2816   3.137   4.389   6.785 -0.7595  0.0518  0.0775
   39CHL1    C4 2817   2.936   4.520   6.985  0.0897  0.2823  0.0993
   39CHL1   H4A 2818   2.960   4.628   6.974  0.1027  0.3294  0.5947
   39CHL1   H4B 2819   2.856   4.496   6.912  2.1781 -0.3174 -2.0914
   39CHL1    C5 2820   2.889   4.501   7.125  0.1213  0.4788 -0.4568
   39CHL1    C6 2821   2.772   4.449   7.147 -0.4042  0.1370 -0.5806
   39CHL1    H6 2822   2.708   4.437   7.058  0.6396 -0.8545 -1.2161
   39CHL1    C7 2823   2.714   4.425   7.283 -0.3107 -0.7140 -0.3561
   39CHL1   H7A 2824   2.610   4.465   7.287  0.0591  0.1294  1.3012
   39CHL1   H7B 2825   2.718   4.316   7.303 -0.4002 -1.2167 -2.8753
   39CHL1    C8 2826   2.787   4.498   7.396  0.0821 -0.0770  0.7904
   39CHL1    H8 2827   2.760   4.605   7.395 -0.4686 -0.2210  0.2765
   39CHL1   C14 2828   2.750   4.438   7.531  0.6465 -0.0970  0.2976
   39CHL1   H14 2829   2.784   4.332   7.530  2.0752  0.3509  0.6831
   39CHL1   C15 2830   2.602   4.422   7.579  0.0790  0.5747  0.0427
   39CHL1  H15A 2831   2.529   4.491   7.532  0.1430  0.8506  0.3455
   39CHL1  H15B 2832   2.574   4.319   7.546  0.0948 -0.2146  2.3956
   39CHL1   C16 2833   2.600   4.419   7.731  0.0424 -0.1984 -0.6842
   39CHL1  H16A 2834   2.534   4.494   7.780 -0.1295  0.6261 -2.1491
   39CHL1  H16B 2835   2.576   4.323   7.781 -0.4866 -0.3947 -1.3131
   39CHL1   C17 2836   2.749   4.444   7.776  0.1750 -0.1183  0.5306
   39CHL1   H17 2837   2.795   4.342   7.780 -0.9973 -0.6804 -0.2266
   39CHL1   C13 2838   2.824   4.505   7.654 -0.7179  0.2367  0.3212
   39CHL1   C18 2839   2.782   4.658   7.651  0.8971 -0.1237  0.0589
   39CHL1  H18A 2840   2.672   4.674   7.640  0.8043 -0.0941  0.9997
   39CHL1  H18B 2841   2.817   4.702   7.747  1.0188 -2.0719  0.9219
   39CHL1  H18C 2842   2.830   4.719   7.572  0.1991  2.6022  1.6754
   39CHL1   C12 2843   2.975   4.478   7.634  0.4630 -0.2211 -0.4298
   39CHL1  H12A 2844   3.038   4.542   7.699 -0.6800  1.8837 -1.3820
   39CHL1  H12B 2845   3.006   4.373   7.658  0.2658  0.2076  1.7797
   39CHL1   C11 2846   3.030   4.536   7.497 -0.1645 -0.2134  0.3886
   39CHL1  H11A 2847   3.033   4.647   7.497  3.4162 -0.2334 -1.7505
   39CHL1  H11B 2848   3.134   4.502   7.479  0.4444  0.1028  3.0955
   39CHL1    C9 2849   2.941   4.482   7.373 -1.0548 -0.3891  0.3663
   39CHL1    H9 2850   2.946   4.371   7.370  0.7854 -0.3651  1.5609
   39CHL1   C10 2851   2.989   4.530   7.234  0.1928 -0.5666  1.0194
   39CHL1   C19 2852   3.002   4.678   7.232  0.0684 -0.0497  0.1236
   39CHL1  H19A 2853   3.083   4.711   7.299 -0.3490  0.2085  0.5068
   39CHL1  H19B 2854   3.043   4.710   7.134 -1.6607  1.8741 -0.0184
   39CHL1  H19C 2855   2.910   4.738   7.252  0.0293 -0.1963  0.3857
   39CHL1    C1 2856   3.124   4.461   7.196 -0.4468 -0.7214  0.6184
   39CHL1   H1A 2857   3.207   4.504   7.257 -1.1181  0.2479  0.8598
   39CHL1   H1B 2858   3.115   4.351   7.211 -0.1188 -0.5099  2.4821
   39CHL1    C2 2859   3.179   4.490   7.050  0.0297  0.7036 -0.8445
   39CHL1   H2A 2860   3.266   4.426   7.023  0.0100  0.0338  0.5911
   39CHL1   H2B 2861   3.204   4.598   7.038  1.6022  0.2712 -1.4857
   39CHL1   C20 2862   2.758   4.511   7.914 -0.3082  0.5773  0.1085
   39CHL1   H20 2863   2.691   4.600   7.917  0.0256  0.8668 -1.0456
   39CHL1   C21 2864   2.900   4.555   7.950 -0.5894 -0.2611  0.2039
   39CHL1  H21A 2865   2.974   4.474   7.930 -0.5158  0.0147 -0.6646
   39CHL1  H21B 2866   2.912   4.589   8.055  2.6562 -0.7460  0.0393
   39CHL1  H21C 2867   2.937   4.639   7.887  0.7554 -1.2135 -0.3116
   39CHL1   C22 2868   2.699   4.413   8.016  0.5306  0.0592  0.2336
   39CHL1  H22A 2869   2.592   4.395   7.988  0.4620 -0.0373  0.5567
   39CHL1  H22B 2870   2.759   4.321   8.003  3.1191  1.7277  0.0291
   39CHL1   C23 2871   2.699   4.460   8.165  0.1335 -0.1424  0.3641
   39CHL1  H23A 2872   2.803   4.478   8.200 -0.3849  0.9793  1.3872
   39CHL1  H23B 2873   2.651   4.560   8.163  0.9995  0.2800  0.5991
   39CHL1   C24 2874   2.629   4.366   8.266  0.0006 -0.1887 -0.1354
   39CHL1  H24A 2875   2.520   4.373   8.245 -0.4859  1.8472  2.8439
   39CHL1  H24B 2876   2.653   4.260   8.241 -0.8372 -0.4476  0.1532
   39CHL1   C25 2877   2.650   4.411   8.412  0.0200  0.0556  0.1122
   39CHL1   H25 2878   2.758   4.420   8.438 -0.2782 -1.3094  1.9789
   39CHL1   C26 2879   2.589   4.543   8.455 -0.1511  0.4514 -0.1465
   39CHL1  H26A 2880   2.625   4.625   8.389  0.1758 -1.2360 -2.1423
   39CHL1  H26B 2881   2.480   4.529   8.444 -0.0094  0.3613 -1.6078
   39CHL1  H26C 2882   2.625   4.567   8.557  0.9087 -0.2635 -0.3357
   39CHL1   C27 2883   2.598   4.294   8.505  0.3463 -0.5781 -0.1716
   39CHL1  H27A 2884   2.491   4.269   8.490  0.2824 -0.7041  0.4641
   39CHL1  H27B 2885   2.650   4.200   8.475 -0.8565 -0.5048 -2.6010
   39CHL1  H27C 2886   2.634   4.316   8.607  0.3070  0.7938 -0.4493
   40CHL1    C3 2887   5.665   3.777   6.927 -0.3459 -0.7032  0.2686
   40CHL1    H3 2888   5.694   3.879   6.959 -2.3285  0.5566 -1.7931
   40CHL1    O3 2889   5.627   3.776   6.789 -0.1382  0.0045 -0.9054
   40CHL1   H3' 2890   5.595   3.688   6.770 -0.6943 -0.1758  0.7644
   40CHL1    C4 2891   5.787   3.689   6.959 -0.4033 -0.6519  0.2969
   40CHL1   H4A 2892   5.781   3.584   6.924 -1.2787 -0.7656  0.7642
   40CHL1   H4B 2893   5.877   3.724   6.905  0.4049 -2.5704  0.3670
   40CHL1    C5 2894   5.813   3.687   7.107 -0.0417  0.1527 -0.2761
   40CHL1    C6 2895   5.936   3.705   7.151 -0.2371 -0.3382 -0.6775
   40CHL1    H6 2896   6.024   3.726   7.089 -0.1430  3.1196  0.5156
   40CHL1    C7 2897   5.983   3.696   7.292 -0.2113  0.5430 -0.3860
   40CHL1   H7A 2898   6.057   3.615   7.309 -1.0240  0.1873  1.6308
   40CHL1   H7B 2899   6.019   3.796   7.324 -1.2271  0.2685  1.7581
   40CHL1    C8 2900   5.862   3.659   7.388 -0.8127  0.2581  0.1971
   40CHL1    H8 2901   5.856   3.548   7.387 -3.7600  0.2920  4.1661
   40CHL1   C14 2902   5.893   3.700   7.534 -0.2395  0.1261  0.5426
   40CHL1   H14 2903   5.897   3.811   7.541 -0.5768  0.3599 -2.3337
   40CHL1   C15 2904   6.037   3.659   7.590 -0.8717  0.2266 -0.1427
   40CHL1  H15A 2905   6.068   3.555   7.567  0.7139  0.7289 -0.3544
   40CHL1  H15B 2906   6.121   3.724   7.558  0.3389 -0.2695  1.8908
   40CHL1   C16 2907   6.020   3.683   7.744  0.2901 -0.5603 -0.3433
   40CHL1  H16A 2908   6.057   3.594   7.798  1.8819 -0.0971 -0.6402
   40CHL1  H16B 2909   6.088   3.767   7.770 -0.1020 -0.5878  0.7841
   40CHL1   C17 2910   5.865   3.706   7.763 -0.8527 -0.3000 -0.7417
   40CHL1   H17 2911   5.849   3.816   7.770  4.7613  0.5760  0.5880
   40CHL1   C13 2912   5.787   3.668   7.636  0.2435 -0.1534 -0.9281
   40CHL1   C18 2913   5.775   3.516   7.631  0.9943  0.6521  0.0607
   40CHL1  H18A 2914   5.875   3.467   7.632  0.6143 -0.1523  3.8216
   40CHL1  H18B 2915   5.708   3.478   7.711  1.5871 -0.9807 -0.1845
   40CHL1  H18C 2916   5.734   3.474   7.536  3.5182 -0.2359 -0.6853
   40CHL1   C12 2917   5.666   3.748   7.597  0.0628 -0.1065  0.3748
   40CHL1  H12A 2918   5.572   3.732   7.653 -2.4733  3.3513 -2.6438
   40CHL1  H12B 2919   5.684   3.857   7.606 -2.5910  0.4781 -1.0170
   40CHL1   C11 2920   5.620   3.712   7.450  0.3959 -0.0602  0.2931
   40CHL1  H11A 2921   5.571   3.612   7.455 -0.6191  0.1237 -3.9563
   40CHL1  H11B 2922   5.533   3.770   7.412 -1.5108 -1.4949  2.3268
   40CHL1    C9 2923   5.733   3.720   7.342  0.1143 -0.6911  0.0899
   40CHL1    H9 2924   5.760   3.826   7.327  0.1052 -0.5375  1.1206
   40CHL1   C10 2925   5.690   3.676   7.199  0.3261 -0.8572  0.7585
   40CHL1   C19 2926   5.651   3.526   7.198  0.0054 -0.0589 -0.0490
   40CHL1  H19A 2927   5.548   3.515   7.239 -0.5263  0.3356 -1.2564
   40CHL1  H19B 2928   5.649   3.484   7.096 -0.2607 -1.2872  0.4552
   40CHL1  H19C 2929   5.724   3.464   7.254  0.1474 -0.4205 -0.6365
   40CHL1    C1 2930   5.574   3.767   7.149 -0.1069 -0.2697  0.0500
   40CHL1   H1A 2931   5.484   3.743   7.209  0.4428 -2.1673  0.1679
   40CHL1   H1B 2932   5.593   3.873   7.173 -1.1454 -0.3633  1.3921
   40CHL1    C2 2933   5.537   3.755   7.000 -0.2669 -0.0605  0.1290
   40CHL1   H2A 2934   5.456   3.828   6.976  0.2696 -0.3498 -2.7867
   40CHL1   H2B 2935   5.497   3.656   6.972  1.7323 -0.0222 -3.0678
   40CHL1   C20 2936   5.820   3.657   7.906 -0.0404  0.0654 -0.0525
   40CHL1   H20 2937   5.821   3.545   7.904  0.0460  0.0140  1.9716
   40CHL1   C21 2938   5.668   3.685   7.942  0.2385 -1.5795  0.7511
   40CHL1  H21A 2939   5.642   3.793   7.929  1.1514 -1.3730  0.6008
   40CHL1  H21B 2940   5.628   3.651   8.039 -1.4498 -1.5973  0.0678
   40CHL1  H21C 2941   5.612   3.629   7.864 -1.6195  0.3420  0.6359
   40CHL1   C22 2942   5.898   3.706   8.029  0.0177  0.1249 -0.4816
   40CHL1  H22A 2943   6.006   3.713   8.005  0.1915  0.5562  0.3964
   40CHL1  H22B 2944   5.859   3.808   8.051 -0.7715 -0.7603  2.3899
   40CHL1   C23 2945   5.895   3.619   8.155  0.2104 -0.2444 -0.0673
   40CHL1  H23A 2946   5.788   3.600   8.177  0.5338 -1.9030  0.2016
   40CHL1  H23B 2947   5.956   3.526   8.141 -0.1418  0.0321 -4.1807
   40CHL1   C24 2948   5.955   3.693   8.274  0.1189  0.1879  0.2220
   40CHL1  H24A 2949   6.051   3.739   8.242 -0.1607  0.2577 -0.5188
   40CHL1  H24B 2950   5.893   3.780   8.302 -0.0840  0.1690 -0.1618
   40CHL1   C25 2951   5.972   3.606   8.400 -0.3204  0.2363 -0.7160
   40CHL1   H25 2952   5.871   3.563   8.413 -0.0855 -1.1467 -3.1314
   40CHL1   C26 2953   6.086   3.504   8.398  0.2198 -0.0521 -0.0009
   40CHL1  H26A 2954   6.084   3.446   8.492 -0.9388 -2.1960 -1.3052
   40CHL1  H26B 2955   6.066   3.439   8.310 -0.3068 -0.5178  0.4578
   40CHL1  H26C 2956   6.179   3.564   8.393 -0.4399  0.9854 -0.0673
   40CHL1   C27 2957   6.001   3.696   8.513 -0.1925  0.2800  0.0273
   40CHL1  H27A 2958   6.104   3.738   8.514  1.1123 -2.8260  1.2735
   40CHL1  H27B 2959   5.927   3.778   8.518 -0.7064 -0.2808  2.2103
   40CHL1  H27C 2960   5.994   3.639   8.608  1.8362  0.9888  0.6388
   41CHL1    C3 2961   6.402   3.919   7.082 -0.1064  1.0891 -0.5367
   41CHL1    H3 2962   6.304   3.971   7.096 -2.7944 -2.9912 -3.1535
   41CHL1    O3 2963   6.417   3.895   6.945 -0.0291 -0.4217  0.5526
   41CHL1   H3' 2964   6.507   3.922   6.926  0.2107 -1.8139 -0.3334
   41CHL1    C4 2965   6.527   3.990   7.139 -0.3511 -0.4334 -0.3998
   41CHL1   H4A 2966   6.606   3.918   7.110  1.8534  2.9160 -3.0446
   41CHL1   H4B 2967   6.540   4.089   7.090 -1.9071 -0.5286 -1.0491
   41CHL1    C5 2968   6.504   4.005   7.291 -0.6297 -0.4237  0.2287
   41CHL1    C6 2969   6.489   4.125   7.347 -0.2426 -0.1529  0.8164
   41CHL1    H6 2970   6.481   4.213   7.280  1.1128 -1.8106 -1.5984
   41CHL1    C7 2971   6.452   4.140   7.492 -0.5722  0.5190  0.1856
   41CHL1   H7A 2972   6.496   4.234   7.530  1.9176 -0.3121 -0.5844
   41CHL1   H7B 2973   6.342   4.149   7.509 -0.3523  2.2576  0.8412
   41CHL1    C8 2974   6.510   4.025   7.578 -0.1237 -0.3212  1.0010
   41CHL1    H8 2975   6.617   4.030   7.549 -0.4579 -1.2025 -0.4278
   41CHL1   C14 2976   6.459   4.037   7.722  0.2107  0.0023  0.8911
   41CHL1   H14 2977   6.348   4.040   7.721  0.1311 -2.1201  0.1994
   41CHL1   C15 2978   6.488   4.167   7.795  0.4155 -0.3498 -0.1865
   41CHL1  H15A 2979   6.596   4.194   7.786  0.8950 -1.1541  2.7906
   41CHL1  H15B 2980   6.424   4.253   7.765  1.4040  0.1382 -0.9538
   41CHL1   C16 2981   6.468   4.126   7.943 -0.3074 -0.0652 -0.0455
   41CHL1  H16A 2982   6.552   4.146   8.013 -0.8016  0.6376  0.3494
   41CHL1  H16B 2983   6.375   4.177   7.975  1.3354  3.2517 -0.3181
   41CHL1   C17 2984   6.441   3.969   7.950 -0.0377 -0.0035  0.4338
   41CHL1   H17 2985   6.333   3.961   7.927  0.1628 -1.8424 -0.0285
   41CHL1   C13 2986   6.496   3.921   7.815 -0.1526  0.4559  0.8512
   41CHL1   C18 2987   6.652   3.917   7.823  0.1965  0.5824  0.1017
   41CHL1  H18A 2988   6.672   3.819   7.873 -0.1139  0.9465  0.9480
   41CHL1  H18B 2989   6.697   3.915   7.721  0.1349 -1.7438  0.0837
   41CHL1  H18C 2990   6.700   4.003   7.872  1.4596  0.2111 -0.4567
   41CHL1   C12 2991   6.432   3.793   7.752  0.8693  0.9458 -0.5746
   41CHL1  H12A 2992   6.459   3.700   7.806 -0.8340  0.3127 -0.8003
   41CHL1  H12B 2993   6.323   3.811   7.751  0.4151 -1.4454  1.5282
   41CHL1   C11 2994   6.484   3.773   7.610  0.5485 -0.4174 -0.2555
   41CHL1  H11A 2995   6.592   3.749   7.624 -0.0956 -2.5418  1.3006
   41CHL1  H11B 2996   6.432   3.678   7.584 -1.3002  0.0948  1.4650
   41CHL1    C9 2997   6.455   3.895   7.521  0.0105 -0.6205  0.0595
   41CHL1    H9 2998   6.344   3.902   7.525  0.1669  4.7236 -0.6881
   41CHL1   C10 2999   6.492   3.870   7.368  0.4276 -0.3890  0.3295
   41CHL1   C19 3000   6.635   3.804   7.359 -0.6583 -0.1664 -0.5320
   41CHL1  H19A 3001   6.709   3.882   7.388  1.5847 -1.8992 -1.4584
   41CHL1  H19B 3002   6.653   3.722   7.433  1.6168  0.0253 -0.8323
   41CHL1  H19C 3003   6.673   3.779   7.258  0.0452 -2.0952  0.1716
   41CHL1    C1 3004   6.380   3.790   7.307 -0.6090 -0.2167  0.1012
   41CHL1   H1A 3005   6.369   3.685   7.341  1.0213 -0.4908 -0.1656
   41CHL1   H1B 3006   6.287   3.840   7.340  0.7708  2.0990  0.5932
   41CHL1    C2 3007   6.383   3.785   7.157 -0.0229  0.7098 -0.8202
   41CHL1   H2A 3008   6.300   3.723   7.117  0.0054 -1.2251  1.9506
   41CHL1   H2B 3009   6.474   3.725   7.132  1.0657  1.6817  0.7384
   41CHL1   C20 3010   6.476   3.882   8.072 -0.0097 -0.6528  0.6596
   41CHL1   H20 3011   6.485   3.776   8.043  0.2034 -0.2165 -0.9180
   41CHL1   C21 3012   6.355   3.890   8.165 -0.0953 -0.3842 -0.2502
   41CHL1  H21A 3013   6.354   3.994   8.204 -2.4641 -0.0329 -1.1856
   41CHL1  H21B 3014   6.365   3.833   8.260  1.9382  0.9983  0.3913
   41CHL1  H21C 3015   6.259   3.883   8.110  0.1561 -1.3654 -0.5803
   41CHL1   C22 3016   6.600   3.917   8.153 -0.1366  0.4567 -1.0001
   41CHL1  H22A 3017   6.685   3.931   8.084  1.2449 -0.6908  0.4366
   41CHL1  H22B 3018   6.587   4.013   8.207  0.9262  0.4791 -0.7782
   41CHL1   C23 3019   6.643   3.816   8.264 -0.4190 -0.8038 -0.2709
   41CHL1  H23A 3020   6.720   3.862   8.329 -0.4632 -0.4798 -0.4506
   41CHL1  H23B 3021   6.568   3.784   8.339  0.1745 -1.2015  0.1615
   41CHL1   C24 3022   6.697   3.684   8.216 -0.0317 -0.8345  0.4455
   41CHL1  H24A 3023   6.620   3.648   8.145 -0.4173  0.4036  0.2336
   41CHL1  H24B 3024   6.787   3.700   8.153  1.0000 -0.5594  1.9472
   41CHL1   C25 3025   6.709   3.571   8.321  0.3605 -0.0808 -0.0610
   41CHL1   H25 3026   6.607   3.551   8.359 -0.0096  1.4738 -0.2038
   41CHL1   C26 3027   6.769   3.446   8.261  0.3645  0.1330 -0.1932
   41CHL1  H26A 3028   6.785   3.359   8.328 -0.2060 -0.3494 -0.6777
   41CHL1  H26B 3029   6.710   3.407   8.175  0.6920 -0.4956 -0.1304
   41CHL1  H26C 3030   6.869   3.467   8.217  0.0202  1.1379 -0.5275
   41CHL1   C27 3031   6.796   3.619   8.440  0.1897 -0.6849 -0.5092
   41CHL1  H27A 3032   6.895   3.650   8.400 -0.1211 -1.3211 -1.8267
   41CHL1  H27B 3033   6.751   3.706   8.492 -2.3886 -3.0585  1.3588
   41CHL1  H27C 3034   6.813   3.542   8.518  1.3140 -2.4954 -2.4782
   42CHL1    C3 3035   0.747   0.613   6.912 -0.2831 -0.4197  0.2815
   42CHL1    H3 3036   0.854   0.636   6.927 -0.0809  0.1787 -1.9086
   42CHL1    O3 3037   0.717   0.585   6.777  0.1879  0.0116 -0.1559
   42CHL1   H3' 3038   0.622   0.571   6.771  0.1797  0.4531 -1.1454
   42CHL1    C4 3039   0.703   0.487   6.986  0.1035  0.2877  0.4062
   42CHL1   H4A 3040   0.600   0.456   6.956 -0.7727  2.9567  0.4743
   42CHL1   H4B 3041   0.774   0.405   6.963  0.5805 -0.0383  2.9643
   42CHL1    C5 3042   0.691   0.508   7.134 -0.2853 -1.2474 -0.1637
   42CHL1    C6 3043   0.758   0.432   7.217 -0.6072 -0.6816  0.1314
   42CHL1    H6 3044   0.809   0.346   7.169 -0.2129 -0.8882  0.9172
   42CHL1    C7 3045   0.767   0.446   7.364 -0.5093  0.2224 -0.2462
   42CHL1   H7A 3046   0.757   0.342   7.400  2.6380 -0.7917 -2.1072
   42CHL1   H7B 3047   0.867   0.479   7.398 -0.7308 -1.8789  2.5738
   42CHL1    C8 3048   0.655   0.536   7.417 -0.0070  0.0479 -0.1512
   42CHL1    H8 3049   0.557   0.485   7.402 -1.9734  3.4968  0.3293
   42CHL1   C14 3050   0.674   0.574   7.565 -0.1257 -0.4292 -0.0568
   42CHL1   H14 3051   0.767   0.634   7.556 -1.4643  1.9605  1.5287
   42CHL1   C15 3052   0.691   0.457   7.666  0.1702 -0.0297  0.0103
   42CHL1  H15A 3053   0.617   0.376   7.651  1.1725 -1.2655  1.5268
   42CHL1  H15B 3054   0.791   0.408   7.668  0.8877  1.4463  1.5149
   42CHL1   C16 3055   0.664   0.525   7.800  0.1725  0.4533 -1.1579
   42CHL1  H16A 3056   0.585   0.472   7.857  1.4773 -1.9018 -1.4344
   42CHL1  H16B 3057   0.762   0.523   7.854 -0.4848 -0.3877  0.0423
   42CHL1   C17 3058   0.617   0.670   7.770 -0.2770  0.4916 -0.9352
   42CHL1   H17 3059   0.700   0.743   7.784 -0.0761  0.2356 -0.7828
   42CHL1   C13 3060   0.573   0.667   7.622  0.4020 -1.0900  0.7628
   42CHL1   C18 3061   0.425   0.618   7.603 -0.2076  0.2677 -0.1268
   42CHL1  H18A 3062   0.352   0.700   7.614  1.0687  1.6317 -1.5557
   42CHL1  H18B 3063   0.406   0.569   7.505 -0.2425 -0.5082  0.2587
   42CHL1  H18C 3064   0.393   0.538   7.674 -0.1456 -0.5422 -0.9906
   42CHL1   C12 3065   0.580   0.806   7.547 -0.1233 -0.3695  0.4328
   42CHL1  H12A 3066   0.507   0.882   7.583  2.6370  1.5724  2.1607
   42CHL1  H12B 3067   0.685   0.840   7.559  0.9900 -2.4628 -2.7631
   42CHL1   C11 3068   0.556   0.773   7.395 -0.1953 -0.7193  0.5557
   42CHL1  H11A 3069   0.450   0.753   7.368  0.6206 -1.8607 -1.8920
   42CHL1  H11B 3070   0.573   0.864   7.334 -1.2859  0.3778  1.8495
   42CHL1    C9 3071   0.651   0.658   7.335 -0.3080  0.2567  0.2796
   42CHL1    H9 3072   0.754   0.696   7.351 -0.1322 -0.0790 -0.0401
   42CHL1   C10 3073   0.621   0.634   7.179  0.4623 -0.0788 -0.6258
   42CHL1   C19 3074   0.472   0.607   7.160 -0.1161  0.5094  0.0673
   42CHL1  H19A 3075   0.440   0.575   7.059  0.3261 -0.5677  0.2539
   42CHL1  H19B 3076   0.441   0.518   7.218  0.9159 -0.3908 -0.7399
   42CHL1  H19C 3077   0.399   0.688   7.180  1.0797  1.2785  1.4554
   42CHL1    C1 3078   0.666   0.764   7.095 -0.4664 -0.1784 -0.7498
   42CHL1   H1A 3079   0.597   0.847   7.121  0.5644  0.5707 -0.4166
   42CHL1   H1B 3080   0.769   0.789   7.128 -1.1594  0.9343  0.6202
   42CHL1    C2 3081   0.666   0.738   6.944  0.4115 -0.5482 -0.4095
   42CHL1   H2A 3082   0.714   0.812   6.877 -0.2609 -1.4100 -1.8474
   42CHL1   H2B 3083   0.561   0.730   6.909 -0.3865 -2.4600  2.2166
   42CHL1   C20 3084   0.510   0.713   7.872  0.2502 -0.0133  0.7413
   42CHL1   H20 3085   0.428   0.639   7.865  1.8076 -1.5416 -2.3457
   42CHL1   C21 3086   0.467   0.857   7.835  0.3005 -0.2379  0.8098
   42CHL1  H21A 3087   0.385   0.841   7.762  2.3229 -1.1719 -1.3068
   42CHL1  H21B 3088   0.559   0.899   7.789  2.0798 -1.0278  3.5004
   42CHL1  H21C 3089   0.449   0.917   7.927  0.9611  1.3146 -0.0607
   42CHL1   C22 3090   0.566   0.710   8.017 -0.4760  0.0897 -0.2749
   42CHL1  H22A 3091   0.635   0.626   8.040  0.1824  0.4812 -0.8120
   42CHL1  H22B 3092   0.633   0.798   8.015 -0.3004 -0.0578 -1.2550
   42CHL1   C23 3093   0.464   0.726   8.125 -0.1422 -0.0570  0.9146
   42CHL1  H23A 3094   0.425   0.829   8.113 -2.6172 -1.0504  0.1261
   42CHL1  H23B 3095   0.382   0.654   8.103 -2.1929  2.4131  0.1830
   42CHL1   C24 3096   0.517   0.714   8.266 -0.3279 -0.0916 -0.0986
   42CHL1  H24A 3097   0.556   0.611   8.282 -1.0992 -0.0292  2.3715
   42CHL1  H24B 3098   0.581   0.802   8.288  2.5113 -2.1118  0.0446
   42CHL1   C25 3099   0.400   0.721   8.372  0.2950 -0.6634  0.2792
   42CHL1   H25 3100   0.335   0.807   8.345 -0.8342 -1.8463 -0.9222
   42CHL1   C26 3101   0.318   0.591   8.379 -0.3811  0.3164  0.0803
   42CHL1  H26A 3102   0.374   0.509   8.429 -1.3917 -0.1002  0.5251
   42CHL1  H26B 3103   0.224   0.606   8.435 -0.4385  0.2920 -0.0078
   42CHL1  H26C 3104   0.288   0.565   8.275 -0.5393  3.1264 -0.6395
   42CHL1   C27 3105   0.463   0.731   8.515 -0.0482 -0.0102  0.2862
   42CHL1  H27A 3106   0.387   0.709   8.593  0.3883 -0.6221  0.5415
   42CHL1  H27B 3107   0.511   0.831   8.522  0.1374  0.1644 -2.7452
   42CHL1  H27C 3108   0.540   0.651   8.520 -0.9499 -0.7360  3.6986
   43CHL1    C3 3109   0.782   4.187   6.736 -0.0288 -0.2859 -0.5567
   43CHL1    H3 3110   0.672   4.183   6.751 -0.1559  1.0817 -1.0543
   43CHL1    O3 3111   0.813   4.196   6.596  0.5752  0.1671 -0.8367
   43CHL1   H3' 3112   0.768   4.120   6.557  0.7145 -1.0704  1.3325
   43CHL1    C4 3113   0.837   4.320   6.803  0.2408  0.4752  0.0736
   43CHL1   H4A 3114   0.941   4.339   6.770 -0.1291  0.6545 -1.0196
   43CHL1   H4B 3115   0.786   4.409   6.759 -0.1201  0.0322 -0.4126
   43CHL1    C5 3116   0.828   4.298   6.952 -0.7180 -0.6162 -1.0649
   43CHL1    C6 3117   0.774   4.404   7.016 -0.2083  0.4357  0.2882
   43CHL1    H6 3118   0.747   4.501   6.972 -2.7141  0.3523  1.5282
   43CHL1    C7 3119   0.779   4.413   7.165  0.1121  0.5509  0.1334
   43CHL1   H7A 3120   0.799   4.515   7.203  0.5295  0.9129 -1.0307
   43CHL1   H7B 3121   0.681   4.383   7.210  0.1626  0.7437  0.3715
   43CHL1    C8 3122   0.881   4.313   7.242 -1.1142 -0.1059  0.5008
   43CHL1    H8 3123   0.981   4.355   7.218 -0.4325 -1.6944  0.4641
   43CHL1   C14 3124   0.857   4.309   7.394  0.0391  0.9424 -0.0839
   43CHL1   H14 3125   0.750   4.288   7.412  0.6237  0.0345  2.6110
   43CHL1   C15 3126   0.885   4.441   7.460  0.9158 -0.7533  0.2529
   43CHL1  H15A 3127   0.981   4.482   7.421  0.0019 -0.4932 -1.8137
   43CHL1  H15B 3128   0.792   4.501   7.446 -0.0042 -1.1112  4.1783
   43CHL1   C16 3129   0.879   4.391   7.607 -0.4618  0.0752  0.1073
   43CHL1  H16A 3130   0.952   4.454   7.664  1.1468 -0.7294 -1.0105
   43CHL1  H16B 3131   0.775   4.402   7.644  0.2044 -0.9398  2.3793
   43CHL1   C17 3132   0.911   4.238   7.614  0.5234  0.2230 -0.5320
   43CHL1   H17 3133   0.814   4.191   7.640  1.8430 -1.4131  1.6979
   43CHL1   C13 3134   0.937   4.205   7.469  0.4724  0.2762  0.7802
   43CHL1   C18 3135   1.085   4.228   7.439  0.6417 -0.2932  0.2234
   43CHL1  H18A 3136   1.105   4.235   7.330  0.1945  0.6086  0.2005
   43CHL1  H18B 3137   1.117   4.328   7.476  1.9781 -0.9763  0.9470
   43CHL1  H18C 3138   1.148   4.150   7.488  2.3452 -1.1226 -3.1764
   43CHL1   C12 3139   0.902   4.062   7.411 -0.6486 -0.0578  0.2913
   43CHL1  H12A 3140   0.959   3.983   7.465 -1.0662 -0.9382 -0.5383
   43CHL1  H12B 3141   0.795   4.038   7.426 -0.9737  1.8602  1.1197
   43CHL1   C11 3142   0.924   4.055   7.257 -0.7585  0.7760 -0.2968
   43CHL1  H11A 3143   1.035   4.054   7.245 -0.6513  2.2505  0.4463
   43CHL1  H11B 3144   0.904   3.954   7.215  0.3172  0.3560  0.1585
   43CHL1    C9 3145   0.862   4.172   7.183 -0.4011  0.2358  0.4109
   43CHL1    H9 3146   0.758   4.137   7.201 -0.5586  0.0473 -0.7971
   43CHL1   C10 3147   0.885   4.178   7.028 -0.0336  0.5700 -0.0773
   43CHL1   C19 3148   1.042   4.182   7.006  0.0042  0.5598 -0.6153
   43CHL1  H19A 3149   1.097   4.094   7.044 -1.0725 -0.0793 -0.5226
   43CHL1  H19B 3150   1.071   4.201   6.900  1.6434 -0.6897 -0.4057
   43CHL1  H19C 3151   1.087   4.262   7.069  0.4146 -0.4785  0.4300
   43CHL1    C1 3152   0.823   4.052   6.958 -0.8703  0.1069 -0.3779
   43CHL1   H1A 3153   0.861   3.964   7.012  1.6808 -0.2968 -2.7279
   43CHL1   H1B 3154   0.714   4.061   6.979 -0.9287  0.5371 -0.8482
   43CHL1    C2 3155   0.843   4.062   6.802 -0.3082  0.0989 -0.9862
   43CHL1   H2A 3156   0.797   3.967   6.766 -0.4740  0.1024 -0.7884
   43CHL1   H2B 3157   0.952   4.063   6.781 -0.4752 -0.4853 -1.8784
   43CHL1   C20 3158   1.014   4.204   7.728 -0.4533  0.5410  0.0310
   43CHL1   H20 3159   1.114   4.248   7.706 -0.8110  1.4386  0.1859
   43CHL1   C21 3160   1.029   4.049   7.736  0.3738  0.6272  0.5299
   43CHL1  H21A 3161   1.070   4.008   7.830  2.1111 -2.9981 -1.6935
   43CHL1  H21B 3162   1.082   4.006   7.648 -0.4191  0.2413  0.2396
   43CHL1  H21C 3163   0.927   4.016   7.707  0.4368  1.4010 -0.6349
   43CHL1   C22 3164   0.974   4.258   7.868  0.3398 -0.3022 -0.0716
   43CHL1  H22A 3165   1.059   4.226   7.932 -0.9151 -0.3276  1.6510
   43CHL1  H22B 3166   0.978   4.368   7.859  3.1464 -0.4681 -1.2523
   43CHL1   C23 3167   0.837   4.204   7.920 -0.6675 -0.1141  0.7708
   43CHL1  H23A 3168   0.755   4.264   7.876 -0.5500  1.9732  3.2856
   43CHL1  H23B 3169   0.825   4.096   7.897 -2.6290 -0.5416  3.5501
   43CHL1   C24 3170   0.819   4.221   8.073 -0.4929 -0.0677 -0.1019
   43CHL1  H24A 3171   0.870   4.135   8.120 -1.3861  0.5614  2.0843
   43CHL1  H24B 3172   0.882   4.309   8.097  0.2246 -0.4936 -0.3905
   43CHL1   C25 3173   0.676   4.234   8.128 -0.3397 -0.8808  0.1427
   43CHL1   H25 3174   0.615   4.161   8.071  1.2379 -2.7527  0.7884
   43CHL1   C26 3175   0.679   4.200   8.271  1.2549  0.4069  0.5058
   43CHL1  H26A 3176   0.707   4.093   8.286 -0.4374 -0.1497 -0.1469
   43CHL1  H26B 3177   0.744   4.255   8.343  2.3176 -0.9806  0.6241
   43CHL1  H26C 3178   0.577   4.209   8.315  2.0771 -1.2116  2.8634
   43CHL1   C27 3179   0.627   4.376   8.096  0.1789  0.8424  0.5109
   43CHL1  H27A 3180   0.523   4.396   8.127  0.0674 -0.6163  1.1298
   43CHL1  H27B 3181   0.697   4.452   8.135  0.3343  0.7511  0.4114
   43CHL1  H27C 3182   0.626   4.382   7.985  1.7053  0.3956  0.4578
   44CHL1    C3 3183   0.956   2.692   6.779 -0.2200 -0.0207 -0.6624
   44CHL1    H3 3184   0.903   2.611   6.834  0.5893  0.9022  1.5277
   44CHL1    O3 3185   0.968   2.660   6.642 -0.2672  0.1652  1.0456
   44CHL1   H3' 3186   1.022   2.731   6.606 -1.2814  0.0548 -0.7267
   44CHL1    C4 3187   0.891   2.827   6.793 -0.3583 -0.3210 -0.2732
   44CHL1   H4A 3188   0.942   2.904   6.732 -1.2068 -1.2477 -2.1803
   44CHL1   H4B 3189   0.795   2.808   6.740 -0.6056 -1.2974  0.5111
   44CHL1    C5 3190   0.873   2.849   6.944  1.0699  0.7172  0.1885
   44CHL1    C6 3191   0.746   2.864   6.989 -0.7001  0.7979  0.7302
   44CHL1    H6 3192   0.666   2.873   6.915  0.1130 -1.6821 -0.4969
   44CHL1    C7 3193   0.713   2.865   7.140  0.2391  0.4561 -0.0502
   44CHL1   H7A 3194   0.641   2.950   7.145  1.6627  1.8315 -1.7919
   44CHL1   H7B 3195   0.683   2.764   7.173  0.1057  0.0668 -1.3101
   44CHL1    C8 3196   0.836   2.896   7.236 -0.0668 -0.3415  0.0834
   44CHL1    H8 3197   0.864   3.000   7.207  0.2662 -0.1114  1.2212
   44CHL1   C14 3198   0.795   2.880   7.380  0.5249 -0.5294 -0.2210
   44CHL1   H14 3199   0.761   2.775   7.384  1.0375 -0.7368 -1.1073
   44CHL1   C15 3200   0.662   2.944   7.431  0.8295 -0.4197 -0.3252
   44CHL1  H15A 3201   0.637   3.048   7.399  1.4491 -0.1740 -0.0314
   44CHL1  H15B 3202   0.578   2.873   7.417  1.4672 -1.3208  0.3256
   44CHL1   C16 3203   0.677   2.935   7.583 -0.3078 -0.4458  1.1676
   44CHL1  H16A 3204   0.664   3.040   7.617  0.8551  0.0078  0.2426
   44CHL1  H16B 3205   0.605   2.871   7.639  0.6155 -2.6174 -0.0227
   44CHL1   C17 3206   0.822   2.887   7.615 -0.4562 -0.1727 -0.2802
   44CHL1   H17 3207   0.829   2.779   7.641  0.7084 -0.1557 -0.4896
   44CHL1   C13 3208   0.902   2.909   7.483  0.0788  0.0153  0.0505
   44CHL1   C18 3209   0.960   3.052   7.468  0.0651  0.1715  0.0483
   44CHL1  H18A 3210   1.048   3.060   7.536  1.8251  0.2047 -2.1611
   44CHL1  H18B 3211   1.008   3.073   7.370  2.8388 -2.3315  0.7823
   44CHL1  H18C 3212   0.878   3.126   7.467 -0.2134 -0.0919 -3.0300
   44CHL1   C12 3213   1.016   2.802   7.456  0.1800  0.7632 -0.1792
   44CHL1  H12A 3214   1.105   2.808   7.523 -0.8398  1.1208  1.1602
   44CHL1  H12B 3215   0.968   2.703   7.469  1.9305 -0.0539  0.3056
   44CHL1   C11 3216   1.070   2.812   7.305 -0.8275  0.1161 -0.8209
   44CHL1  H11A 3217   1.112   2.914   7.293  0.5975 -0.3066  0.3575
   44CHL1  H11B 3218   1.147   2.733   7.291  1.5828  2.3624 -0.6755
   44CHL1    C9 3219   0.954   2.809   7.193  0.4921 -0.0991  0.1293
   44CHL1    H9 3220   0.909   2.709   7.210 -0.6147 -0.0131 -2.1486
   44CHL1   C10 3221   0.994   2.828   7.039 -0.3439  0.9265 -0.1685
   44CHL1   C19 3222   1.082   2.950   7.021 -0.3567  0.6105 -0.0028
   44CHL1  H19A 3223   1.032   3.048   7.038 -3.2345 -1.2478  3.0365
   44CHL1  H19B 3224   1.172   2.939   7.085 -1.9124 -0.1711  2.1110
   44CHL1  H19C 3225   1.110   2.951   6.914  1.3547  0.4645  0.4377
   44CHL1    C1 3226   1.071   2.705   7.001 -0.4435  0.6938 -0.8421
   44CHL1   H1A 3227   1.171   2.695   7.049  0.1290  2.6477 -1.5646
   44CHL1   H1B 3228   1.016   2.623   7.051  1.3455  0.6428  1.1147
   44CHL1    C2 3229   1.091   2.687   6.850 -0.2522 -0.2650 -0.9347
   44CHL1   H2A 3230   1.143   2.589   6.840 -0.1835 -0.6753  2.6608
   44CHL1   H2B 3231   1.150   2.769   6.804  0.6050 -0.5202 -0.2985
   44CHL1   C20 3232   0.882   2.958   7.736 -0.6643  0.4753  0.0102
   44CHL1   H20 3233   0.882   3.069   7.728  1.6750  0.4704 -0.4750
   44CHL1   C21 3234   1.030   2.921   7.780  0.5280 -0.3928  0.8137
   44CHL1  H21A 3235   1.106   2.947   7.703 -0.2459  2.6413  1.0186
   44CHL1  H21B 3236   1.041   2.811   7.781  0.3572 -0.4039  2.0895
   44CHL1  H21C 3237   1.066   2.960   7.877  1.0786 -1.2449  0.9551
   44CHL1   C22 3238   0.793   2.922   7.853  0.5191 -0.3141 -0.1135
   44CHL1  H22A 3239   0.704   2.987   7.865  0.8032 -0.5240  3.8175
   44CHL1  H22B 3240   0.760   2.816   7.845 -0.4988 -0.1951  2.2343
   44CHL1   C23 3241   0.856   2.923   8.000 -0.0736 -0.1404  0.5999
   44CHL1  H23A 3242   0.944   2.855   8.004  0.7762  0.8771 -0.8127
   44CHL1  H23B 3243   0.892   3.025   8.023 -1.8557  0.7882 -0.6653
   44CHL1   C24 3244   0.751   2.880   8.107  0.6611 -0.8150 -0.5752
   44CHL1  H24A 3245   0.652   2.931   8.103 -0.4465 -2.7061  1.6043
   44CHL1  H24B 3246   0.724   2.775   8.083  0.0354 -1.0273  0.9837
   44CHL1   C25 3247   0.801   2.879   8.249  1.0391  0.2413  0.2093
   44CHL1   H25 3248   0.723   2.831   8.312  0.4591 -2.0266 -2.1559
   44CHL1   C26 3249   0.929   2.797   8.277 -1.1182  0.3083 -0.1661
   44CHL1  H26A 3250   0.948   2.780   8.385  1.1595 -0.5031 -0.6797
   44CHL1  H26B 3251   0.931   2.699   8.225  1.2538  0.7559 -0.9502
   44CHL1  H26C 3252   1.013   2.858   8.237  0.2813 -0.7127  1.1676
   44CHL1   C27 3253   0.812   3.017   8.302 -0.4126  0.3015  1.4769
   44CHL1  H27A 3254   0.840   3.015   8.410 -0.6419  0.9669  1.5557
   44CHL1  H27B 3255   0.868   3.087   8.236 -0.3200 -1.2752 -0.1510
   44CHL1  H27C 3256   0.705   3.048   8.296  0.0387  1.8057  0.8154
   45CHL1    C3 3257   1.861   1.422   6.653  0.0985  0.4331 -0.2275
   45CHL1    H3 3258   1.765   1.380   6.688 -0.6849  2.0637 -0.3796
   45CHL1    O3 3259   1.862   1.428   6.512  0.5257  0.0487 -0.9406
   45CHL1   H3' 3260   1.957   1.433   6.500  0.7093 -0.9034 -0.0387
   45CHL1    C4 3261   1.884   1.562   6.709 -0.4283  1.1626  0.8799
   45CHL1   H4A 3262   1.981   1.596   6.668 -0.6922  1.6336  0.6313
   45CHL1   H4B 3263   1.813   1.633   6.660 -1.4890 -0.7803 -0.5046
   45CHL1    C5 3264   1.883   1.571   6.868  0.0118  0.6347  0.2785
   45CHL1    C6 3265   1.803   1.652   6.942  0.3851  0.7619  0.0689
   45CHL1    H6 3266   1.740   1.727   6.892 -1.6462  1.0792  3.0037
   45CHL1    C7 3267   1.798   1.644   7.091  0.9008  0.1605  0.0591
   45CHL1   H7A 3268   1.778   1.743   7.138 -1.4143  0.3817 -1.2752
   45CHL1   H7B 3269   1.709   1.579   7.108 -0.5875  1.8801 -0.9259
   45CHL1    C8 3270   1.925   1.571   7.155  0.3108  0.0870 -0.6890
   45CHL1    H8 3271   2.021   1.628   7.145  0.0341  0.3746 -1.7629
   45CHL1   C14 3272   1.902   1.542   7.309 -0.2265  0.1940  0.1721
   45CHL1   H14 3273   1.810   1.483   7.326 -0.3548  0.1781 -0.6084
   45CHL1   C15 3274   1.874   1.659   7.399  0.6619  0.2221 -0.1984
   45CHL1  H15A 3275   1.920   1.749   7.354 -1.2535  2.4385  2.1038
   45CHL1  H15B 3276   1.764   1.673   7.389  0.5636  0.7288  1.3121
   45CHL1   C16 3277   1.921   1.613   7.533 -0.2654  0.3871 -0.6006
   45CHL1  H16A 3278   2.001   1.684   7.559 -0.0029  0.2203 -0.9555
   45CHL1  H16B 3279   1.841   1.628   7.609 -0.2653  2.1876 -0.9450
   45CHL1   C17 3280   1.983   1.469   7.518 -0.3868  0.5525  0.6894
   45CHL1   H17 3281   1.900   1.396   7.529 -0.8613  0.5536 -2.4030
   45CHL1   C13 3282   2.021   1.462   7.374 -0.1457 -0.4029  1.0120
   45CHL1   C18 3283   2.155   1.537   7.345 -0.4841  0.5748 -0.1564
   45CHL1  H18A 3284   2.159   1.641   7.385 -0.6229 -0.2048  1.9377
   45CHL1  H18B 3285   2.241   1.482   7.389  0.8593  1.8521 -1.0919
   45CHL1  H18C 3286   2.177   1.549   7.236  1.4446 -4.6626 -0.4557
   45CHL1   C12 3287   2.023   1.325   7.309  0.2463 -0.6591  0.0615
   45CHL1  H12A 3288   2.102   1.253   7.338 -0.6847 -0.7110  2.5495
   45CHL1  H12B 3289   1.927   1.275   7.335 -1.0235  2.5083  1.6069
   45CHL1   C11 3290   2.038   1.342   7.152  0.7046 -0.3691 -0.3395
   45CHL1  H11A 3291   2.141   1.384   7.153  0.5057  0.1031  2.2798
   45CHL1  H11B 3292   2.045   1.243   7.102  1.0398 -0.1476 -0.7384
   45CHL1    C9 3293   1.941   1.441   7.084  0.4275  0.0169  0.2233
   45CHL1    H9 3294   1.839   1.397   7.086  0.2723  0.4146  1.1349
   45CHL1   C10 3295   1.973   1.457   6.927  0.2352  0.1512 -0.9879
   45CHL1   C19 3296   2.120   1.499   6.908  0.5380 -0.2436  1.1239
   45CHL1  H19A 3297   2.135   1.529   6.802  1.8429 -0.0750  1.3409
   45CHL1  H19B 3298   2.133   1.579   6.984 -0.9924 -0.8093  2.0009
   45CHL1  H19C 3299   2.188   1.415   6.934 -0.8598 -1.4790  0.8583
   45CHL1    C1 3300   1.952   1.326   6.848  0.1369  0.1007  0.9099
   45CHL1   H1A 3301   2.019   1.244   6.882  0.9368  0.7754  0.9756
   45CHL1   H1B 3302   1.858   1.277   6.882  1.1990 -1.9170  1.0642
   45CHL1    C2 3303   1.966   1.327   6.696  0.6133  0.0100 -0.2166
   45CHL1   H2A 3304   1.951   1.230   6.645  0.6664  0.2807 -0.7494
   45CHL1   H2B 3305   2.065   1.370   6.668  0.1619  2.1101  1.2905
   45CHL1   C20 3306   2.093   1.444   7.626 -0.1251  0.0280 -0.4679
   45CHL1   H20 3307   2.173   1.521   7.616 -0.4038  0.2935 -0.6589
   45CHL1   C21 3308   2.152   1.305   7.594  0.3578 -0.1618 -0.7296
   45CHL1  H21A 3309   2.230   1.309   7.514  2.8904  2.0333  1.7671
   45CHL1  H21B 3310   2.076   1.232   7.558  0.8389 -1.6549  1.2029
   45CHL1  H21C 3311   2.199   1.269   7.688  1.8611  2.2616 -0.5177
   45CHL1   C22 3312   2.051   1.460   7.770  0.0869  0.1980 -0.4375
   45CHL1  H22A 3313   2.143   1.439   7.829 -0.2727 -1.7044 -0.5249
   45CHL1  H22B 3314   2.004   1.558   7.793 -0.5876 -0.0913 -0.5696
   45CHL1   C23 3315   1.941   1.364   7.829  0.0656  0.3824  0.1639
   45CHL1  H23A 3316   1.844   1.388   7.780 -0.0289 -0.4832 -0.0808
   45CHL1  H23B 3317   1.966   1.260   7.800  0.5952  0.9900 -1.6370
   45CHL1   C24 3318   1.914   1.394   7.979  0.0854  0.3302  0.2062
   45CHL1  H24A 3319   2.009   1.381   8.036  0.2885 -0.0259 -0.2036
   45CHL1  H24B 3320   1.876   1.498   7.984  0.0258  0.3892 -1.1615
   45CHL1   C25 3321   1.824   1.286   8.042  0.3046  0.2180  0.3143
   45CHL1   H25 3322   1.732   1.265   7.984  3.0952 -2.2378 -3.4888
   45CHL1   C26 3323   1.901   1.148   8.036  0.4851 -0.1968 -0.2829
   45CHL1  H26A 3324   1.842   1.065   8.081  3.6465 -2.0499  0.5587
   45CHL1  H26B 3325   1.930   1.112   7.934  1.5885 -0.3339  0.0791
   45CHL1  H26C 3326   1.992   1.158   8.098 -0.1623  0.5484  0.5597
   45CHL1   C27 3327   1.797   1.306   8.189  0.2541 -0.1384 -0.1094
   45CHL1  H27A 3328   1.897   1.298   8.236  0.0684  0.0123  0.3064
   45CHL1  H27B 3329   1.760   1.406   8.217  1.9450  0.3757  0.3803
   45CHL1  H27C 3330   1.729   1.225   8.221 -1.3359  1.2054 -0.0493
   46CHL1    C3 3331   2.041   2.521   7.065 -0.0781  0.2888  0.4529
   46CHL1    H3 3332   2.023   2.414   7.040  1.8627  0.4644 -1.9486
   46CHL1    O3 3333   2.071   2.590   6.942 -0.6215  0.9827 -0.2621
   46CHL1   H3' 3334   2.145   2.543   6.903 -0.5230  0.7735  0.1640
   46CHL1    C4 3335   1.915   2.585   7.134  0.6709  0.4342  0.2759
   46CHL1   H4A 3336   1.935   2.694   7.140 -1.5187  0.9155 -0.7562
   46CHL1   H4B 3337   1.826   2.578   7.068  2.1265 -1.3193 -1.5498
   46CHL1    C5 3338   1.884   2.534   7.276  0.4560 -0.5526 -0.1650
   46CHL1    C6 3339   1.768   2.495   7.328 -0.0661 -0.2534  0.1395
   46CHL1    H6 3340   1.680   2.495   7.263 -0.0379  0.8024  0.0988
   46CHL1    C7 3341   1.737   2.447   7.466 -0.2574 -0.4933 -0.4744
   46CHL1   H7A 3342   1.644   2.499   7.498  0.0840 -0.4921  0.5445
   46CHL1   H7B 3343   1.727   2.337   7.464 -1.0686 -0.4330 -0.1395
   46CHL1    C8 3344   1.856   2.483   7.566  0.4620  0.2361 -0.1334
   46CHL1    H8 3345   1.839   2.591   7.586 -2.6642 -0.4165  0.9079
   46CHL1   C14 3346   1.847   2.395   7.690  0.0937 -0.3277 -0.4845
   46CHL1   H14 3347   1.881   2.302   7.640 -0.1577  0.0186 -1.2933
   46CHL1   C15 3348   1.715   2.366   7.756 -0.2594  0.4816  0.2264
   46CHL1  H15A 3349   1.641   2.449   7.752 -0.5834  0.1742 -0.2071
   46CHL1  H15B 3350   1.672   2.278   7.703  0.8739  1.3516 -2.2045
   46CHL1   C16 3351   1.753   2.322   7.894 -0.1744  0.5734  0.5842
   46CHL1  H16A 3352   1.701   2.395   7.959 -1.9245 -1.5132  1.6102
   46CHL1  H16B 3353   1.717   2.222   7.926  2.1423 -0.2145  0.8739
   46CHL1   C17 3354   1.903   2.332   7.900  0.1892  0.0398  0.0452
   46CHL1   H17 3355   1.953   2.237   7.874  0.5297 -0.1117  1.2260
   46CHL1   C13 3356   1.947   2.432   7.795 -0.0886 -0.4358  0.5204
   46CHL1   C18 3357   1.903   2.572   7.839  0.8022  0.1648 -0.5267
   46CHL1  H18A 3358   1.916   2.648   7.759 -0.0849 -0.5963 -1.3978
   46CHL1  H18B 3359   1.800   2.581   7.879  0.6789 -0.8512 -0.5940
   46CHL1  H18C 3360   1.961   2.599   7.930 -0.4647  3.6061 -0.6885
   46CHL1   C12 3361   2.092   2.419   7.737  0.0619 -0.3435 -0.1702
   46CHL1  H12A 3362   2.179   2.444   7.801  1.2747  1.2410 -2.3428
   46CHL1  H12B 3363   2.106   2.312   7.710 -2.0377 -0.1997 -2.0086
   46CHL1   C11 3364   2.105   2.507   7.614  0.0151  0.6231 -0.3841
   46CHL1  H11A 3365   2.082   2.610   7.647 -1.8232  0.5738 -1.4307
   46CHL1  H11B 3366   2.211   2.514   7.582 -0.4034  1.2929 -1.6573
   46CHL1    C9 3367   2.001   2.468   7.506  0.3151  0.0211 -0.0105
   46CHL1    H9 3368   2.013   2.361   7.482  1.2738 -0.2874  1.7187
   46CHL1   C10 3369   2.007   2.545   7.369  0.5318  0.2149  0.2521
   46CHL1   C19 3370   2.035   2.692   7.402  0.3933  0.0025 -0.2002
   46CHL1  H19A 3371   1.963   2.723   7.480  3.7456  1.6622  2.3313
   46CHL1  H19B 3372   2.141   2.694   7.433  0.8955 -0.3472 -1.8456
   46CHL1  H19C 3373   2.010   2.757   7.315  1.5000  0.5239 -0.1388
   46CHL1    C1 3374   2.130   2.492   7.298 -0.7180  0.0733  0.6682
   46CHL1   H1A 3375   2.221   2.495   7.361 -0.0798  2.5649 -0.3414
   46CHL1   H1B 3376   2.116   2.383   7.280  1.3814  0.1711 -1.8721
   46CHL1    C2 3377   2.162   2.548   7.162 -0.4255 -0.0869  0.1438
   46CHL1   H2A 3378   2.258   2.511   7.120  2.3916  2.8572  3.6260
   46CHL1   H2B 3379   2.168   2.659   7.165  1.5588 -0.1629 -0.3225
   46CHL1   C20 3380   1.956   2.357   8.045 -0.4161  0.4394  0.3355
   46CHL1   H20 3381   1.949   2.461   8.086  1.9407  0.0492  1.8700
   46CHL1   C21 3382   2.109   2.318   8.058 -0.0715 -0.3503 -0.9672
   46CHL1  H21A 3383   2.122   2.216   8.015  0.7652 -0.9604  0.6868
   46CHL1  H21B 3384   2.136   2.309   8.165 -0.9772 -2.2015 -0.8636
   46CHL1  H21C 3385   2.172   2.393   8.005 -0.8504 -2.5033 -5.1974
   46CHL1   C22 3386   1.874   2.286   8.157  0.6825  0.7600 -0.5504
   46CHL1  H22A 3387   1.776   2.338   8.147  1.4605  1.9056 -2.5655
   46CHL1  H22B 3388   1.859   2.182   8.119 -0.0585  1.2325 -1.5808
   46CHL1   C23 3389   1.920   2.280   8.303  0.0426  0.4182  0.2877
   46CHL1  H23A 3390   1.854   2.210   8.358  2.3041 -2.4240 -0.4714
   46CHL1  H23B 3391   2.015   2.221   8.304  0.7382  1.4997 -0.6933
   46CHL1   C24 3392   1.930   2.416   8.367 -0.3579  0.2750 -0.7426
   46CHL1  H24A 3393   1.996   2.481   8.306 -0.0354  1.6024  0.9965
   46CHL1  H24B 3394   1.828   2.462   8.369 -0.6755 -0.4593  0.6295
   46CHL1   C25 3395   1.969   2.408   8.512 -1.0455 -0.2131  0.3984
   46CHL1   H25 3396   1.897   2.338   8.560 -2.5602  0.0823 -1.4008
   46CHL1   C26 3397   2.117   2.358   8.523  0.0175 -0.3542  0.0233
   46CHL1  H26A 3398   2.119   2.255   8.479  2.8357 -0.2790 -0.1252
   46CHL1  H26B 3399   2.180   2.431   8.469  2.2510 -0.0560  2.9118
   46CHL1  H26C 3400   2.148   2.354   8.630 -2.8344 -3.4753  0.8282
   46CHL1   C27 3401   1.970   2.550   8.577 -0.2607  0.1530 -0.0235
   46CHL1  H27A 3402   1.868   2.594   8.573 -1.3001 -2.1451  0.5691
   46CHL1  H27B 3403   1.993   2.544   8.686 -3.3059  2.9737  0.8605
   46CHL1  H27C 3404   2.048   2.618   8.538 -0.2167 -0.4460 -0.9862
   47CHL1    C3 3405   1.064   2.298   6.630  0.6272  0.4685 -0.0710
   47CHL1    H3 3406   1.052   2.409   6.626  2.1353  0.6467 -0.0842
   47CHL1    O3 3407   1.055   2.238   6.502  0.0363  0.4488  0.0365
   47CHL1   H3' 3408   1.068   2.144   6.517 -0.1609  0.9043  3.4873
   47CHL1    C4 3409   1.202   2.256   6.685  0.3069  0.5295  0.1653
   47CHL1   H4A 3410   1.223   2.147   6.673 -1.0692  0.2556  0.0887
   47CHL1   H4B 3411   1.275   2.307   6.620 -0.2651  0.2518 -0.7063
   47CHL1    C5 3412   1.235   2.304   6.825  0.1694 -0.2680  0.5717
   47CHL1    C6 3413   1.338   2.374   6.861 -0.1306  0.6734  0.3433
   47CHL1    H6 3414   1.406   2.420   6.788 -0.6873  3.0793  1.2828
   47CHL1    C7 3415   1.359   2.424   7.002 -0.8726 -0.5820  0.8146
   47CHL1   H7A 3416   1.467   2.439   7.024 -0.8411  2.2770 -0.9771
   47CHL1   H7B 3417   1.314   2.525   7.011  2.1122  1.0330 -1.3581
   47CHL1    C8 3418   1.282   2.339   7.101 -0.3444 -0.0464  0.0843
   47CHL1    H8 3419   1.317   2.234   7.106 -2.3097 -0.6914  0.6959
   47CHL1   C14 3420   1.294   2.408   7.240 -0.7323  0.0673  0.8667
   47CHL1   H14 3421   1.248   2.508   7.234  1.0869  0.8284 -1.3256
   47CHL1   C15 3422   1.433   2.444   7.302 -0.3491  0.2146 -0.2236
   47CHL1  H15A 3423   1.512   2.368   7.287  1.0819  2.1286 -2.7812
   47CHL1  H15B 3424   1.471   2.533   7.248 -0.5918  0.6710  0.3513
   47CHL1   C16 3425   1.408   2.455   7.448 -0.1363 -0.7672  0.0844
   47CHL1  H16A 3426   1.472   2.380   7.499  1.3737 -0.8114 -1.7766
   47CHL1  H16B 3427   1.430   2.561   7.474 -1.1370 -0.8623  1.3508
   47CHL1   C17 3428   1.262   2.429   7.469  0.1894  0.4977  0.0685
   47CHL1   H17 3429   1.208   2.525   7.457 -0.5293  0.1712  0.5889
   47CHL1   C13 3430   1.214   2.342   7.350 -0.2761  0.0413  0.0619
   47CHL1   C18 3431   1.252   2.194   7.378  0.0813  0.2700  0.3424
   47CHL1  H18A 3432   1.357   2.175   7.412  0.2673  2.2210  0.8864
   47CHL1  H18B 3433   1.185   2.142   7.450  1.1055  0.7445  1.6520
   47CHL1  H18C 3434   1.234   2.134   7.286  0.4899  0.2275  0.2873
   47CHL1   C12 3435   1.060   2.357   7.316  0.5454 -0.2308 -0.3472
   47CHL1  H12A 3436   1.012   2.291   7.391  0.8652 -2.1313 -1.7978
   47CHL1  H12B 3437   1.024   2.462   7.309  1.4928  0.4205  3.1994
   47CHL1   C11 3438   1.030   2.292   7.172 -0.5410 -0.1069 -0.6964
   47CHL1  H11A 3439   1.036   2.184   7.195 -1.0616  0.2613  1.2161
   47CHL1  H11B 3440   0.923   2.311   7.149 -0.7548 -0.9350 -0.3828
   47CHL1    C9 3441   1.134   2.328   7.058 -0.4657 -0.4633  0.1494
   47CHL1    H9 3442   1.113   2.433   7.029 -1.3105 -0.7775 -0.3769
   47CHL1   C10 3443   1.128   2.255   6.927  0.0441 -0.0764  0.4747
   47CHL1   C19 3444   1.148   2.103   6.950  0.5289  0.0550  0.5463
   47CHL1  H19A 3445   1.124   2.045   6.858 -0.3263 -1.4474  1.7060
   47CHL1  H19B 3446   1.249   2.072   6.982  0.4250 -0.9525 -0.0780
   47CHL1  H19C 3447   1.082   2.064   7.030  0.3213  0.1963  0.4462
   47CHL1    C1 3448   0.980   2.279   6.873  0.1529  0.2510  0.5851
   47CHL1   H1A 3449   0.914   2.234   6.949  1.3836  1.1796  2.2400
   47CHL1   H1B 3450   0.961   2.388   6.883  0.0598  0.6124 -2.8093
   47CHL1    C2 3451   0.957   2.246   6.725  0.0745 -0.6351 -0.5340
   47CHL1   H2A 3452   0.858   2.280   6.687  0.8605 -0.2976 -2.3467
   47CHL1   H2B 3453   0.958   2.135   6.720  1.0982 -0.5935 -1.5563
   47CHL1   C20 3454   1.218   2.375   7.608  0.4564 -0.3252  0.8160
   47CHL1   H20 3455   1.127   2.314   7.591 -0.0104  0.4792  0.4181
   47CHL1   C21 3456   1.174   2.502   7.693 -0.0108 -0.6115  0.3870
   47CHL1  H21A 3457   1.269   2.537   7.739 -2.0854  2.3788  2.6266
   47CHL1  H21B 3458   1.110   2.465   7.776 -0.2381 -0.3378  0.3366
   47CHL1  H21C 3459   1.107   2.570   7.636 -2.1951 -3.0165  0.0321
   47CHL1   C22 3460   1.312   2.277   7.692  0.0408 -0.0692  0.1808
   47CHL1  H22A 3461   1.377   2.221   7.622 -0.2307 -1.6571  1.1677
   47CHL1  H22B 3462   1.385   2.343   7.743 -0.4066  2.3425 -2.1930
   47CHL1   C23 3463   1.233   2.185   7.782  0.5657 -0.4456  0.4099
   47CHL1  H23A 3464   1.153   2.239   7.836 -0.3766  0.3745 -1.7747
   47CHL1  H23B 3465   1.176   2.120   7.712 -0.0839 -0.3322  0.8236
   47CHL1   C24 3466   1.317   2.092   7.869 -0.4762 -0.3801  0.5731
   47CHL1  H24A 3467   1.244   2.017   7.906 -0.0415 -1.6205 -1.0275
   47CHL1  H24B 3468   1.391   2.040   7.804 -0.0118  1.5809 -0.5115
   47CHL1   C25 3469   1.402   2.156   7.977  0.1321 -0.8992  0.3913
   47CHL1   H25 3470   1.462   2.229   7.918  0.3670 -0.8719  0.6654
   47CHL1   C26 3471   1.320   2.250   8.069  0.6035  0.2980 -0.0091
   47CHL1  H26A 3472   1.270   2.329   8.010 -1.3316 -0.4250  0.6039
   47CHL1  H26B 3473   1.243   2.192   8.124  2.3899 -0.5201  1.7005
   47CHL1  H26C 3474   1.386   2.304   8.141 -1.2850  3.0294 -0.2655
   47CHL1   C27 3475   1.491   2.061   8.054 -0.0255 -0.2526 -0.4291
   47CHL1  H27A 3476   1.418   1.999   8.111  1.6702 -1.2192  0.7286
   47CHL1  H27B 3477   1.550   1.993   7.989 -0.9506 -0.2325 -1.2978
   47CHL1  H27C 3478   1.559   2.122   8.116 -1.4725  0.7145  0.2317
   48CHL1    C3 3479   4.498   5.486   6.295 -0.6102  0.1589  0.3540
   48CHL1    H3 3480   4.608   5.505   6.288 -1.5700  5.5809 -2.9063
   48CHL1    O3 3481   4.448   5.463   6.164  0.4401 -0.3603 -0.3228
   48CHL1   H3' 3482   4.498   5.382   6.150  2.4592  1.1381 -2.2177
   48CHL1    C4 3483   4.465   5.361   6.367  0.2295 -0.4522  0.8116
   48CHL1   H4A 3484   4.360   5.331   6.345  0.0657  2.0352 -2.1068
   48CHL1   H4B 3485   4.517   5.272   6.326  0.9045  0.3097  0.0055
   48CHL1    C5 3486   4.513   5.370   6.510 -1.1609  0.3707 -0.1272
   48CHL1    C6 3487   4.616   5.294   6.556  0.1689 -0.8892 -0.5662
   48CHL1    H6 3488   4.657   5.214   6.493 -1.1333 -0.9336 -1.3701
   48CHL1    C7 3489   4.656   5.296   6.703  0.0566 -0.2054 -1.0979
   48CHL1   H7A 3490   4.671   5.192   6.740  0.8696 -0.1812 -1.3440
   48CHL1   H7B 3491   4.762   5.326   6.714 -0.4874  0.9880  1.0711
   48CHL1    C8 3492   4.566   5.370   6.802 -0.7798  0.6861  0.1795
   48CHL1    H8 3493   4.477   5.308   6.826 -0.1223  0.9802  3.5554
   48CHL1   C14 3494   4.626   5.400   6.936 -0.6319  0.2630  0.0008
   48CHL1   H14 3495   4.700   5.478   6.908  1.6002 -1.7555  0.0760
   48CHL1   C15 3496   4.715   5.297   7.005 -0.5271 -0.2715  0.1709
   48CHL1  H15A 3497   4.651   5.208   7.021  1.6244 -1.6219  1.4839
   48CHL1  H15B 3498   4.799   5.264   6.940  1.6902  1.4688  2.0830
   48CHL1   C16 3499   4.745   5.354   7.139  0.2048 -0.6177 -0.6291
   48CHL1  H16A 3500   4.725   5.281   7.220 -1.9711 -0.0287 -0.6095
   48CHL1  H16B 3501   4.854   5.376   7.142 -0.2256  1.9188 -2.4011
   48CHL1   C17 3502   4.651   5.484   7.155  0.6515 -0.0042  0.6318
   48CHL1   H17 3503   4.710   5.568   7.113 -1.0753  0.6424 -0.5542
   48CHL1   C13 3504   4.547   5.468   7.034  0.5110 -0.0689  0.6974
   48CHL1   C18 3505   4.432   5.387   7.086  0.7798  0.2323  0.2157
   48CHL1  H18A 3506   4.475   5.304   7.146  0.6307  0.4348  0.6018
   48CHL1  H18B 3507   4.357   5.451   7.137  0.9907  2.9347 -2.7160
   48CHL1  H18C 3508   4.376   5.338   7.004  0.9204  0.9575 -0.3136
   48CHL1   C12 3509   4.507   5.605   6.969 -0.1701  0.3741  0.2644
   48CHL1  H12A 3510   4.444   5.669   7.034 -1.9275 -2.0397  1.0296
   48CHL1  H12B 3511   4.599   5.667   6.960  0.9988 -1.3550 -0.0739
   48CHL1   C11 3512   4.430   5.587   6.839  0.0018  0.2767 -0.3154
   48CHL1  H11A 3513   4.336   5.532   6.863 -0.0174  0.0434 -0.9063
   48CHL1  H11B 3514   4.415   5.686   6.791  0.6246  0.0913 -0.9060
   48CHL1    C9 3515   4.513   5.498   6.739 -0.1788 -0.1227  0.0225
   48CHL1    H9 3516   4.599   5.567   6.723  0.1082 -0.5312 -0.1944
   48CHL1   C10 3517   4.447   5.475   6.599  0.2524  0.2343  0.1000
   48CHL1   C19 3518   4.308   5.424   6.624  0.4839  0.0958 -0.2593
   48CHL1  H19A 3519   4.250   5.399   6.533 -4.0662  3.5072  1.4893
   48CHL1  H19B 3520   4.317   5.341   6.696 -1.1004 -0.3466 -0.5557
   48CHL1  H19C 3521   4.244   5.503   6.669 -1.7763 -1.2422 -1.0365
   48CHL1    C1 3522   4.444   5.608   6.511  0.6743 -0.0983  0.7140
   48CHL1   H1A 3523   4.364   5.666   6.562  0.3826 -0.1024  0.2571
   48CHL1   H1B 3524   4.542   5.660   6.514 -0.4244  2.1532 -0.6490
   48CHL1    C2 3525   4.422   5.601   6.359 -0.4836 -0.0408 -0.0526
   48CHL1   H2A 3526   4.453   5.699   6.318  1.4853 -1.5295 -2.3098
   48CHL1   H2B 3527   4.312   5.588   6.352 -0.3733 -3.0898  2.7435
   48CHL1   C20 3528   4.614   5.520   7.299 -0.3456  0.6213  0.3100
   48CHL1   H20 3529   4.543   5.443   7.336 -0.9140  0.4214 -1.1765
   48CHL1   C21 3530   4.529   5.652   7.295 -0.2331  0.5691 -0.2813
   48CHL1  H21A 3531   4.586   5.730   7.239  3.3172 -0.0366  2.3095
   48CHL1  H21B 3532   4.506   5.685   7.398 -1.0518  1.0506 -0.6120
   48CHL1  H21C 3533   4.430   5.628   7.252 -0.1931 -1.1463  0.5716
   48CHL1   C22 3534   4.730   5.544   7.401  0.0341 -0.1586 -1.0130
   48CHL1  H22A 3535   4.812   5.479   7.365  0.4544 -1.0447  1.4886
   48CHL1  H22B 3536   4.761   5.651   7.405 -0.2211 -0.1426  1.1468
   48CHL1   C23 3537   4.683   5.501   7.536 -0.1818  0.8497 -0.0082
   48CHL1  H23A 3538   4.594   5.552   7.579 -2.1319 -1.5931 -0.9839
   48CHL1  H23B 3539   4.649   5.397   7.517 -1.3697  1.1514  0.3951
   48CHL1   C24 3540   4.789   5.502   7.643  1.0581  0.1308 -0.1514
   48CHL1  H24A 3541   4.751   5.427   7.716 -3.2491  3.0685  0.7845
   48CHL1  H24B 3542   4.877   5.462   7.588  0.9242 -0.1101 -0.1893
   48CHL1   C25 3543   4.834   5.629   7.716  0.1069 -0.1670  0.1148
   48CHL1   H25 3544   4.838   5.704   7.634  1.1887 -2.6294 -2.1827
   48CHL1   C26 3545   4.740   5.661   7.831 -0.1127 -0.7998 -0.0688
   48CHL1  H26A 3546   4.744   5.574   7.901 -0.0857 -0.6932  0.0611
   48CHL1  H26B 3547   4.774   5.746   7.894  1.5389 -1.6725  0.2271
   48CHL1  H26C 3548   4.636   5.673   7.792  0.3666  1.7522 -0.6545
   48CHL1   C27 3549   4.976   5.599   7.771  0.3896  0.1578  0.9937
   48CHL1  H27A 3550   4.985   5.493   7.804  1.5244  0.2212  0.9105
   48CHL1  H27B 3551   5.042   5.615   7.683 -2.2833 -2.2029 -1.5494
   48CHL1  H27C 3552   5.008   5.676   7.845 -1.2252 -0.2534  2.1566
   49CHL1    C3 3553   3.327   6.091   6.631 -0.1519  0.4986 -0.3600
   49CHL1    H3 3554   3.392   6.010   6.670 -1.9393 -0.1651  1.3122
   49CHL1    O3 3555   3.313   6.076   6.490  0.4366  0.2558 -0.0278
   49CHL1   H3' 3556   3.268   5.991   6.481 -2.4309  1.8381 -1.2366
   49CHL1    C4 3557   3.185   6.067   6.692  0.5788 -0.6661  0.4757
   49CHL1   H4A 3558   3.124   6.149   6.650  0.5822 -1.9374 -2.1587
   49CHL1   H4B 3559   3.147   5.972   6.648  0.7797  0.0191 -1.2372
   49CHL1    C5 3560   3.171   6.064   6.841 -0.5544 -0.4250  0.0271
   49CHL1    C6 3561   3.137   5.957   6.911  0.1007  0.4210 -0.0262
   49CHL1    H6 3562   3.124   5.861   6.858  1.4101 -0.8217  1.8445
   49CHL1    C7 3563   3.125   5.955   7.062 -0.0724  0.5187 -0.1782
   49CHL1   H7A 3564   3.020   5.931   7.090 -0.6679  2.2027 -0.8901
   49CHL1   H7B 3565   3.195   5.878   7.101 -1.7724 -0.0869  1.7631
   49CHL1    C8 3566   3.152   6.085   7.136  0.3532 -0.6205  0.0551
   49CHL1    H8 3567   3.065   6.154   7.137  0.0962 -0.9541  1.1351
   49CHL1   C14 3568   3.215   6.053   7.271 -0.3086  0.1789  0.4989
   49CHL1   H14 3569   3.313   6.010   7.242 -0.8519 -0.1004 -0.9857
   49CHL1   C15 3570   3.138   5.959   7.365  0.2065  0.2005  0.5100
   49CHL1  H15A 3571   3.035   6.002   7.374 -0.6348 -1.8072  0.6706
   49CHL1  H15B 3572   3.131   5.858   7.319  0.0967 -0.3595  1.7574
   49CHL1   C16 3573   3.222   5.978   7.488  0.4772 -0.3692  0.7691
   49CHL1  H16A 3574   3.138   5.973   7.561  0.1726 -0.5782  0.4044
   49CHL1  H16B 3575   3.291   5.893   7.506  2.1938  0.6802 -0.6596
   49CHL1   C17 3576   3.307   6.110   7.471 -0.1527  0.4196 -0.0286
   49CHL1   H17 3577   3.411   6.081   7.443 -0.6627 -0.9272 -0.5353
   49CHL1   C13 3578   3.247   6.178   7.347 -0.2894 -0.3909  0.3768
   49CHL1   C18 3579   3.128   6.258   7.394  0.4151  0.9658  0.1330
   49CHL1  H18A 3580   3.060   6.201   7.460  1.4465 -0.3842  0.0627
   49CHL1  H18B 3581   3.151   6.349   7.453  1.7872  1.4910 -1.1532
   49CHL1  H18C 3582   3.066   6.281   7.304  1.7617  2.0523 -0.5308
   49CHL1   C12 3583   3.349   6.273   7.265 -0.0891  0.7480 -0.5981
   49CHL1  H12A 3584   3.372   6.372   7.310  0.0376  0.7739 -0.7207
   49CHL1  H12B 3585   3.433   6.211   7.229 -1.0005  0.4443 -2.2417
   49CHL1   C11 3586   3.286   6.304   7.134  0.2397  0.4361 -0.4085
   49CHL1  H11A 3587   3.191   6.361   7.147 -1.3117 -1.9125 -1.1569
   49CHL1  H11B 3588   3.363   6.365   7.082  1.9180 -0.5550  0.8765
   49CHL1    C9 3589   3.254   6.179   7.053 -0.9983 -0.3760  0.7382
   49CHL1    H9 3590   3.348   6.120   7.050  0.3443  1.7270 -0.5678
   49CHL1   C10 3591   3.219   6.198   6.902  0.3667 -0.4073  0.7370
   49CHL1   C19 3592   3.114   6.315   6.886  0.1870 -0.4906  0.5754
   49CHL1  H19A 3593   3.026   6.297   6.951  1.6152  1.6162  3.1715
   49CHL1  H19B 3594   3.161   6.415   6.901  0.3309 -0.4669 -0.0029
   49CHL1  H19C 3595   3.074   6.320   6.782 -1.9894 -2.4498  1.2886
   49CHL1    C1 3596   3.356   6.238   6.832 -0.0088 -0.6374  0.0608
   49CHL1   H1A 3597   3.379   6.343   6.858  0.0015  0.6350 -4.5722
   49CHL1   H1B 3598   3.442   6.183   6.876  0.7093 -0.6898 -1.3748
   49CHL1    C2 3599   3.379   6.223   6.678  0.2740  0.3847  0.5827
   49CHL1   H2A 3600   3.484   6.247   6.651 -0.1572  4.4042  2.1166
   49CHL1   H2B 3601   3.309   6.286   6.620  0.0188 -0.9506 -0.5932
   49CHL1   C20 3602   3.320   6.180   7.609 -0.3099  0.2112 -0.1394
   49CHL1   H20 3603   3.219   6.206   7.646 -0.0302 -0.3352  1.0341
   49CHL1   C21 3604   3.402   6.313   7.598  0.4135  0.5013 -0.6401
   49CHL1  H21A 3605   3.403   6.358   7.700  0.1988 -0.6515 -0.1172
   49CHL1  H21B 3606   3.354   6.391   7.534  0.6299  2.3136  1.3294
   49CHL1  H21C 3607   3.505   6.290   7.566 -0.0790 -2.4997 -0.1792
   49CHL1   C22 3608   3.378   6.086   7.710  0.7853  0.5049 -0.2265
   49CHL1  H22A 3609   3.317   5.993   7.705 -2.3957  2.5597 -0.8874
   49CHL1  H22B 3610   3.482   6.060   7.682  1.5809  0.6375  2.4951
   49CHL1   C23 3611   3.375   6.128   7.858 -0.5057  0.8555 -0.1492
   49CHL1  H23A 3612   3.440   6.218   7.853 -0.4431  0.7880 -0.5905
   49CHL1  H23B 3613   3.269   6.147   7.886 -0.3680  0.3845  0.6931
   49CHL1   C24 3614   3.435   6.028   7.951 -0.0868  0.7761 -0.4509
   49CHL1  H24A 3615   3.357   5.949   7.960  0.2883  0.2053 -2.0646
   49CHL1  H24B 3616   3.534   5.991   7.918 -0.4510 -0.0880 -0.5829
   49CHL1   C25 3617   3.438   6.094   8.093  0.3778 -0.4804  0.1002
   49CHL1   H25 3618   3.512   6.175   8.110  2.0807 -1.9201 -0.3375
   49CHL1   C26 3619   3.301   6.148   8.143  0.0584 -0.7357  0.2495
   49CHL1  H26A 3620   3.281   6.252   8.108 -0.8387 -1.1224 -0.4049
   49CHL1  H26B 3621   3.210   6.090   8.114 -0.8759  0.4323  0.8129
   49CHL1  H26C 3622   3.325   6.162   8.250  2.7041 -0.1450 -0.3777
   49CHL1   C27 3623   3.501   5.988   8.185 -0.0066 -0.7548 -0.2430
   49CHL1  H27A 3624   3.445   5.892   8.176 -1.1392 -0.2341  0.9978
   49CHL1  H27B 3625   3.603   5.956   8.157 -0.1196 -0.6209 -0.8103
   49CHL1  H27C 3626   3.505   6.032   8.287 -0.5778 -2.4880  0.5519
   50CHL1    C3 3627   3.729   0.464   6.824  0.6467  0.2144 -0.1481
   50CHL1    H3 3628   3.641   0.523   6.857  1.3405  1.7821 -1.0043
   50CHL1    O3 3629   3.683   0.394   6.711 -0.3943 -0.2376  0.1775
   50CHL1   H3' 3630   3.748   0.324   6.694 -1.7853 -1.0235 -2.1574
   50CHL1    C4 3631   3.847   0.555   6.782  0.1734 -0.1137 -0.3592
   50CHL1   H4A 3632   3.928   0.486   6.747 -0.3143 -0.7551 -0.2361
   50CHL1   H4B 3633   3.827   0.613   6.689 -0.6127 -0.9461 -0.7200
   50CHL1    C5 3634   3.896   0.645   6.894 -0.7023 -0.3905 -0.2490
   50CHL1    C6 3635   3.908   0.779   6.887 -0.2162 -1.2124  0.9172
   50CHL1    H6 3636   3.881   0.816   6.787  2.3600  0.4712  0.8090
   50CHL1    C7 3637   3.957   0.869   6.994 -0.7368  1.1723  1.2560
   50CHL1   H7A 3638   4.034   0.940   6.958  1.8079 -2.2258 -0.2022
   50CHL1   H7B 3639   3.875   0.917   7.052 -0.8654  0.3164  1.7934
   50CHL1    C8 3640   4.030   0.782   7.107  0.2556  0.1439 -0.8251
   50CHL1    H8 3641   4.130   0.751   7.069 -0.3559 -2.3449 -0.4509
   50CHL1   C14 3642   4.055   0.862   7.236  0.5202 -0.0312 -0.6010
   50CHL1   H14 3643   3.956   0.880   7.282  2.2211  1.5017  2.5946
   50CHL1   C15 3644   4.108   1.004   7.224 -1.0058  0.4827 -0.1822
   50CHL1  H15A 3645   4.203   1.014   7.168 -2.2621  0.4184 -2.3704
   50CHL1  H15B 3646   4.031   1.078   7.195  0.0939  3.1861  3.4962
   50CHL1   C16 3647   4.145   1.033   7.371  0.1122  0.0836 -0.3641
   50CHL1  H16A 3648   4.246   1.078   7.380  0.7290 -1.3330 -0.0370
   50CHL1  H16B 3649   4.067   1.096   7.419  1.1963  3.3358 -2.6791
   50CHL1   C17 3650   4.131   0.899   7.456  0.5174 -0.4141  0.2710
   50CHL1   H17 3651   4.030   0.898   7.501 -0.1879 -0.3662 -1.2539
   50CHL1   C13 3652   4.128   0.790   7.353 -0.2784  0.6656 -0.1606
   50CHL1   C18 3653   4.277   0.750   7.307  0.1280 -0.2129 -0.0629
   50CHL1  H18A 3654   4.334   0.841   7.277 -1.8858  1.2487  0.4277
   50CHL1  H18B 3655   4.323   0.697   7.393 -0.8563  1.3871  1.4773
   50CHL1  H18C 3656   4.260   0.692   7.213 -0.9981 -0.1081  0.0611
   50CHL1   C12 3657   4.051   0.665   7.386 -0.1422  0.2054  0.6088
   50CHL1  H12A 3658   4.105   0.602   7.460 -0.9581 -0.0887  0.9541
   50CHL1  H12B 3659   3.963   0.693   7.448  0.8168  1.9484  1.2437
   50CHL1   C11 3660   4.023   0.580   7.270  0.2838  0.0977 -0.3664
   50CHL1  H11A 3661   4.118   0.527   7.247  0.7850  1.4683 -1.5781
   50CHL1  H11B 3662   3.956   0.501   7.310  0.4013 -1.2365 -2.6900
   50CHL1    C9 3663   3.957   0.655   7.144  0.6124  0.5757  0.2847
   50CHL1    H9 3664   3.858   0.687   7.182  0.7678  0.5178  0.7465
   50CHL1   C10 3665   3.928   0.566   7.017  0.2316 -0.0977  0.0827
   50CHL1   C19 3666   4.059   0.492   6.991 -0.1332  0.6767 -0.4472
   50CHL1  H19A 3667   4.094   0.427   7.074 -0.2076  1.9909  0.6388
   50CHL1  H19B 3668   4.051   0.422   6.905 -0.3829  0.3759 -0.1836
   50CHL1  H19C 3669   4.136   0.570   6.971 -0.8024  1.3699 -0.3450
   50CHL1    C1 3670   3.822   0.465   7.061 -0.2664  0.1795  0.2244
   50CHL1   H1A 3671   3.856   0.399   7.144  0.7249 -1.0841 -1.1663
   50CHL1   H1B 3672   3.736   0.527   7.097 -0.8160  0.3357 -1.3205
   50CHL1    C2 3673   3.766   0.377   6.947  0.1285 -0.0823  0.0546
   50CHL1   H2A 3674   3.678   0.318   6.981  1.1543 -1.5102  0.2527
   50CHL1   H2B 3675   3.848   0.313   6.908 -0.4687  0.1036 -1.5400
   50CHL1   C20 3676   4.224   0.908   7.579 -0.1011 -0.1529  0.0042
   50CHL1   H20 3677   4.324   0.902   7.532  0.8911  0.6755  1.9778
   50CHL1   C21 3678   4.212   0.786   7.658 -0.3538 -0.2025 -0.6988
   50CHL1  H21A 3679   4.117   0.755   7.705 -0.0423 -0.1861 -0.0575
   50CHL1  H21B 3680   4.280   0.792   7.746  0.7630  0.4825 -1.5918
   50CHL1  H21C 3681   4.243   0.694   7.604 -1.6919 -1.4598  0.6491
   50CHL1   C22 3682   4.211   1.030   7.669  0.0745 -0.4001 -0.0256
   50CHL1  H22A 3683   4.295   1.024   7.741  0.0775  1.7239  0.1635
   50CHL1  H22B 3684   4.216   1.122   7.608 -1.8767  0.5826  1.2585
   50CHL1   C23 3685   4.076   1.044   7.750 -0.0766  0.6562 -0.2814
   50CHL1  H23A 3686   3.993   1.079   7.684 -0.0984  0.2525 -0.4675
   50CHL1  H23B 3687   4.042   0.947   7.792 -0.5488  0.5587 -0.8800
   50CHL1   C24 3688   4.095   1.136   7.871  0.0329  0.1287 -0.5274
   50CHL1  H24A 3689   4.158   1.079   7.943 -0.6670  0.4650  0.3550
   50CHL1  H24B 3690   4.151   1.227   7.839 -0.2955  0.4151 -0.2954
   50CHL1   C25 3691   3.973   1.180   7.958 -0.2941  0.0256 -0.0348
   50CHL1   H25 3692   3.919   1.092   7.999  0.1461 -0.6592 -0.9074
   50CHL1   C26 3693   4.015   1.281   8.063  0.0155 -0.3230 -0.1081
   50CHL1  H26A 3694   3.925   1.307   8.123  0.3024  0.4534 -0.0050
   50CHL1  H26B 3695   4.084   1.233   8.135 -0.6611 -1.5546 -0.2712
   50CHL1  H26C 3696   4.051   1.377   8.020  0.0778  1.0088  2.7602
   50CHL1   C27 3697   3.876   1.252   7.865 -0.1890 -0.0010 -0.3107
   50CHL1  H27A 3698   3.925   1.340   7.817 -0.4211  0.6551  0.6507
   50CHL1  H27B 3699   3.836   1.196   7.778 -3.4934 -0.1891  1.2681
   50CHL1  H27C 3700   3.791   1.281   7.930 -2.8912 -1.7679 -2.9194
   51CHL1    C3 3701   3.794   6.373   7.078 -0.3667 -0.4350 -0.7453
   51CHL1    H3 3702   3.769   6.463   7.139  0.1680 -1.5522  1.1641
   51CHL1    O3 3703   3.770   6.402   6.946 -0.3218 -0.2760  0.1989
   51CHL1   H3' 3704   3.818   6.336   6.895 -0.0127 -0.0206  0.1578
   51CHL1    C4 3705   3.942   6.338   7.103 -0.5543  0.3240  0.1469
   51CHL1   H4A 3706   3.957   6.238   7.055  1.7652 -0.2369  1.9848
   51CHL1   H4B 3707   4.009   6.409   7.050 -1.2088 -1.3713 -3.0827
   51CHL1    C5 3708   3.969   6.320   7.255  0.8043 -0.1571  1.2007
   51CHL1    C6 3709   4.067   6.379   7.322  0.4301  0.1969 -0.1382
   51CHL1    H6 3710   4.132   6.448   7.265 -0.7600  0.7243 -0.8687
   51CHL1    C7 3711   4.097   6.353   7.468 -0.1194  0.0699  0.2106
   51CHL1   H7A 3712   4.204   6.362   7.495  0.0593 -1.9942  0.3042
   51CHL1   H7B 3713   4.052   6.436   7.525 -1.7379 -0.6918  0.0762
   51CHL1    C8 3714   4.023   6.226   7.528 -0.0445  0.2302  0.4601
   51CHL1    H8 3715   4.078   6.134   7.500  1.3887  1.6326 -1.4338
   51CHL1   C14 3716   4.026   6.259   7.689  0.7679 -0.2930  0.1113
   51CHL1   H14 3717   3.973   6.356   7.695  1.4115  0.1903 -1.6038
   51CHL1   C15 3718   4.152   6.285   7.770 -0.2059 -1.0400 -0.2605
   51CHL1  H15A 3719   4.230   6.208   7.753  3.1132  1.9418  0.6791
   51CHL1  H15B 3720   4.191   6.384   7.737  1.0780 -1.4039  0.1318
   51CHL1   C16 3721   4.101   6.285   7.916  0.3672  0.6802  0.3992
   51CHL1  H16A 3722   4.179   6.229   7.972  1.4207  0.2400 -1.4700
   51CHL1  H16B 3723   4.081   6.388   7.954  0.6515  0.5614  0.8778
   51CHL1   C17 3724   3.969   6.207   7.915  0.4396  1.0905 -0.2225
   51CHL1   H17 3725   3.896   6.289   7.933 -0.6144  0.1365 -0.0941
   51CHL1   C13 3726   3.950   6.154   7.768 -0.6203  0.1921 -0.3837
   51CHL1   C18 3727   4.027   6.020   7.756 -0.3395 -0.1737 -0.3380
   51CHL1  H18A 3728   4.037   6.000   7.647 -3.7494 -0.2537 -0.7004
   51CHL1  H18B 3729   4.128   6.021   7.802  0.6398  0.9526 -2.4534
   51CHL1  H18C 3730   3.977   5.929   7.796 -0.8978  0.8833  1.4129
   51CHL1   C12 3731   3.801   6.156   7.716 -0.0066  0.6200 -0.2412
   51CHL1  H12A 3732   3.743   6.071   7.757  0.1865 -1.0962 -3.3475
   51CHL1  H12B 3733   3.753   6.250   7.750 -1.7518 -0.2759 -0.1873
   51CHL1   C11 3734   3.797   6.130   7.563 -0.2668 -0.2744 -0.2483
   51CHL1  H11A 3735   3.810   6.021   7.542  0.5758 -0.0204 -1.0778
   51CHL1  H11B 3736   3.691   6.146   7.534 -0.7309 -0.0297  1.5257
   51CHL1    C9 3737   3.878   6.225   7.477 -0.4015 -0.6600  0.4804
   51CHL1    H9 3738   3.841   6.327   7.503  0.1487 -0.1792 -0.5872
   51CHL1   C10 3739   3.870   6.220   7.322  0.8364 -0.1031 -0.6165
   51CHL1   C19 3740   3.910   6.079   7.284 -0.3963  0.5332  0.6534
   51CHL1  H19A 3741   3.837   6.000   7.312 -0.1016 -0.4141 -1.1061
   51CHL1  H19B 3742   3.920   6.054   7.176  2.2549 -2.3314  1.4908
   51CHL1  H19C 3743   4.007   6.037   7.319 -0.4729 -1.9653 -1.8506
   51CHL1    C1 3744   3.722   6.241   7.273 -0.1260  0.2879  0.2251
   51CHL1   H1A 3745   3.658   6.158   7.310 -0.6978  0.9814  0.7946
   51CHL1   H1B 3746   3.683   6.331   7.324 -0.1737  0.2425  0.2678
   51CHL1    C2 3747   3.699   6.263   7.128 -0.5784  0.6355  0.2706
   51CHL1   H2A 3748   3.594   6.281   7.100 -0.5714  1.4992  0.7907
   51CHL1   H2B 3749   3.729   6.162   7.091  0.3023  1.5297 -1.4957
   51CHL1   C20 3750   3.955   6.120   8.038  0.7349 -0.0656  0.0340
   51CHL1   H20 3751   4.038   6.047   8.033  2.3909  1.8941 -2.2234
   51CHL1   C21 3752   3.822   6.052   8.022  0.3684  0.6210 -0.5077
   51CHL1  H21A 3753   3.816   5.979   7.939 -0.3623  1.2249 -0.9891
   51CHL1  H21B 3754   3.740   6.127   8.019 -2.0195 -1.8909 -0.2695
   51CHL1  H21C 3755   3.809   5.994   8.116 -1.3102  0.2619 -0.9528
   51CHL1   C22 3756   3.971   6.192   8.173  0.7453  0.4927 -0.1678
   51CHL1  H22A 3757   3.998   6.108   8.241 -2.2197  0.0358  0.5050
   51CHL1  H22B 3758   4.056   6.263   8.160  0.2144  1.3926  1.1700
   51CHL1   C23 3759   3.853   6.262   8.237  0.5614 -0.2711 -0.0786
   51CHL1  H23A 3760   3.803   6.315   8.153 -2.4286  1.6153  2.7750
   51CHL1  H23B 3761   3.780   6.190   8.278 -1.1723  1.5854  0.1643
   51CHL1   C24 3762   3.900   6.348   8.350  0.1951 -0.0995 -0.0622
   51CHL1  H24A 3763   3.967   6.286   8.413  3.3651  3.8537  0.6818
   51CHL1  H24B 3764   3.954   6.433   8.303  1.1260  0.5963  2.1880
   51CHL1   C25 3765   3.791   6.415   8.430 -0.6753 -0.3318 -0.2934
   51CHL1   H25 3766   3.832   6.451   8.527 -2.5894 -1.1140  0.8354
   51CHL1   C26 3767   3.742   6.540   8.356  0.8187 -0.6016  0.7039
   51CHL1  H26A 3768   3.821   6.616   8.340 -0.6010  0.9808  1.0349
   51CHL1  H26B 3769   3.702   6.516   8.256 -1.7361 -1.9117  1.9819
   51CHL1  H26C 3770   3.663   6.591   8.416 -0.7614 -0.3474 -1.5411
   51CHL1   C27 3771   3.668   6.323   8.464  0.0045  0.5326  0.4596
   51CHL1  H27A 3772   3.591   6.391   8.507 -0.3448 -0.3482  1.2461
   51CHL1  H27B 3773   3.628   6.284   8.368  1.7974  0.0138 -0.0936
   51CHL1  H27C 3774   3.696   6.247   8.540  0.4447 -0.9339 -1.1442
   52CHL1    C3 3775   5.335   1.561   6.916  0.2933  0.0286  0.1874
   52CHL1    H3 3776   5.297   1.666   6.909  0.9303  0.2903  0.6567
   52CHL1    O3 3777   5.337   1.520   6.778 -0.5251 -0.1402  0.4329
   52CHL1   H3' 3778   5.242   1.524   6.763 -0.2655  1.0958 -0.9162
   52CHL1    C4 3779   5.479   1.545   6.966  0.2673  0.3803 -0.3504
   52CHL1   H4A 3780   5.517   1.443   6.946 -2.0588 -0.1878 -2.0551
   52CHL1   H4B 3781   5.548   1.606   6.904  0.6138  1.6225  1.2335
   52CHL1    C5 3782   5.496   1.573   7.111 -0.5116  0.3602  0.8738
   52CHL1    C6 3783   5.590   1.665   7.144 -0.6938 -0.5227  0.0353
   52CHL1    H6 3784   5.654   1.712   7.068  1.3445 -1.9411  0.8254
   52CHL1    C7 3785   5.610   1.723   7.277 -0.8628 -0.9413  0.1710
   52CHL1   H7A 3786   5.718   1.732   7.301 -0.7550 -1.6934 -0.0102
   52CHL1   H7B 3787   5.564   1.824   7.288  2.3826  0.5748  0.4995
   52CHL1    C8 3788   5.546   1.628   7.384  1.0222 -0.0554 -0.3650
   52CHL1    H8 3789   5.600   1.531   7.370 -0.4796 -0.8663 -0.6203
   52CHL1   C14 3790   5.559   1.690   7.524 -0.3155  0.4100 -0.4658
   52CHL1   H14 3791   5.501   1.784   7.514  0.9746  1.1934 -0.6774
   52CHL1   C15 3792   5.699   1.736   7.577 -0.0405  0.7467 -0.6150
   52CHL1  H15A 3793   5.764   1.647   7.566  1.0814  1.1925  2.0980
   52CHL1  H15B 3794   5.738   1.826   7.525 -0.8616 -0.4460 -3.3822
   52CHL1   C16 3795   5.681   1.757   7.731 -0.4656 -0.3910 -0.4081
   52CHL1  H16A 3796   5.749   1.705   7.802  0.4809  1.0589 -0.2451
   52CHL1  H16B 3797   5.688   1.864   7.758 -0.1520 -1.0702  2.3659
   52CHL1   C17 3798   5.536   1.701   7.763  0.3891  0.2929 -0.4626
   52CHL1   H17 3799   5.463   1.785   7.758  0.0139 -0.1620 -3.0864
   52CHL1   C13 3800   5.498   1.612   7.641 -0.0707 -0.2230 -0.3652
   52CHL1   C18 3801   5.571   1.479   7.654 -0.4297  0.0128 -0.9872
   52CHL1  H18A 3802   5.554   1.418   7.562  0.1841 -2.0321  0.2181
   52CHL1  H18B 3803   5.679   1.497   7.673 -0.9605 -1.3361  4.0519
   52CHL1  H18C 3804   5.540   1.410   7.735  0.4676 -0.4407 -1.0180
   52CHL1   C12 3805   5.347   1.590   7.606  0.0560 -0.5506  0.6687
   52CHL1  H12A 3806   5.282   1.538   7.680 -0.4276 -1.4139 -0.3533
   52CHL1  H12B 3807   5.293   1.686   7.589  0.3896 -0.3731  0.6222
   52CHL1   C11 3808   5.326   1.518   7.467  0.8955  0.4882  0.0464
   52CHL1  H11A 3809   5.366   1.415   7.472 -2.8897 -1.0157  1.3040
   52CHL1  H11B 3810   5.218   1.516   7.439  1.0279  2.1146 -0.6281
   52CHL1    C9 3811   5.395   1.592   7.348 -0.1502  0.6963  0.4341
   52CHL1    H9 3812   5.339   1.688   7.338 -2.8408 -0.8289  0.5821
   52CHL1   C10 3813   5.388   1.518   7.208 -0.8715  0.3312 -0.4626
   52CHL1   C19 3814   5.411   1.367   7.229 -0.1283  0.7325 -1.0059
   52CHL1  H19A 3815   5.327   1.323   7.288 -0.2340 -1.7566 -2.9606
   52CHL1  H19B 3816   5.424   1.318   7.130  2.2846 -0.9301  0.0951
   52CHL1  H19C 3817   5.498   1.351   7.296 -0.6901 -1.0264 -0.6754
   52CHL1    C1 3818   5.251   1.543   7.150 -0.4788 -0.3630  0.1680
   52CHL1   H1A 3819   5.171   1.501   7.214 -0.1579 -1.2138  0.0251
   52CHL1   H1B 3820   5.248   1.654   7.147  0.9236 -0.2488  1.8575
   52CHL1    C2 3821   5.229   1.497   7.006 -0.2171  0.0817  0.2048
   52CHL1   H2A 3822   5.127   1.529   6.976 -1.1006 -1.4974  1.4140
   52CHL1   H2B 3823   5.244   1.387   6.993  0.1128  0.1499  0.0225
   52CHL1   C20 3824   5.527   1.648   7.912 -0.0806 -0.1895 -0.2099
   52CHL1   H20 3825   5.602   1.567   7.917  0.2336  0.2036  1.7238
   52CHL1   C21 3826   5.386   1.595   7.945  0.2218  0.2618 -0.2693
   52CHL1  H21A 3827   5.316   1.678   7.921 -1.2390 -0.4499  1.4954
   52CHL1  H21B 3828   5.359   1.570   8.049  0.0901  1.8439  0.0922
   52CHL1  H21C 3829   5.354   1.512   7.878 -1.6593 -0.8589  1.9485
   52CHL1   C22 3830   5.570   1.746   8.020  0.7737  0.0983  0.5230
   52CHL1  H22A 3831   5.659   1.803   7.987 -0.4502  1.1037 -1.0907
   52CHL1  H22B 3832   5.489   1.820   8.038  0.2482 -0.2074 -0.5826
   52CHL1   C23 3833   5.621   1.682   8.148 -0.5686  0.1017 -0.4066
   52CHL1  H23A 3834   5.548   1.610   8.191 -1.6435  0.8398 -0.9577
   52CHL1  H23B 3835   5.721   1.638   8.129  0.0143  0.3515  1.9961
   52CHL1   C24 3836   5.639   1.795   8.252  0.1982  0.3875 -0.4396
   52CHL1  H24A 3837   5.722   1.865   8.227  0.5566 -0.2578 -1.0667
   52CHL1  H24B 3838   5.546   1.852   8.275 -0.2291 -0.6922  0.5456
   52CHL1   C25 3839   5.672   1.742   8.392 -0.1657 -0.5559  0.2246
   52CHL1   H25 3840   5.591   1.675   8.429  0.2695  0.0986  2.4115
   52CHL1   C26 3841   5.805   1.664   8.395 -0.2131  0.2224  1.2181
   52CHL1  H26A 3842   5.837   1.665   8.502  0.3827 -0.0528  1.0415
   52CHL1  H26B 3843   5.803   1.561   8.353  0.9773  0.5094  0.4303
   52CHL1  H26C 3844   5.873   1.732   8.340  0.0063 -0.0950  1.0968
   52CHL1   C27 3845   5.681   1.862   8.493  0.2236 -0.4450  0.3019
   52CHL1  H27A 3846   5.697   1.823   8.595 -0.9364  3.7260  2.2036
   52CHL1  H27B 3847   5.766   1.928   8.466 -0.9914  0.3218 -1.7646
   52CHL1  H27C 3848   5.588   1.923   8.491  0.6367  0.1800 -0.9802
   53CHL1    C3 3849   1.979   3.974   6.994  0.5954  0.3540 -0.6442
   53CHL1    H3 3850   1.960   4.081   6.974 -0.9824  0.4314  1.0841
   53CHL1    O3 3851   1.983   3.901   6.875  0.2744 -0.0989  0.3882
   53CHL1   H3' 3852   2.029   3.962   6.816  2.3229 -1.6946  0.2801
   53CHL1    C4 3853   2.118   3.965   7.066 -0.0370  0.5560  0.2830
   53CHL1   H4A 3854   2.147   3.862   7.094  0.2093  0.2839 -0.9268
   53CHL1   H4B 3855   2.188   4.000   6.987  1.1852  2.0216  1.9935
   53CHL1    C5 3856   2.117   4.051   7.186 -0.3662  0.1012 -0.1212
   53CHL1    C6 3857   2.194   4.159   7.199 -0.8153  0.0268  0.0709
   53CHL1    H6 3858   2.261   4.182   7.115  0.6236 -2.7064  0.4200
   53CHL1    C7 3859   2.211   4.236   7.331 -0.1356  0.0682  0.1219
   53CHL1   H7A 3860   2.317   4.243   7.361  0.0527  0.2061 -0.5737
   53CHL1   H7B 3861   2.154   4.332   7.331 -1.4354 -0.6769  0.8306
   53CHL1    C8 3862   2.144   4.169   7.453  1.1127 -0.2360 -1.2090
   53CHL1    H8 3863   2.211   4.085   7.483  1.3447 -0.6256 -2.7871
   53CHL1   C14 3864   2.125   4.267   7.564 -0.0085  0.1993  0.0808
   53CHL1   H14 3865   2.058   4.353   7.538 -2.4030 -2.3557 -2.5786
   53CHL1   C15 3866   2.249   4.337   7.607 -0.1228 -0.2314  0.1925
   53CHL1  H15A 3867   2.328   4.259   7.617 -0.9170 -1.0619  0.1276
   53CHL1  H15B 3868   2.270   4.412   7.528 -0.2958 -0.7633 -0.3691
   53CHL1   C16 3869   2.219   4.399   7.749  0.0841 -0.2362  0.2976
   53CHL1  H16A 3870   2.311   4.375   7.806  0.5454 -0.6179 -0.6010
   53CHL1  H16B 3871   2.212   4.509   7.732  2.0307 -0.2802 -0.9210
   53CHL1   C17 3872   2.088   4.334   7.783 -0.7440 -0.5044 -0.7117
   53CHL1   H17 3873   2.004   4.399   7.752  0.2241  2.1105  1.9066
   53CHL1   C13 3874   2.073   4.207   7.694  0.1355  0.1419  0.3210
   53CHL1   C18 3875   2.162   4.094   7.746 -0.7436 -0.1257 -0.3820
   53CHL1  H18A 3876   2.127   4.060   7.846 -0.5935  0.3445 -0.1693
   53CHL1  H18B 3877   2.160   4.007   7.676 -0.7207  1.1068 -1.9360
   53CHL1  H18C 3878   2.267   4.129   7.755 -1.6161  2.9646 -1.7820
   53CHL1   C12 3879   1.931   4.148   7.660 -0.3881 -0.3567  0.5414
   53CHL1  H12A 3880   1.886   4.098   7.749 -0.1741 -0.6283  0.4980
   53CHL1  H12B 3881   1.869   4.236   7.632 -1.3481 -0.7425  1.4242
   53CHL1   C11 3882   1.926   4.056   7.540 -0.7020 -0.1771 -0.0719
   53CHL1  H11A 3883   1.964   3.956   7.570 -1.3813 -0.7224 -1.0152
   53CHL1  H11B 3884   1.823   4.040   7.501 -1.4782  0.8177  1.4803
   53CHL1    C9 3885   2.014   4.110   7.416  0.5319  0.3427 -0.4706
   53CHL1    H9 3886   1.956   4.193   7.370 -2.8226 -1.7870 -0.2479
   53CHL1   C10 3887   2.026   4.004   7.297 -0.2316  0.0795 -0.0688
   53CHL1   C19 3888   2.056   3.863   7.346 -0.5051 -0.7417 -0.3274
   53CHL1  H19A 3889   2.158   3.869   7.391  0.7745  0.6977 -3.2567
   53CHL1  H19B 3890   1.979   3.842   7.423 -0.7005 -0.9011 -0.5657
   53CHL1  H19C 3891   2.053   3.776   7.278  0.0027 -1.0803  0.0816
   53CHL1    C1 3892   1.885   4.002   7.227 -0.0353 -0.2992  0.8189
   53CHL1   H1A 3893   1.809   3.956   7.293 -1.4048  0.4349 -0.2409
   53CHL1   H1B 3894   1.849   4.105   7.205  0.1008  0.2034  2.8776
   53CHL1    C2 3895   1.873   3.926   7.094  0.6647  1.1138 -0.3331
   53CHL1   H2A 3896   1.770   3.940   7.054 -1.1405 -3.0798  2.4994
   53CHL1   H2B 3897   1.880   3.816   7.112 -1.0587  0.7264 -1.9356
   53CHL1   C20 3898   2.079   4.314   7.937 -0.6024  0.2242 -0.4154
   53CHL1   H20 3899   2.140   4.226   7.965 -1.2441  0.6571  2.4322
   53CHL1   C21 3900   1.931   4.286   7.983  0.0788  0.1689 -0.3714
   53CHL1  H21A 3901   1.925   4.263   8.092 -1.5599  1.7200 -0.1159
   53CHL1  H21B 3902   1.871   4.211   7.928  0.2324 -1.2518  1.3479
   53CHL1  H21C 3903   1.875   4.378   7.955  1.0890  0.2249 -2.3182
   53CHL1   C22 3904   2.134   4.430   8.029  0.0685 -0.2683  0.4451
   53CHL1  H22A 3905   2.244   4.442   8.020 -0.0548  2.1975  2.0318
   53CHL1  H22B 3906   2.077   4.519   7.995 -0.1045 -0.2742  0.7249
   53CHL1   C23 3907   2.111   4.406   8.178 -0.7714 -0.7158 -0.8196
   53CHL1  H23A 3908   2.005   4.419   8.209 -0.8413 -1.0200 -0.9318
   53CHL1  H23B 3909   2.144   4.302   8.199  1.4226  0.2622  0.8558
   53CHL1   C24 3910   2.197   4.499   8.267  0.0824 -0.4399 -0.1688
   53CHL1  H24A 3911   2.305   4.481   8.246  0.1908  2.0065 -1.8579
   53CHL1  H24B 3912   2.175   4.605   8.244  0.5696 -1.0319 -3.7214
   53CHL1   C25 3913   2.172   4.490   8.417 -0.9190 -0.0822 -0.4727
   53CHL1   H25 3914   2.259   4.542   8.462 -0.9491  1.1991 -1.8574
   53CHL1   C26 3915   2.040   4.555   8.449 -0.1944  1.0515  0.0978
   53CHL1  H26A 3916   2.004   4.538   8.553 -1.8741 -1.7669 -0.8863
   53CHL1  H26B 3917   2.045   4.665   8.435 -2.2950  1.5431  2.7760
   53CHL1  H26C 3918   1.963   4.519   8.378  0.5653 -0.8390  0.1877
   53CHL1   C27 3919   2.184   4.341   8.461 -0.6661  0.4996 -0.0664
   53CHL1  H27A 3920   2.180   4.334   8.572 -0.2502  0.0139 -0.0810
   53CHL1  H27B 3921   2.097   4.285   8.421  0.1969 -1.8094  1.2132
   53CHL1  H27C 3922   2.279   4.298   8.425 -0.1994  0.8173  0.7578
   54CHL1    C3 3923   2.057   5.760   6.995  0.4511 -0.4530 -0.1452
   54CHL1    H3 3924   1.967   5.717   7.044 -0.0973 -0.0195 -0.7684
   54CHL1    O3 3925   2.032   5.763   6.858  0.3980 -0.6774  0.5581
   54CHL1   H3' 3926   2.118   5.788   6.826 -0.1905  1.1623  0.4015
   54CHL1    C4 3927   2.085   5.905   7.037 -0.0267  0.5976 -0.1906
   54CHL1   H4A 3928   2.183   5.935   6.995  0.5971  0.5857  1.2195
   54CHL1   H4B 3929   2.003   5.971   7.001  0.8272  0.4262 -2.4641
   54CHL1    C5 3930   2.111   5.907   7.185 -0.0216 -0.3225  0.0885
   54CHL1    C6 3931   2.040   5.990   7.267 -0.5102  0.1209 -0.3505
   54CHL1    H6 3932   1.965   6.059   7.228 -0.7747 -1.0474 -1.9601
   54CHL1    C7 3933   2.050   5.994   7.417 -0.1826  0.8667 -0.0072
   54CHL1   H7A 3934   2.046   6.094   7.465  0.5935  0.4447  0.9615
   54CHL1   H7B 3935   1.966   5.940   7.466 -0.5771  2.1359  0.7339
   54CHL1    C8 3936   2.170   5.909   7.474  0.0506 -0.5997  0.3287
   54CHL1    H8 3937   2.262   5.966   7.451 -0.0534 -0.7706 -0.5261
   54CHL1   C14 3938   2.155   5.889   7.618 -0.0463 -0.0235  0.3157
   54CHL1   H14 3939   2.067   5.822   7.630  0.4358 -0.3407  2.3761
   54CHL1   C15 3940   2.126   6.011   7.701 -0.2349  0.4958 -0.1410
   54CHL1  H15A 3941   2.198   6.088   7.665 -0.5297  0.3529 -1.0562
   54CHL1  H15B 3942   2.020   6.039   7.684  0.1221  0.7805 -2.0964
   54CHL1   C16 3943   2.151   5.960   7.841 -0.1539 -0.0023 -0.7551
   54CHL1  H16A 3944   2.210   6.029   7.905  0.3334 -1.5118  0.4482
   54CHL1  H16B 3945   2.054   5.962   7.896 -0.0196 -0.2648 -0.5107
   54CHL1   C17 3946   2.231   5.820   7.829  0.3169 -0.5045 -0.2633
   54CHL1   H17 3947   2.156   5.739   7.842 -2.0282  1.7680  0.8413
   54CHL1   C13 3948   2.275   5.816   7.684  0.0391  0.0547 -0.2181
   54CHL1   C18 3949   2.407   5.900   7.677 -0.3249 -0.2249  0.5553
   54CHL1  H18A 3950   2.422   5.935   7.573 -0.9370  0.5928  0.7398
   54CHL1  H18B 3951   2.408   5.992   7.739  2.1948 -1.0181  1.7943
   54CHL1  H18C 3952   2.495   5.834   7.695  1.4324  1.7009 -0.7660
   54CHL1   C12 3953   2.282   5.677   7.614  0.0401  0.2570 -0.2677
   54CHL1  H12A 3954   2.370   5.626   7.658 -0.7004 -0.4303  0.4274
   54CHL1  H12B 3955   2.182   5.629   7.624  0.5506 -0.3458  2.1815
   54CHL1   C11 3956   2.300   5.687   7.459 -0.2026 -0.1874  0.1600
   54CHL1  H11A 3957   2.398   5.735   7.438 -0.2703  0.2681  0.8744
   54CHL1  H11B 3958   2.289   5.585   7.417  0.7866  0.8736 -2.8721
   54CHL1    C9 3959   2.191   5.774   7.396 -0.0977  0.0153  0.0210
   54CHL1    H9 3960   2.098   5.716   7.414  0.2802 -0.2846  1.0332
   54CHL1   C10 3961   2.205   5.792   7.240  0.2213 -0.3455 -0.2957
   54CHL1   C19 3962   2.350   5.847   7.207 -0.0324  0.7803 -0.0811
   54CHL1  H19A 3963   2.358   5.869   7.099 -0.7981  2.6017  0.2121
   54CHL1  H19B 3964   2.358   5.949   7.251 -0.5604  1.2453 -1.0656
   54CHL1  H19C 3965   2.434   5.778   7.231  0.5903  1.8439  0.8597
   54CHL1    C1 3966   2.198   5.659   7.165  0.3547 -0.6565 -0.2130
   54CHL1   H1A 3967   2.290   5.598   7.186  1.0936  0.5308  0.0488
   54CHL1   H1B 3968   2.114   5.603   7.212 -0.0305  1.4498  1.6711
   54CHL1    C2 3969   2.172   5.658   7.018  0.1023  0.1481 -0.0876
   54CHL1   H2A 3970   2.144   5.559   6.976 -1.4246 -0.2422  1.7439
   54CHL1   H2B 3971   2.260   5.705   6.969  1.8747 -1.2554  1.6487
   54CHL1   C20 3972   2.327   5.810   7.948  0.7911 -0.5693 -0.9119
   54CHL1   H20 3973   2.399   5.895   7.940  0.9446 -0.2135  2.9648
   54CHL1   C21 3974   2.391   5.682   7.927 -0.4984  0.0500  0.1689
   54CHL1  H21A 3975   2.317   5.601   7.947 -1.7716  1.3672  0.8896
   54CHL1  H21B 3976   2.466   5.653   8.004 -0.9842 -0.4509  0.4589
   54CHL1  H21C 3977   2.442   5.669   7.829  0.2289  0.2767  0.5162
   54CHL1   C22 3978   2.261   5.824   8.092 -0.2270  0.1377 -0.1345
   54CHL1  H22A 3979   2.212   5.923   8.094  2.2857  1.4140  1.1663
   54CHL1  H22B 3980   2.193   5.738   8.110  1.5531 -1.3238 -0.1892
   54CHL1   C23 3981   2.358   5.840   8.206  0.8585 -0.0441  0.1663
   54CHL1  H23A 3982   2.402   5.740   8.224  1.5804  0.1478 -0.5256
   54CHL1  H23B 3983   2.434   5.918   8.184 -1.1596  1.8393 -0.2952
   54CHL1   C24 3984   2.286   5.870   8.337  0.1303 -0.3238 -0.0357
   54CHL1  H24A 3985   2.220   5.959   8.321 -1.1253 -1.4074 -1.0690
   54CHL1  H24B 3986   2.227   5.781   8.369  3.2525 -2.6992 -0.7622
   54CHL1   C25 3987   2.381   5.906   8.463  0.1093  0.0400  0.0642
   54CHL1   H25 3988   2.434   5.999   8.432 -1.4535  0.8179 -0.3690
   54CHL1   C26 3989   2.295   5.948   8.580  0.5785  0.3763 -0.0618
   54CHL1  H26A 3990   2.211   6.016   8.554 -0.7417  0.1902  3.5101
   54CHL1  H26B 3991   2.261   5.854   8.627  0.8135 -0.2975 -1.2071
   54CHL1  H26C 3992   2.359   5.992   8.659  0.6157 -0.3884  0.3413
   54CHL1   C27 3993   2.471   5.794   8.510  0.4126 -0.1258 -0.6424
   54CHL1  H27A 3994   2.512   5.739   8.423 -1.0886 -0.5464 -1.0978
   54CHL1  H27B 3995   2.553   5.833   8.573  0.3412  0.0586 -0.6624
   54CHL1  H27C 3996   2.413   5.729   8.580 -0.8217  1.6350  0.0131
   55CHL1    C3 3997   1.691   1.016   7.003 -0.0739 -0.5222  0.2869
   55CHL1    H3 3998   1.585   1.030   6.973  1.1817  1.8202 -3.4299
   55CHL1    O3 3999   1.775   1.024   6.880  0.4197 -0.5325 -0.7165
   55CHL1   H3' 4000   1.869   1.014   6.901  0.1409 -1.5002  0.1069
   55CHL1    C4 4001   1.741   1.129   7.096  0.2579  0.1360 -0.4046
   55CHL1   H4A 4002   1.852   1.134   7.099  0.2270  0.5888  0.2812
   55CHL1   H4B 4003   1.710   1.221   7.043 -2.2116 -1.5833 -2.0418
   55CHL1    C5 4004   1.684   1.127   7.236 -0.4730 -0.0965  0.1539
   55CHL1    C6 4005   1.625   1.236   7.285 -0.2751  0.2380  0.5639
   55CHL1    H6 4006   1.625   1.330   7.228 -0.4897 -1.1838 -1.8466
   55CHL1    C7 4007   1.573   1.243   7.424  0.1437 -0.1491 -0.1356
   55CHL1   H7A 4008   1.600   1.341   7.469  1.6348 -0.6517  0.0991
   55CHL1   H7B 4009   1.463   1.232   7.419  0.2136 -1.0541  0.1666
   55CHL1    C8 4010   1.622   1.120   7.512  0.0432  0.5211 -0.0380
   55CHL1    H8 4011   1.728   1.134   7.542 -0.1716 -0.8630  1.4489
   55CHL1   C14 4012   1.541   1.104   7.639  0.0895  0.1631 -0.0440
   55CHL1   H14 4013   1.442   1.072   7.601 -1.6444  3.4763  1.5049
   55CHL1   C15 4014   1.514   1.231   7.715  0.2788 -0.5179 -0.3074
   55CHL1  H15A 4015   1.596   1.303   7.735 -0.1128 -0.1718  0.0742
   55CHL1  H15B 4016   1.435   1.279   7.653  0.1546 -1.2552 -0.7174
   55CHL1   C16 4017   1.464   1.176   7.845 -0.6876 -1.0873 -0.2832
   55CHL1  H16A 4018   1.531   1.213   7.925 -0.5960 -0.4887 -0.6328
   55CHL1  H16B 4019   1.361   1.208   7.873 -0.5144 -0.3175 -0.5256
   55CHL1   C17 4020   1.493   1.022   7.854 -0.5692  0.3376 -0.0141
   55CHL1   H17 4021   1.398   0.974   7.822  0.1438 -2.1188  1.4400
   55CHL1   C13 4022   1.585   0.995   7.738 -0.0553  0.6276 -0.3787
   55CHL1   C18 4023   1.736   1.018   7.783  0.2550 -0.0008 -0.4440
   55CHL1  H18A 4024   1.770   0.942   7.856  0.4609  1.0658  0.5724
   55CHL1  H18B 4025   1.802   1.018   7.693 -0.9511  0.1012 -1.3450
   55CHL1  H18C 4026   1.748   1.112   7.841  2.0527 -0.8890  0.6731
   55CHL1   C12 4027   1.579   0.865   7.667 -0.1315 -0.1011  0.4202
   55CHL1  H12A 4028   1.618   0.781   7.729  1.7238  0.7772  0.4882
   55CHL1  H12B 4029   1.473   0.839   7.650 -0.3890  1.6613 -0.8345
   55CHL1   C11 4030   1.651   0.862   7.533 -0.1975 -0.4406 -0.2882
   55CHL1  H11A 4031   1.761   0.865   7.547 -0.2772 -1.2297  0.5062
   55CHL1  H11B 4032   1.629   0.765   7.484  0.1428 -0.4831 -0.3544
   55CHL1    C9 4033   1.618   0.981   7.436  0.6297  0.2548 -0.7099
   55CHL1    H9 4034   1.510   0.971   7.412  0.8872 -2.1893 -0.9240
   55CHL1   C10 4035   1.696   0.990   7.305  0.0564  0.1484  0.0305
   55CHL1   C19 4036   1.848   0.973   7.326  1.2776  0.2105  0.5404
   55CHL1  H19A 4037   1.902   0.983   7.230 -0.3315  1.2005 -0.2690
   55CHL1  H19B 4038   1.890   1.032   7.411  0.5992  1.0369  0.3131
   55CHL1  H19C 4039   1.871   0.873   7.369  2.5421  0.9178  1.5553
   55CHL1    C1 4040   1.649   0.879   7.203  0.0496 -0.0221  1.0378
   55CHL1   H1A 4041   1.667   0.775   7.239 -0.0046 -1.2891 -2.4438
   55CHL1   H1B 4042   1.538   0.888   7.197  0.3530  3.1790 -0.9219
   55CHL1    C2 4043   1.710   0.881   7.060  0.1128  0.0949  0.0293
   55CHL1   H2A 4044   1.646   0.812   7.002 -0.2004 -0.6148  1.1962
   55CHL1   H2B 4045   1.816   0.850   7.062  0.4583  1.1835 -0.7011
   55CHL1   C20 4046   1.521   0.971   7.999 -0.8250  0.3098  0.5351
   55CHL1   H20 4047   1.617   1.019   8.027 -1.2025  0.0348  2.3446
   55CHL1   C21 4048   1.531   0.820   7.987  0.0806  0.0709 -0.8989
   55CHL1  H21A 4049   1.445   0.783   7.928 -0.7810 -1.3411  1.1472
   55CHL1  H21B 4050   1.526   0.767   8.085 -1.2069  2.3240  0.2838
   55CHL1  H21C 4051   1.629   0.796   7.941 -0.1586 -0.9504 -0.8926
   55CHL1   C22 4052   1.406   1.009   8.098 -0.1851 -0.5314  0.0393
   55CHL1  H22A 4053   1.364   1.108   8.071 -0.6751  0.1037  2.9139
   55CHL1  H22B 4054   1.322   0.936   8.097 -1.2282  0.6273  0.8489
   55CHL1   C23 4055   1.457   1.009   8.249 -0.0890  1.2411  0.1331
   55CHL1  H23A 4056   1.455   0.905   8.287  0.1372  1.0513 -0.3632
   55CHL1  H23B 4057   1.558   1.057   8.255 -0.2594  1.5324  0.7103
   55CHL1   C24 4058   1.367   1.081   8.344 -0.2706 -0.1068 -0.3022
   55CHL1  H24A 4059   1.369   1.191   8.330 -0.6048  0.0350  0.7021
   55CHL1  H24B 4060   1.262   1.046   8.348 -0.8280  1.4200 -1.2838
   55CHL1   C25 4061   1.419   1.062   8.489 -0.0311  0.7468  0.6339
   55CHL1   H25 4062   1.526   1.093   8.496  0.5407 -0.6856 -1.3336
   55CHL1   C26 4063   1.322   1.157   8.576  0.3402 -0.3354 -0.0152
   55CHL1  H26A 4064   1.215   1.130   8.562  0.7050 -0.2916 -3.2653
   55CHL1  H26B 4065   1.348   1.148   8.683 -1.5298 -1.5576  0.3632
   55CHL1  H26C 4066   1.337   1.262   8.543  0.6438 -0.8338 -1.5102
   55CHL1   C27 4067   1.413   0.916   8.546  0.4330  0.0678  0.3442
   55CHL1  H27A 4068   1.505   0.855   8.529  0.2028 -0.5359  1.2258
   55CHL1  H27B 4069   1.392   0.928   8.654  1.1252 -1.2120  0.6370
   55CHL1  H27C 4070   1.334   0.851   8.503  1.4768  0.7220 -2.7116
   56CHL1    C3 4071   1.382   5.151   6.766  0.5931 -0.1588  0.0447
   56CHL1    H3 4072   1.493   5.145   6.760  0.5787 -1.9183  1.2028
   56CHL1    O3 4073   1.327   5.144   6.635  0.1067  0.0548  0.1553
   56CHL1   H3' 4074   1.264   5.072   6.637 -0.5678  0.5660 -1.4989
   56CHL1    C4 4075   1.312   5.041   6.856 -0.8757 -0.8521 -0.9050
   56CHL1   H4A 4076   1.202   5.056   6.848 -0.5219  2.8523  0.4534
   56CHL1   H4B 4077   1.344   4.938   6.829  1.7842 -0.6945  1.4359
   56CHL1    C5 4078   1.333   5.053   7.007  0.1079 -0.3062 -0.5250
   56CHL1    C6 4079   1.379   4.944   7.071 -0.0993 -0.4532  0.1629
   56CHL1    H6 4080   1.409   4.849   7.026  0.6390  0.4268 -1.2515
   56CHL1    C7 4081   1.405   4.952   7.221  0.0204 -0.9902  0.9029
   56CHL1   H7A 4082   1.358   4.859   7.259 -0.4323 -1.1809 -0.1263
   56CHL1   H7B 4083   1.515   4.946   7.236  0.4976  0.1315 -1.9396
   56CHL1    C8 4084   1.346   5.081   7.285 -0.2084  0.6656 -0.3028
   56CHL1    H8 4085   1.237   5.063   7.293  0.1103 -0.7289  1.4045
   56CHL1   C14 4086   1.392   5.099   7.429  0.2012  0.6411  0.0284
   56CHL1   H14 4087   1.500   5.103   7.402 -0.1353  0.7046 -1.3583
   56CHL1   C15 4088   1.380   4.974   7.524  0.0706 -0.8102  0.9136
   56CHL1  H15A 4089   1.279   4.929   7.519  0.1138 -0.7127 -2.0011
   56CHL1  H15B 4090   1.453   4.895   7.496  1.3375  0.9789 -1.0538
   56CHL1   C16 4091   1.408   5.034   7.655  0.5329 -0.3141  0.1831
   56CHL1  H16A 4092   1.325   5.012   7.724 -0.4757  0.6266 -0.7164
   56CHL1  H16B 4093   1.498   4.989   7.703  2.5597  3.4911  0.2120
   56CHL1   C17 4094   1.426   5.186   7.643 -0.4731  0.6817 -0.0159
   56CHL1   H17 4095   1.536   5.186   7.633 -0.5928 -0.6675 -1.4386
   56CHL1   C13 4096   1.356   5.221   7.508  0.0865  0.0206  0.5259
   56CHL1   C18 4097   1.204   5.234   7.523  0.5174  0.5561  0.0578
   56CHL1  H18A 4098   1.168   5.148   7.583 -2.9337  0.9317 -1.3465
   56CHL1  H18B 4099   1.176   5.328   7.576  1.5274  0.3998  0.9040
   56CHL1  H18C 4100   1.148   5.232   7.427  0.9730  0.4593 -0.2036
   56CHL1   C12 4101   1.404   5.337   7.423  0.1231  0.6774  0.2524
   56CHL1  H12A 4102   1.379   5.431   7.476 -1.2110 -0.2976  1.3836
   56CHL1  H12B 4103   1.515   5.340   7.414  0.0505 -1.7696 -2.4726
   56CHL1   C11 4104   1.347   5.343   7.278  0.5808  0.0456 -0.8917
   56CHL1  H11A 4105   1.237   5.350   7.295  0.6250  1.1175 -1.0082
   56CHL1  H11B 4106   1.381   5.434   7.224 -0.7398  0.8662 -0.3734
   56CHL1    C9 4107   1.375   5.208   7.203 -0.2060 -0.7934 -0.0342
   56CHL1    H9 4108   1.484   5.207   7.182  0.0943 -1.1330  1.4730
   56CHL1   C10 4109   1.312   5.199   7.058  0.1504  0.8061  0.7236
   56CHL1   C19 4110   1.162   5.223   7.063 -1.0532 -0.7386 -0.2962
   56CHL1  H19A 4111   1.141   5.324   7.105  1.0006 -0.0586 -0.8533
   56CHL1  H19B 4112   1.111   5.215   6.965  0.6637 -0.9417 -1.1906
   56CHL1  H19C 4113   1.125   5.146   7.134  2.5402  0.1182  2.7170
   56CHL1    C1 4114   1.383   5.299   6.964  0.6086  0.1308 -0.8144
   56CHL1   H1A 4115   1.370   5.405   6.997 -1.1143 -0.7504  1.4970
   56CHL1   H1B 4116   1.490   5.272   6.967  0.6727  0.4091  3.9676
   56CHL1    C2 4117   1.346   5.297   6.818 -0.0236  0.6640  0.1788
   56CHL1   H2A 4118   1.406   5.376   6.768  0.9941 -1.0649 -1.3739
   56CHL1   H2B 4119   1.236   5.310   6.811 -0.5409 -3.4979 -0.5925
   56CHL1   C20 4120   1.390   5.260   7.775  0.1222  0.1926  0.5236
   56CHL1   H20 4121   1.281   5.250   7.793 -0.0042  0.1902 -0.2331
   56CHL1   C21 4122   1.418   5.410   7.752  0.6354  0.0917 -0.0017
   56CHL1  H21A 4123   1.351   5.445   7.671 -0.3443  0.4317  0.9510
   56CHL1  H21B 4124   1.518   5.420   7.703 -0.0550 -0.9320 -1.6487
   56CHL1  H21C 4125   1.393   5.473   7.841  0.4689  1.0490 -0.7119
   56CHL1   C22 4126   1.461   5.204   7.900 -0.9440 -0.0616 -0.0462
   56CHL1  H22A 4127   1.536   5.127   7.872 -1.5254 -0.1257 -1.4851
   56CHL1  H22B 4128   1.514   5.283   7.958  0.9053 -2.1111  1.1144
   56CHL1   C23 4129   1.364   5.135   7.989 -0.1314 -0.8352 -1.2619
   56CHL1  H23A 4130   1.276   5.199   8.010 -1.0406 -3.0224  2.0014
   56CHL1  H23B 4131   1.338   5.035   7.947  1.1141 -0.7650 -2.2318
   56CHL1   C24 4132   1.422   5.121   8.135  0.4906 -0.6195 -0.0293
   56CHL1  H24A 4133   1.529   5.092   8.134  0.3002 -1.5935  2.6717
   56CHL1  H24B 4134   1.420   5.220   8.187 -1.3808  0.0956 -1.4114
   56CHL1   C25 4135   1.355   5.019   8.225  0.4092 -0.8791  0.0305
   56CHL1   H25 4136   1.355   4.923   8.169  1.9292 -1.7759  1.5191
   56CHL1   C26 4137   1.433   5.001   8.354 -0.3114  0.3484 -0.8124
   56CHL1  H26A 4138   1.533   4.963   8.327 -1.0750 -1.2086 -1.5424
   56CHL1  H26B 4139   1.389   4.924   8.421 -1.8068  0.8434 -1.1914
   56CHL1  H26C 4140   1.452   5.092   8.416  0.7724 -0.6566  0.3514
   56CHL1   C27 4141   1.212   5.061   8.244  0.4594  0.0846 -0.3344
   56CHL1  H27A 4142   1.163   5.052   8.145  2.0401  0.3491 -1.1494
   56CHL1  H27B 4143   1.157   4.994   8.313  0.5326  1.6328  1.2755
   56CHL1  H27C 4144   1.197   5.160   8.293  2.0898 -0.3512  1.0980
   57SAPC     N 4145   1.683   1.883  11.022  0.5451  0.2292  0.0667
   57SAPC   C12 4146   1.689   2.026  10.969 -0.5665  0.3544  0.7143
   57SAPC  H12A 4147   1.790   2.053  10.940 -0.5242 -1.3812 -0.8843
   57SAPC  H12B 4148   1.647   2.087  11.048  0.7272  1.3425  0.6668
   57SAPC   C13 4149   1.759   1.883  11.151 -0.0421 -0.3192 -0.8448
   57SAPC  H13A 4150   1.704   1.956  11.208 -1.7882 -1.5438 -0.9111
   57SAPC  H13B 4151   1.750   1.787  11.199 -2.7163  0.5967  0.5614
   57SAPC  H13C 4152   1.859   1.919  11.129  0.4221 -0.4001  1.0784
   57SAPC   C14 4153   1.544   1.851  11.049 -0.7476 -0.5703 -0.6034
   57SAPC  H14A 4154   1.537   1.755  11.098 -1.0079 -1.0019 -1.4769
   57SAPC  H14B 4155   1.493   1.920  11.115  1.5556  0.4972  0.1049
   57SAPC  H14C 4156   1.497   1.846  10.952 -0.4471  1.4724 -0.8843
   57SAPC   C15 4157   1.741   1.778  10.926  1.1173  0.5563  0.7444
   57SAPC  H15A 4158   1.729   1.680  10.968  1.1395  0.6712  1.0153
   57SAPC  H15B 4159   1.683   1.778  10.834  0.1355 -0.0111  1.3567
   57SAPC  H15C 4160   1.846   1.794  10.905  0.6288  1.5099 -1.0907
   57SAPC   C11 4161   1.609   2.044  10.836 -0.3033 -0.5253 -0.1722
   57SAPC  H11A 4162   1.639   1.969  10.760 -0.7657 -2.0335  1.1177
   57SAPC  H11B 4163   1.644   2.139  10.791  0.6397 -0.6050  0.3753
   57SAPC     P 4164   1.368   1.985  10.759  0.2487  0.3016 -0.0539
   57SAPC   O13 4165   1.362   1.848  10.816  0.0677 -0.1926  0.1643
   57SAPC   O14 4166   1.248   2.071  10.761 -0.0712 -0.1644 -0.1647
   57SAPC   O12 4167   1.471   2.055  10.862 -0.2390  0.1465  0.7655
   57SAPC   O11 4168   1.442   1.982  10.616 -0.5871 -0.7170 -0.0199
   57SAPC    C1 4169   1.467   2.099  10.527 -0.3051  0.1682  0.0901
   57SAPC    HA 4170   1.501   2.175  10.601 -0.4668  1.9961 -1.6443
   57SAPC    HB 4171   1.552   2.081  10.457 -0.0130  1.2662  0.1405
   57SAPC    C2 4172   1.334   2.144  10.460 -0.3644  0.0585  0.0761
   57SAPC    HS 4173   1.263   2.166  10.543 -0.4899 -1.0144  0.2639
   57SAPC   O21 4174   1.304   2.020  10.380 -0.1375 -0.3203  0.3828
   57SAPC   C21 4175   1.179   2.006  10.335  0.5725 -0.2576 -0.5164
   57SAPC   O22 4176   1.091   2.086  10.348 -0.4286 -0.4232 -0.0990
   57SAPC   C22 4177   1.156   1.868  10.274 -0.1409 -0.7199 -0.0982
   57SAPC   H2R 4178   1.245   1.805  10.295  0.5465  0.5029  0.7094
   57SAPC   H2S 4179   1.064   1.829  10.323 -0.1811 -1.1798 -0.5379
   57SAPC    C3 4180   1.352   2.271  10.370  0.1011 -0.2797 -0.3688
   57SAPC    HX 4181   1.387   2.347  10.444  2.1473  1.0161 -2.5960
   57SAPC    HY 4182   1.264   2.322  10.326  0.0580  0.7390  0.8696
   57SAPC   O31 4183   1.462   2.264  10.276 -0.4221  0.2410 -0.6739
   57SAPC   C31 4184   1.414   2.216  10.157  0.1118  0.9901  0.3429
   57SAPC   O32 4185   1.299   2.190  10.136  0.1750 -0.0426  0.5566
   57SAPC   C32 4186   1.526   2.213  10.060 -0.1409 -0.1188 -0.2074
   57SAPC   H2X 4187   1.603   2.150  10.110 -0.9468  0.2547  1.5378
   57SAPC   H2Y 4188   1.559   2.318  10.046 -1.0295  0.5198  2.2079
   57SAPC   C23 4189   1.137   1.875  10.116 -0.2442  0.5398  0.4508
   57SAPC   H3R 4190   1.230   1.906  10.064  0.5961 -1.6296  0.6068
   57SAPC   H3S 4191   1.058   1.949  10.092 -0.1703  0.7510  0.8492
   57SAPC   C24 4192   1.100   1.737  10.064 -0.2518  0.5380  0.2152
   57SAPC   H4R 4193   1.005   1.702  10.111  0.1652  0.5660  1.0856
   57SAPC   H4S 4194   1.183   1.672  10.099  0.2715  0.3923 -1.2813
   57SAPC   C25 4195   1.101   1.733   9.918 -0.4992  0.4202  0.7061
   57SAPC   H5R 4196   1.086   1.833   9.875 -1.1267  0.7103  1.5775
   57SAPC   C26 4197   1.092   1.630   9.830  1.2735  0.5585 -0.2835
   57SAPC   H6R 4198   1.087   1.646   9.721  0.5031  2.5870  0.0221
   57SAPC   C27 4199   1.096   1.488   9.877  0.0368  1.1444  0.3928
   57SAPC   H7R 4200   0.991   1.455   9.890  1.2862 -3.3637 -0.2547
   57SAPC   H7S 4201   1.147   1.473   9.975  1.0565 -0.0908 -0.3119
   57SAPC   C28 4202   1.173   1.404   9.775 -0.3049  0.1600  0.0395
   57SAPC   H8R 4203   1.270   1.373   9.818 -0.7367 -1.8675 -0.4090
   57SAPC   C29 4204   1.122   1.351   9.666  0.0426 -0.0406  0.3985
   57SAPC   H9R 4205   1.189   1.293   9.601 -0.3667  1.0089 -1.0017
   57SAPC  C210 4206   0.978   1.385   9.620 -0.2493  0.7296 -0.8947
   57SAPC  H10R 4207   0.970   1.390   9.510  0.9168  0.3509 -0.9983
   57SAPC  H10S 4208   0.953   1.490   9.647 -0.5309  0.6948 -1.0153
   57SAPC  C211 4209   0.868   1.298   9.680 -0.5426  0.1082 -0.1420
   57SAPC  H11R 4210   0.818   1.342   9.767 -0.0224  2.7589 -1.1321
   57SAPC  C212 4211   0.841   1.172   9.639  0.2573  0.6711 -0.0744
   57SAPC  H12R 4212   0.781   1.105   9.704  2.0049 -2.1245 -1.2372
   57SAPC  C213 4213   0.904   1.087   9.532 -0.1197 -0.1732  0.2728
   57SAPC  H13R 4214   0.889   0.978   9.548 -1.1507 -0.0210  0.3727
   57SAPC  H13S 4215   1.014   1.104   9.529 -0.4720  2.0713 -0.9355
   57SAPC  C214 4216   0.839   1.096   9.399 -0.1258 -1.0546  0.4606
   57SAPC  H14R 4217   0.729   1.100   9.396 -0.0569  0.3396 -1.0223
   57SAPC  C215 4218   0.904   1.087   9.280  0.2681 -0.2860  0.6125
   57SAPC  H15R 4219   0.849   1.086   9.184 -1.3322 -3.4058  1.4765
   57SAPC  C216 4220   1.049   1.069   9.252 -0.0935  0.2057  0.3268
   57SAPC  H16R 4221   1.052   1.010   9.158 -0.4702 -1.7216  1.5082
   57SAPC  H16S 4222   1.098   1.010   9.332 -1.5753  1.1122  1.9426
   57SAPC  C217 4223   1.122   1.205   9.228 -0.2351  0.0554 -0.3502
   57SAPC  H17R 4224   1.128   1.264   9.322  1.2777  1.3358 -1.1970
   57SAPC  H17S 4225   1.064   1.267   9.156 -0.5247 -1.5200 -1.5045
   57SAPC  C218 4226   1.263   1.179   9.178  0.2316 -0.2429 -0.1719
   57SAPC  H18R 4227   1.322   1.120   9.251 -0.8556 -0.7145  0.3493
   57SAPC  H18S 4228   1.308   1.280   9.176 -3.0850  1.3161 -1.4580
   57SAPC  C219 4229   1.278   1.137   9.036  0.0753 -0.2235  0.2901
   57SAPC  H19R 4230   1.218   1.202   8.969 -0.7454 -1.4602 -0.1968
   57SAPC  H19S 4231   1.220   1.041   9.039  0.1961 -0.2678  1.6197
   57SAPC  C220 4232   1.419   1.118   8.983  0.2041 -0.4487 -1.1412
   57SAPC  H20R 4233   1.486   1.066   9.055 -1.2496 -0.3277  0.3228
   57SAPC  H20S 4234   1.468   1.217   8.970  0.0024 -0.3025 -0.7684
   57SAPC  H20T 4235   1.421   1.067   8.884  0.0516 -0.8088 -0.9577
   57SAPC   C33 4236   1.496   2.147   9.923 -0.5196  1.2264 -0.1544
   57SAPC   H3X 4237   1.436   2.055   9.939  0.8654  0.2606 -0.3711
   57SAPC   H3Y 4238   1.596   2.112   9.890 -0.5805 -0.8297  1.7304
   57SAPC   C34 4239   1.427   2.239   9.825 -0.7363 -0.1725  0.1007
   57SAPC   H4X 4240   1.493   2.325   9.804 -2.1859  1.1162  0.7392
   57SAPC   H4Y 4241   1.334   2.282   9.869  0.4063  0.8527  1.5370
   57SAPC   C35 4242   1.373   2.172   9.698 -0.2732 -0.0162  0.5033
   57SAPC   H5X 4243   1.304   2.091   9.729 -0.4482 -0.4601 -0.9939
   57SAPC   H5Y 4244   1.461   2.130   9.643  1.5060  1.5341  2.0762
   57SAPC   C36 4245   1.285   2.265   9.603  0.3919 -0.1207 -0.5646
   57SAPC   H6X 4246   1.375   2.326   9.578  1.8494 -0.7543  2.9430
   57SAPC   H6Y 4247   1.211   2.327   9.657  0.4689  1.0540 -1.7617
   57SAPC   C37 4248   1.221   2.193   9.487  0.6451  0.2312 -0.2154
   57SAPC   H7X 4249   1.303   2.153   9.423  0.8334 -1.6356  1.1485
   57SAPC   H7Y 4250   1.155   2.271   9.443 -0.9269 -0.6581  0.5356
   57SAPC   C38 4251   1.121   2.080   9.514 -0.2128 -0.0195 -0.0550
   57SAPC   H8X 4252   1.035   2.122   9.571 -0.2299 -1.2148  0.8090
   57SAPC   H8Y 4253   1.170   2.000   9.572  1.6726  1.1010 -0.0621
   57SAPC   C39 4254   1.084   2.009   9.383  0.3312  0.5694  0.1740
   57SAPC   H9X 4255   1.014   1.927   9.407 -0.3789 -0.2528 -4.1999
   57SAPC   H9Y 4256   1.181   1.966   9.351  0.4244 -0.2997  1.6067
   57SAPC  C310 4257   1.014   2.094   9.280  0.7877  0.7272 -0.5152
   57SAPC  H10X 4258   1.089   2.166   9.241  1.3116  0.1821 -0.5078
   57SAPC  H10Y 4259   0.927   2.145   9.326  1.8202  0.6598  1.5462
   57SAPC  C311 4260   0.971   2.012   9.155 -0.1792  0.0941  0.1651
   57SAPC  H11X 4261   0.909   2.071   9.083  1.0106 -0.1045 -1.0373
   57SAPC  H11Y 4262   0.904   1.931   9.191  0.1581 -1.2087 -2.0750
   57SAPC  C312 4263   1.077   1.943   9.074  0.5595  0.4068 -0.3554
   57SAPC  H12X 4264   1.147   1.891   9.143 -0.0931  0.2513  0.1930
   57SAPC  H12Y 4265   1.129   2.021   9.014 -0.5389  2.5868  1.4359
   57SAPC  C313 4266   1.009   1.847   8.981  0.0635 -0.5105  0.0389
   57SAPC  H13X 4267   0.913   1.887   8.942  1.2821  1.0068 -1.4703
   57SAPC  H13Y 4268   0.986   1.761   9.047 -1.5141  0.3951  0.7007
   57SAPC  C314 4269   1.096   1.804   8.864 -0.0748 -0.1576  0.2218
   57SAPC  H14X 4270   1.038   1.722   8.817 -2.0258  0.2946  1.8006
   57SAPC  H14Y 4271   1.194   1.760   8.894 -0.0513  0.4534  1.0349
   57SAPC  C315 4272   1.112   1.921   8.770 -0.1309 -0.3390 -0.0957
   57SAPC  H15X 4273   1.195   1.991   8.794  0.0392 -0.9127  1.0456
   57SAPC  H15Y 4274   1.018   1.978   8.763 -0.2933 -0.7444 -1.2984
   57SAPC  C316 4275   1.148   1.879   8.628  0.1586  0.1183 -0.8925
   57SAPC  H16X 4276   1.099   1.954   8.564  0.2936  0.4869 -0.5700
   57SAPC  H16Y 4277   1.104   1.779   8.610 -1.2049  0.9056 -1.9534
   57SAPC  C317 4278   1.297   1.864   8.598 -0.0074  0.0336  0.3480
   57SAPC  H17X 4279   1.343   1.781   8.656  1.7532  1.3669  0.9021
   57SAPC  H17Y 4280   1.354   1.953   8.633  0.6326  0.3728 -1.4608
   57SAPC  C318 4281   1.326   1.834   8.451 -0.4386 -0.2362  0.3604
   57SAPC  H18X 4282   1.270   1.742   8.422  0.5714 -1.2588  1.6013
   57SAPC  H18Y 4283   1.435   1.817   8.437  0.1018  1.8754  1.7542
   57SAPC  H18Z 4284   1.298   1.919   8.385 -1.3184 -1.9667 -1.5595
   58SAPC     N 4285   3.915   6.169  11.164  1.4332  0.6254  0.0664
   58SAPC   C12 4286   3.813   6.261  11.092 -0.1523 -0.0031  0.3078
   58SAPC  H12A 4287   3.858   6.351  11.054 -1.3907 -0.2765 -1.8889
   58SAPC  H12B 4288   3.737   6.284  11.165 -0.7543  2.5360 -1.0906
   58SAPC   C13 4289   3.847   6.046  11.209  0.1942 -0.0102  0.2841
   58SAPC  H13A 4290   3.915   5.989  11.272  0.4467  0.4488  0.4266
   58SAPC  H13B 4291   3.760   6.078  11.265  0.7634  2.0147  0.0367
   58SAPC  H13C 4292   3.816   5.994  11.120 -2.7079  1.2629  0.5026
   58SAPC   C14 4293   4.024   6.133  11.076 -0.5817  0.0955  0.2590
   58SAPC  H14A 4294   4.076   6.059  11.136 -2.1417 -0.1209  1.3801
   58SAPC  H14B 4295   4.007   6.095  10.976  1.4534 -1.3287  0.4289
   58SAPC  H14C 4296   4.099   6.211  11.081 -0.6395  0.1175  0.7864
   58SAPC   C15 4297   3.979   6.227  11.286  0.0430  0.2644 -1.0472
   58SAPC  H15A 4298   4.023   6.325  11.277  0.1635  0.2161 -0.9925
   58SAPC  H15B 4299   3.905   6.227  11.364 -1.1470 -0.5871 -2.1605
   58SAPC  H15C 4300   4.057   6.169  11.332  0.8096  1.1601 -1.1906
   58SAPC   C11 4301   3.739   6.210  10.967  0.6047 -0.7666  0.3012
   58SAPC  H11A 4302   3.819   6.185  10.893 -2.2117 -0.4932 -2.9688
   58SAPC  H11B 4303   3.680   6.293  10.923  0.0025 -1.8231 -0.9180
   58SAPC     P 4304   3.637   5.982  10.895 -0.1077 -0.2174  0.2316
   58SAPC   O13 4305   3.735   5.876  10.928 -0.0073 -0.2427  0.7634
   58SAPC   O14 4306   3.490   5.951  10.913 -0.3946 -0.1712  0.1045
   58SAPC   O12 4307   3.657   6.097  10.990 -0.2674 -0.5162  0.4728
   58SAPC   O11 4308   3.664   6.053  10.751  0.0264  0.5270 -0.1809
   58SAPC    C1 4309   3.699   5.978  10.640 -0.1600  0.1850  1.0414
   58SAPC    HA 4310   3.707   5.869  10.661  0.9931 -0.0661 -0.6220
   58SAPC    HB 4311   3.627   5.969  10.556  1.2202  1.5498 -0.3263
   58SAPC    C2 4312   3.830   6.028  10.580 -0.5702 -0.5933  0.2609
   58SAPC    HS 4313   3.907   6.017  10.659  0.5006  0.7864 -0.5844
   58SAPC   O21 4314   3.810   6.165  10.538  0.5491  0.0043  0.0982
   58SAPC   C21 4315   3.915   6.230  10.506  0.3931 -0.2997  0.3183
   58SAPC   O22 4316   4.028   6.193  10.510  0.4082 -0.2374 -0.1570
   58SAPC   C22 4317   3.884   6.370  10.466  0.3012  0.1850 -0.0529
   58SAPC   H2R 4318   3.984   6.400  10.427  1.0441  2.2760  3.2751
   58SAPC   H2S 4319   3.818   6.379  10.377 -0.7992  0.2234  0.7677
   58SAPC    C3 4320   3.862   5.935  10.454  0.5160  0.2576  0.3429
   58SAPC    HX 4321   3.856   5.832  10.495  0.8249  0.2313  0.3225
   58SAPC    HY 4322   3.967   5.963  10.429  0.2927 -0.8228 -2.0219
   58SAPC   O31 4323   3.772   5.941  10.344  0.6579 -0.1908 -0.0292
   58SAPC   C31 4324   3.787   6.037  10.253 -0.1574  0.1604  0.6625
   58SAPC   O32 4325   3.884   6.107  10.240 -0.1958 -0.0489 -0.1059
   58SAPC   C32 4326   3.663   6.041  10.170  0.5671 -0.2567 -0.5551
   58SAPC   H2X 4327   3.580   6.097  10.217  1.0536  0.1943 -0.2240
   58SAPC   H2Y 4328   3.622   5.939  10.152  0.2968 -0.4385  1.0453
   58SAPC   C23 4329   3.845   6.458  10.588 -0.0220  0.2772  0.0767
   58SAPC   H3R 4330   3.920   6.455  10.671 -0.5562  2.1068  0.6269
   58SAPC   H3S 4331   3.743   6.429  10.621 -0.5640  0.4669 -1.3900
   58SAPC   C24 4332   3.840   6.606  10.534  0.1703  0.4704 -0.0282
   58SAPC   H4R 4333   3.940   6.622  10.489  0.3681 -0.9163 -0.0903
   58SAPC   H4S 4334   3.830   6.674  10.621 -0.5369 -0.2818  0.4887
   58SAPC   C25 4335   3.723   6.636  10.440  0.6369  0.0794 -0.0739
   58SAPC   H5R 4336   3.629   6.647  10.496  1.3832  0.5160  1.1143
   58SAPC   C26 4337   3.740   6.658  10.307 -0.1796  0.4871 -0.4047
   58SAPC   H6R 4338   3.646   6.680  10.253 -1.1736 -0.9272  0.7166
   58SAPC   C27 4339   3.860   6.657  10.224 -0.3238  0.1201  0.5318
   58SAPC   H7R 4340   3.953   6.666  10.283 -0.7927  0.1512  1.2700
   58SAPC   H7S 4341   3.868   6.751  10.165  0.0757 -0.5026 -0.4222
   58SAPC   C28 4342   3.871   6.538  10.129 -0.5490 -0.0957 -1.1463
   58SAPC   H8R 4343   3.904   6.442  10.171  0.2837  0.6516 -0.0647
   58SAPC   C29 4344   3.845   6.552   9.997 -0.4359  0.1339  0.0314
   58SAPC   H9R 4345   3.842   6.468   9.926  2.7155 -0.1034  0.1314
   58SAPC  C210 4346   3.793   6.675   9.922  0.3112 -0.0030 -0.0045
   58SAPC  H10R 4347   3.866   6.710   9.846 -0.6343  3.1395  0.4630
   58SAPC  H10S 4348   3.783   6.763   9.990  4.4802 -1.7717  3.0756
   58SAPC  C211 4349   3.675   6.643   9.833  0.6706 -0.4547  0.3662
   58SAPC  H11R 4350   3.573   6.673   9.860  1.9507  1.8610  2.9182
   58SAPC  C212 4351   3.680   6.581   9.712 -0.1887 -0.8090 -0.0892
   58SAPC  H12R 4352   3.600   6.579   9.637 -1.8803 -2.5203  1.7153
   58SAPC  C213 4353   3.808   6.527   9.652  0.7107 -0.8370 -0.5483
   58SAPC  H13R 4354   3.891   6.495   9.720  2.6245 -0.2959 -2.5915
   58SAPC  H13S 4355   3.845   6.612   9.593 -0.2168 -0.6625 -0.8875
   58SAPC  C214 4356   3.782   6.418   9.553 -0.2052  0.3896  0.6040
   58SAPC  H14R 4357   3.757   6.318   9.590 -0.1188  0.3204  0.4765
   58SAPC  C215 4358   3.777   6.438   9.418  0.3431 -0.1469  0.7071
   58SAPC  H15R 4359   3.745   6.353   9.357  0.7758  0.0441  0.2046
   58SAPC  C216 4360   3.789   6.564   9.337  0.6498  0.0212 -0.1404
   58SAPC  H16R 4361   3.824   6.651   9.397  2.9897 -1.7929  1.1628
   58SAPC  H16S 4362   3.685   6.595   9.311  0.4041 -0.0792  0.7185
   58SAPC  C217 4363   3.879   6.555   9.206 -0.3027  0.3219 -0.2839
   58SAPC  H17R 4364   3.972   6.499   9.229 -0.7134 -0.8088 -1.3470
   58SAPC  H17S 4365   3.903   6.658   9.171  0.8589 -0.5125 -2.0011
   58SAPC  C218 4366   3.804   6.480   9.097 -0.2933  0.1239  0.5377
   58SAPC  H18R 4367   3.698   6.513   9.106  0.3072  2.2735 -0.0599
   58SAPC  H18S 4368   3.824   6.376   9.128  1.0987 -0.7591 -3.0930
   58SAPC  C219 4369   3.843   6.503   8.950 -0.1579  0.0339 -0.2838
   58SAPC  H19R 4370   3.946   6.544   8.947 -0.0719 -0.2638 -1.8970
   58SAPC  H19S 4371   3.790   6.588   8.902  0.3479  1.2257  1.2341
   58SAPC  C220 4372   3.825   6.376   8.860  0.3440  0.2239  0.0373
   58SAPC  H20R 4373   3.912   6.307   8.863  1.5001  1.6246 -0.8774
   58SAPC  H20S 4374   3.803   6.388   8.752 -0.8110 -3.4261 -0.2194
   58SAPC  H20T 4375   3.748   6.306   8.901  1.6533 -2.8796 -2.5558
   58SAPC   C33 4376   3.695   6.106  10.034 -0.0441 -0.6500  0.2562
   58SAPC   H3X 4377   3.757   6.041   9.969  1.1922 -2.4837  3.1999
   58SAPC   H3Y 4378   3.745   6.205  10.039 -0.5841 -0.3918  0.5560
   58SAPC   C34 4379   3.571   6.109   9.949  0.2726  0.0269 -0.3658
   58SAPC   H4X 4380   3.514   6.197   9.988  1.2014  0.5886 -0.2668
   58SAPC   H4Y 4381   3.522   6.011   9.967  1.1246 -0.0901  1.4397
   58SAPC   C35 4382   3.591   6.127   9.798  0.2138  0.1400  0.7814
   58SAPC   H5X 4383   3.674   6.060   9.768  2.2209  1.6971  2.6957
   58SAPC   H5Y 4384   3.636   6.224   9.770  2.3415 -1.1229 -0.3302
   58SAPC   C36 4385   3.475   6.076   9.707 -0.1979 -0.3371 -0.4550
   58SAPC   H6X 4386   3.383   6.135   9.727 -0.5555 -0.9107 -0.3647
   58SAPC   H6Y 4387   3.448   5.970   9.728  0.7383  0.0871  3.1913
   58SAPC   C37 4388   3.517   6.097   9.565  1.0270  0.3510  0.5801
   58SAPC   H7X 4389   3.605   6.032   9.545  1.1871  0.7481 -0.0121
   58SAPC   H7Y 4390   3.547   6.203   9.546 -0.3924  0.7065  0.3008
   58SAPC   C38 4391   3.410   6.047   9.456 -0.4229 -0.0984 -0.1382
   58SAPC   H8X 4392   3.336   6.129   9.446  0.0932  0.0442 -3.2402
   58SAPC   H8Y 4393   3.370   5.952   9.495 -0.5591 -0.9680 -2.3261
   58SAPC   C39 4394   3.481   6.014   9.322  0.5823  0.3194  0.0724
   58SAPC   H9X 4395   3.405   5.969   9.254  0.0013  0.0447  0.8881
   58SAPC   H9Y 4396   3.566   5.946   9.346  0.3636 -1.1372 -3.0126
   58SAPC  C310 4397   3.551   6.132   9.257 -0.5226  0.2226 -0.7021
   58SAPC  H10X 4398   3.648   6.159   9.305 -0.9919 -0.1274  0.4690
   58SAPC  H10Y 4399   3.485   6.222   9.257 -0.9210 -0.0614  0.7985
   58SAPC  C311 4400   3.577   6.104   9.110 -0.0305  0.4007  0.1925
   58SAPC  H11X 4401   3.590   6.200   9.054 -0.6591  0.3208 -0.0987
   58SAPC  H11Y 4402   3.483   6.070   9.061 -0.5301 -1.7103  2.5540
   58SAPC  C312 4403   3.700   6.017   9.082  0.0448  0.0754 -0.0521
   58SAPC  H12X 4404   3.701   5.922   9.140  0.7994 -0.3525 -0.7491
   58SAPC  H12Y 4405   3.796   6.071   9.101  0.3649 -1.2102  2.1299
   58SAPC  C313 4406   3.713   5.985   8.928  0.2569  0.4125  0.6721
   58SAPC  H13X 4407   3.731   6.078   8.869  0.9935 -0.4905 -0.5581
   58SAPC  H13Y 4408   3.616   5.941   8.896  1.0185 -0.2538 -0.7882
   58SAPC  C314 4409   3.826   5.884   8.891 -0.4961  0.1002  0.1988
   58SAPC  H14X 4410   3.806   5.796   8.955 -3.0891 -0.5938 -1.4804
   58SAPC  H14Y 4411   3.925   5.918   8.928  0.4306 -0.2707 -1.8204
   58SAPC  C315 4412   3.829   5.863   8.738 -0.1994 -0.3602  0.4598
   58SAPC  H15X 4413   3.744   5.803   8.699  1.6549 -3.9290  1.6320
   58SAPC  H15Y 4414   3.928   5.819   8.711  0.3274  0.3767  1.1539
   58SAPC  C316 4415   3.826   5.994   8.649  0.0528  0.5435 -0.1350
   58SAPC  H16X 4416   3.897   6.073   8.681 -0.6770  0.7605  1.0051
   58SAPC  H16Y 4417   3.723   6.034   8.657 -0.8360 -1.7690  0.4954
   58SAPC  C317 4418   3.869   5.962   8.501  0.2646 -0.3337  0.1227
   58SAPC  H17X 4419   3.961   5.900   8.500  0.9157  0.6001  0.9990
   58SAPC  H17Y 4420   3.881   6.060   8.451  0.1875  0.1041  0.9405
   58SAPC  C318 4421   3.762   5.880   8.440 -0.1318  0.2780 -0.3581
   58SAPC  H18X 4422   3.745   5.785   8.495  1.5798  0.7825  1.0654
   58SAPC  H18Y 4423   3.788   5.853   8.335  0.0950 -1.5044  0.1379
   58SAPC  H18Z 4424   3.666   5.935   8.432  0.0943  0.6471 -0.5138
   59SAPC     N 4425   5.374   1.563  11.361 -0.3001 -0.2999 -0.1562
   59SAPC   C12 4426   5.416   1.476  11.240 -0.2580  0.0266 -0.5127
   59SAPC  H12A 4427   5.501   1.420  11.275 -2.4557 -2.2259  1.4545
   59SAPC  H12B 4428   5.461   1.543  11.169  0.7593 -1.1252 -0.9518
   59SAPC   C13 4429   5.275   1.660  11.311  0.0003  0.2699 -0.1334
   59SAPC  H13A 4430   5.314   1.720  11.231  1.7109  0.8291  1.0907
   59SAPC  H13B 4431   5.188   1.603  11.279 -0.3347  0.7476 -0.0764
   59SAPC  H13C 4432   5.241   1.713  11.399 -1.7579 -1.1566  0.0847
   59SAPC   C14 4433   5.318   1.485  11.477 -0.4467  0.1190  0.1017
   59SAPC  H14A 4434   5.256   1.408  11.434 -1.1805 -0.5298  2.2686
   59SAPC  H14B 4435   5.400   1.436  11.528  0.1587  0.8193 -0.1919
   59SAPC  H14C 4436   5.251   1.540  11.541 -0.8824 -0.0772 -0.1800
   59SAPC   C15 4437   5.483   1.653  11.407  0.0761  0.1498 -0.6216
   59SAPC  H15A 4438   5.454   1.693  11.503  0.1394 -0.7271 -0.2298
   59SAPC  H15B 4439   5.561   1.582  11.429 -1.2462 -0.9041  0.7681
   59SAPC  H15C 4440   5.518   1.727  11.336 -1.8271 -0.8877 -2.7141
   59SAPC   C11 4441   5.310   1.380  11.183  0.1308  0.3779  0.1790
   59SAPC  H11A 4442   5.354   1.357  11.084  0.3116  0.5301  0.2248
   59SAPC  H11B 4443   5.215   1.434  11.160  0.1846  0.4705  0.1722
   59SAPC     P 4444   5.369   1.140  11.275 -0.3665  0.6668 -0.3870
   59SAPC   O13 4445   5.507   1.182  11.298  0.3173 -0.2804 -0.4338
   59SAPC   O14 4446   5.311   1.048  11.383  0.2500 -0.4521 -0.5619
   59SAPC   O12 4447   5.279   1.266  11.261  0.3488 -0.2145  0.0211
   59SAPC   O11 4448   5.353   1.067  11.135 -0.5548 -0.1171  0.4707
   59SAPC    C1 4449   5.233   0.996  11.095  0.0633 -0.4936  0.6725
   59SAPC    HA 4450   5.232   0.892  11.136 -0.0865 -0.0804  1.7129
   59SAPC    HB 4451   5.142   1.042  11.139  0.1489 -0.2554  0.5994
   59SAPC    C2 4452   5.209   1.008  10.939  0.5889  0.5785 -0.1368
   59SAPC    HS 4453   5.113   0.958  10.914  1.5833 -0.1106 -2.7040
   59SAPC   O21 4454   5.322   0.948  10.872 -0.2328 -0.4354 -0.3061
   59SAPC   C21 4455   5.306   0.902  10.743  0.3405  0.4704  1.1603
   59SAPC   O22 4456   5.195   0.869  10.701  0.2815  0.6258  0.4794
   59SAPC   C22 4457   5.442   0.930  10.665 -0.5430 -0.5013 -0.0418
   59SAPC   H2R 4458   5.525   0.901  10.733  1.3599  1.2776 -1.5410
   59SAPC   H2S 4459   5.445   0.862  10.577 -0.5633 -0.0095 -0.4256
   59SAPC    C3 4460   5.206   1.155  10.892 -0.6031  0.2520  0.2147
   59SAPC    HX 4461   5.313   1.184  10.882 -0.5534 -0.2610 -0.7344
   59SAPC    HY 4462   5.169   1.223  10.972 -0.2867  0.5519  0.1061
   59SAPC   O31 4463   5.138   1.174  10.768 -0.4082  0.2042 -0.0073
   59SAPC   C31 4464   5.006   1.168  10.772  0.1383  0.1898  0.3495
   59SAPC   O32 4465   4.936   1.153  10.876 -0.5016 -0.0496  0.7915
   59SAPC   C32 4466   4.953   1.163  10.631  0.4491 -1.0571  0.1679
   59SAPC   H2X 4467   4.863   1.228  10.630  2.6800  2.1269  0.2908
   59SAPC   H2Y 4468   4.913   1.061  10.609 -0.2263 -0.4544 -1.4646
   59SAPC   C23 4469   5.448   1.067  10.612  0.2356 -0.5917  0.8332
   59SAPC   H3R 4470   5.470   1.136  10.696 -0.0836  1.3270 -0.6271
   59SAPC   H3S 4471   5.357   1.101  10.559  1.9029  1.2745 -0.9120
   59SAPC   C24 4472   5.553   1.092  10.499 -0.1338 -0.2679 -0.0485
   59SAPC   H4R 4473   5.550   1.007  10.427  0.3095 -0.5702  0.2895
   59SAPC   H4S 4474   5.659   1.103  10.531  0.1991 -0.8178 -0.9443
   59SAPC   C25 4475   5.528   1.231  10.442  0.0042  0.3834  0.2117
   59SAPC   H5R 4476   5.572   1.319  10.492 -0.2172  0.6712 -0.1018
   59SAPC   C26 4477   5.472   1.261  10.324 -0.2222  0.6112  0.4178
   59SAPC   H6R 4478   5.475   1.366  10.292  1.7404  0.9791  1.7348
   59SAPC   C27 4479   5.417   1.168  10.214 -0.3702 -0.7360 -0.1360
   59SAPC   H7R 4480   5.354   1.091  10.263 -1.1040  0.1618  0.3610
   59SAPC   H7S 4481   5.510   1.132  10.165 -0.6531 -1.9597  0.2151
   59SAPC   C28 4482   5.329   1.245  10.121  0.4853  0.1295  0.6625
   59SAPC   H8R 4483   5.266   1.323  10.166 -1.5695 -1.4666  0.6136
   59SAPC   C29 4484   5.309   1.217   9.992  0.2541  0.3719 -0.8457
   59SAPC   H9R 4485   5.245   1.283   9.931 -3.1731 -1.1145  1.0301
   59SAPC  C210 4486   5.380   1.110   9.914 -0.1052  0.0172  0.5835
   59SAPC  H10R 4487   5.310   1.060   9.844  0.7729  0.2918 -0.5142
   59SAPC  H10S 4488   5.412   1.031   9.986  0.3044 -1.9127 -1.6344
   59SAPC  C211 4489   5.516   1.160   9.863 -0.2155 -0.5077 -0.0986
   59SAPC  H11R 4490   5.567   1.225   9.936 -0.5410  3.3217 -3.1186
   59SAPC  C212 4491   5.571   1.161   9.739  0.6002  0.6922  0.2772
   59SAPC  H12R 4492   5.670   1.209   9.729 -0.5101  3.2710  1.1054
   59SAPC  C213 4493   5.492   1.119   9.609  0.1489  0.0511 -0.2716
   59SAPC  H13R 4494   5.435   1.030   9.641  1.0204 -0.0257  1.1259
   59SAPC  H13S 4495   5.563   1.099   9.525 -0.1736 -0.3494 -0.4505
   59SAPC  C214 4496   5.398   1.222   9.556  0.6918  0.2157  0.3254
   59SAPC  H14R 4497   5.339   1.270   9.636  1.1382  1.6294 -0.1927
   59SAPC  C215 4498   5.374   1.249   9.427  0.5431 -0.0240 -0.6556
   59SAPC  H15R 4499   5.293   1.317   9.398 -1.5732 -2.1339  0.1467
   59SAPC  C216 4500   5.450   1.186   9.315 -0.6879 -0.0598  0.2110
   59SAPC  H16R 4501   5.486   1.081   9.328 -2.3304 -0.5879  0.6009
   59SAPC  H16S 4502   5.537   1.249   9.287  0.4062 -1.6701 -0.1530
   59SAPC  C217 4503   5.358   1.182   9.193 -0.1553 -0.3572  0.2441
   59SAPC  H17R 4504   5.330   1.286   9.164 -2.1647 -1.6219 -2.6328
   59SAPC  H17S 4505   5.270   1.126   9.231 -1.0023  0.7389 -0.0737
   59SAPC  C218 4506   5.419   1.105   9.072  0.8100 -0.0931  0.3336
   59SAPC  H18R 4507   5.448   1.004   9.109 -0.4568 -0.4572  0.3881
   59SAPC  H18S 4508   5.514   1.149   9.036  1.6132 -1.2765  0.9676
   59SAPC  C219 4509   5.313   1.101   8.952  0.1715  0.5601 -0.5548
   59SAPC  H19R 4510   5.266   1.202   8.951  1.6998  1.2938 -2.7774
   59SAPC  H19S 4511   5.222   1.039   8.967 -2.0719  3.5386 -1.2835
   59SAPC  C220 4512   5.372   1.061   8.818 -0.2601 -0.4251  0.2340
   59SAPC  H20R 4513   5.416   0.960   8.831 -0.3314 -0.7007 -1.5392
   59SAPC  H20S 4514   5.452   1.129   8.780  0.2760 -0.8651  0.5618
   59SAPC  H20T 4515   5.291   1.056   8.743 -0.4392  1.7909  0.2453
   59SAPC   C33 4516   5.044   1.225  10.520 -0.1581 -0.3372 -0.6892
   59SAPC   H3X 4517   5.137   1.165  10.515  0.6920  0.9641 -0.6974
   59SAPC   H3Y 4518   5.078   1.328  10.545 -2.5866  0.0109  1.3176
   59SAPC   C34 4519   4.981   1.220  10.381  0.4401  0.3398  0.0652
   59SAPC   H4X 4520   4.926   1.127  10.354 -1.4867  0.7636  2.3927
   59SAPC   H4Y 4521   5.069   1.224  10.313 -0.6445 -0.5449 -1.4238
   59SAPC   C35 4522   4.886   1.336  10.360 -0.3862  0.2191  0.2158
   59SAPC   H5X 4523   4.949   1.424  10.334  1.8282 -1.4552 -0.2158
   59SAPC   H5Y 4524   4.835   1.353  10.457  0.4216  2.4529  0.2962
   59SAPC   C36 4525   4.773   1.315  10.264 -0.8486  0.7794 -0.2649
   59SAPC   H6X 4526   4.698   1.397  10.263  1.4607  2.9407  0.1580
   59SAPC   H6Y 4527   4.719   1.225  10.302  1.1930 -1.2476 -1.9917
   59SAPC   C37 4528   4.818   1.294  10.117 -0.0834  0.2330  0.1102
   59SAPC   H7X 4529   4.724   1.301  10.060  0.6839  0.8230 -1.0900
   59SAPC   H7Y 4530   4.869   1.195  10.113 -0.5967 -0.0354  0.2113
   59SAPC   C38 4531   4.930   1.387  10.062  0.0669 -0.2054  0.4572
   59SAPC   H8X 4532   5.021   1.359  10.119 -0.8003 -0.8681  1.5360
   59SAPC   H8Y 4533   4.905   1.489  10.099 -1.8733 -2.2658  5.3266
   59SAPC   C39 4534   4.950   1.389   9.913  0.6136 -0.2253 -0.0117
   59SAPC   H9X 4535   5.059   1.409   9.905  0.6970 -0.5066  0.3686
   59SAPC   H9Y 4536   4.900   1.466   9.852  0.8010 -0.2627 -0.2151
   59SAPC  C310 4537   4.921   1.246   9.862 -0.5218 -0.3428  0.3644
   59SAPC  H10X 4538   4.812   1.229   9.864 -0.9853  2.2446 -0.4911
   59SAPC  H10Y 4539   4.977   1.174   9.925 -0.1247 -2.4634 -2.3295
   59SAPC  C311 4540   4.983   1.222   9.722 -0.4996  0.2530 -0.1340
   59SAPC  H11X 4541   5.033   1.124   9.707  1.9984  1.7177 -1.6627
   59SAPC  H11Y 4542   5.068   1.292   9.707 -0.4113  0.1382 -0.1596
   59SAPC  C312 4543   4.868   1.226   9.623  0.8397  0.6028  0.5334
   59SAPC  H12X 4544   4.809   1.319   9.637  0.8502  0.6434  0.3160
   59SAPC  H12Y 4545   4.801   1.141   9.648  0.9045  0.0204 -1.1852
   59SAPC  C313 4546   4.920   1.208   9.481 -0.1743 -0.4604 -0.1157
   59SAPC  H13X 4547   4.991   1.122   9.482 -0.1297 -0.4231 -0.0163
   59SAPC  H13Y 4548   4.967   1.301   9.443  3.9996 -0.5997  4.1841
   59SAPC  C314 4549   4.809   1.166   9.386  0.1296  0.1345  0.3649
   59SAPC  H14X 4550   4.733   1.246   9.383  0.8929  0.8169 -1.7884
   59SAPC  H14Y 4551   4.764   1.074   9.428 -2.8626  0.9068 -1.0246
   59SAPC  C315 4552   4.864   1.142   9.246 -0.4188 -0.1269  0.3853
   59SAPC  H15X 4553   4.791   1.099   9.173 -0.5610 -2.9666  2.1503
   59SAPC  H15Y 4554   4.937   1.060   9.260  2.3661  1.5094 -3.5883
   59SAPC  C316 4555   4.937   1.267   9.187 -0.0209  0.3202  0.4039
   59SAPC  H16X 4556   5.036   1.272   9.237  0.0157  1.2453  0.2461
   59SAPC  H16Y 4557   4.886   1.363   9.211  1.2265  2.2950 -4.3367
   59SAPC  C317 4558   4.973   1.260   9.038  0.0002 -0.4109 -1.2121
   59SAPC  H17X 4559   4.888   1.233   8.971 -0.7814 -0.9001 -0.0513
   59SAPC  H17Y 4560   5.043   1.177   9.015 -1.0352 -1.2754 -1.2837
   59SAPC  C318 4561   5.044   1.386   8.996  0.0921 -0.3347  0.1529
   59SAPC  H18X 4562   4.974   1.471   9.008  1.1971  0.5338  0.4598
   59SAPC  H18Y 4563   5.067   1.379   8.888  2.1068 -0.6883  0.5843
   59SAPC  H18Z 4564   5.135   1.405   9.057  0.2320  1.9121 -0.7223
   60SAPC     N 4565   0.174   6.114  10.944 -0.3457 -0.5241  0.3016
   60SAPC   C12 4566   0.215   6.170  10.807 -0.2457 -0.5113  0.9426
   60SAPC  H12A 4567   0.206   6.087  10.739 -0.9324 -1.4489  2.1609
   60SAPC  H12B 4568   0.320   6.194  10.816 -0.6573  1.7409 -0.0342
   60SAPC   C13 4569   0.247   5.977  10.966  0.2947 -0.2983 -0.1761
   60SAPC  H13A 4570   0.351   5.979  10.997  0.1715 -0.4088  0.2498
   60SAPC  H13B 4571   0.198   5.935  11.053 -0.6492 -1.6721 -1.3505
   60SAPC  H13C 4572   0.238   5.905  10.886  0.6934 -0.6663  0.1057
   60SAPC   C14 4573   0.210   6.203  11.056  0.8022 -0.3738  0.4277
   60SAPC  H14A 4574   0.208   6.308  11.030  1.6143 -0.8380 -1.6420
   60SAPC  H14B 4575   0.141   6.203  11.139 -1.0482 -2.7151 -1.0454
   60SAPC  H14C 4576   0.302   6.178  11.108  0.9399  1.6306  1.2062
   60SAPC   C15 4577   0.027   6.085  10.943  0.1355 -0.6598  0.4553
   60SAPC  H15A 4578  -0.028   6.178  10.934  1.0267 -0.2773 -1.2666
   60SAPC  H15B 4579  -0.005   6.016  10.867  2.3778 -1.9016  0.6083
   60SAPC  H15C 4580  -0.009   6.045  11.037  0.0197 -2.0258 -0.1685
   60SAPC   C11 4581   0.138   6.293  10.751  0.2524 -0.2107  0.0655
   60SAPC  H11A 4582   0.028   6.279  10.757  0.4615 -1.5105  0.9796
   60SAPC  H11B 4583   0.168   6.309  10.645 -0.7089  0.3560 -0.1290
   60SAPC     P 4584   0.255   6.529  10.768  0.5169  0.1971 -0.0876
   60SAPC   O13 4585   0.244   6.651  10.849  0.0769  0.5504  0.4178
   60SAPC   O14 4586   0.389   6.477  10.738 -0.0030 -0.2554 -0.5215
   60SAPC   O12 4587   0.163   6.410  10.832 -0.2730  0.1661 -0.0049
   60SAPC   O11 4588   0.180   6.553  10.628 -0.3038  0.0539 -0.0729
   60SAPC    C1 4589   0.066   6.643  10.627 -0.0509 -0.1270  0.2369
   60SAPC    HA 4590  -0.015   6.614  10.697 -1.6190  2.2451 -0.5343
   60SAPC    HB 4591   0.097   6.746  10.653 -1.0530  0.3167 -0.2991
   60SAPC    C2 4592   0.006   6.638  10.481 -0.7072  0.0964 -0.2396
   60SAPC    HS 4593  -0.096   6.680  10.490 -0.5833  0.6456 -1.2945
   60SAPC   O21 4594   0.011   6.513  10.413 -0.0833 -0.3729 -0.2898
   60SAPC   C21 4595  -0.057   6.416  10.463  0.4244  0.2924 -0.1324
   60SAPC   O22 4596  -0.155   6.422  10.537  0.1985 -0.4575 -0.1406
   60SAPC   C22 4597  -0.010   6.286  10.404 -0.4282 -0.9096 -0.7691
   60SAPC   H2R 4598   0.079   6.300  10.339  0.3817  3.2497  1.0541
   60SAPC   H2S 4599   0.017   6.223  10.491  1.6110  0.9176 -0.0370
   60SAPC    C3 4600   0.065   6.752  10.402  0.8164  0.7982 -0.1023
   60SAPC    HX 4601   0.176   6.753  10.413  0.7699  2.7098  0.3379
   60SAPC    HY 4602   0.031   6.845  10.451  0.9138  1.2837 -0.9431
   60SAPC   O31 4603   0.009   6.748  10.269 -0.1150  0.1595  0.1571
   60SAPC   C31 4604   0.076   6.674  10.178 -0.2621  0.3930  0.2980
   60SAPC   O32 4605   0.180   6.614  10.201  0.4462 -0.2587 -0.0647
   60SAPC   C32 4606  -0.001   6.673  10.042 -0.5593 -0.3344  0.9309
   60SAPC   H2X 4607  -0.031   6.776  10.012 -0.0272 -0.7639 -1.1367
   60SAPC   H2Y 4608  -0.094   6.613  10.041  0.4262 -1.9224 -2.4885
   60SAPC   C23 4609  -0.129   6.216  10.332  0.3948 -0.5528  0.1231
   60SAPC   H3R 4610  -0.226   6.233  10.383  0.1742  1.2755 -0.8357
   60SAPC   H3S 4611  -0.093   6.111  10.335  0.5752 -0.5648 -1.8224
   60SAPC   C24 4612  -0.152   6.258  10.185 -0.1865  0.3924 -0.9608
   60SAPC   H4R 4613  -0.071   6.229  10.115  0.4870 -1.5110  0.5874
   60SAPC   H4S 4614  -0.161   6.369  10.185 -3.1988  0.2242  1.7716
   60SAPC   C25 4615  -0.290   6.213  10.138 -0.3547 -0.1863  0.3378
   60SAPC   H5R 4616  -0.357   6.165  10.211 -0.0046 -2.3136 -0.6975
   60SAPC   C26 4617  -0.328   6.216  10.008  0.1996  1.1204  0.5808
   60SAPC   H6R 4618  -0.422   6.165   9.983  1.8894 -1.8893  0.1881
   60SAPC   C27 4619  -0.266   6.275   9.885 -0.3333 -0.7010  0.2884
   60SAPC   H7R 4620  -0.225   6.201   9.813  0.3409  0.9380 -1.0600
   60SAPC   H7S 4621  -0.175   6.334   9.912  0.0371 -0.2004 -1.9187
   60SAPC   C28 4622  -0.362   6.371   9.823 -0.9007 -0.3670  0.3036
   60SAPC   H8R 4623  -0.394   6.453   9.889 -1.9108 -2.8909  3.0614
   60SAPC   C29 4624  -0.415   6.370   9.695 -0.0051  0.3179 -0.3873
   60SAPC   H9R 4625  -0.484   6.452   9.671 -1.6672 -1.4403 -1.8161
   60SAPC  C210 4626  -0.386   6.262   9.598 -0.0132 -0.1768  0.1644
   60SAPC  H10R 4627  -0.387   6.165   9.652  0.9888  0.5262  1.5088
   60SAPC  H10S 4628  -0.285   6.287   9.558 -0.0235 -0.3175  0.0479
   60SAPC  C211 4629  -0.486   6.250   9.485 -0.1975 -0.3026 -0.9193
   60SAPC  H11R 4630  -0.591   6.281   9.500 -0.9877 -2.2389 -2.2566
   60SAPC  C212 4631  -0.455   6.203   9.361  0.8491  0.3616 -0.2578
   60SAPC  H12R 4632  -0.540   6.189   9.292  1.3978 -1.5337 -0.5768
   60SAPC  C213 4633  -0.322   6.158   9.313 -0.1576  0.0974 -0.6214
   60SAPC  H13R 4634  -0.244   6.187   9.386 -0.1526  1.0644 -1.0021
   60SAPC  H13S 4635  -0.293   6.215   9.222 -1.8435  1.1973 -0.5053
   60SAPC  C214 4636  -0.294   6.015   9.272 -0.2670 -0.3100  0.3226
   60SAPC  H14R 4637  -0.335   5.985   9.175 -0.4457  1.8613 -0.2836
   60SAPC  C215 4638  -0.221   5.925   9.331  0.6222 -0.0153 -0.0827
   60SAPC  H15R 4639  -0.219   5.828   9.279  0.5533  0.2619 -0.6039
   60SAPC  C216 4640  -0.142   5.937   9.459 -0.6746 -0.3795  0.6124
   60SAPC  H16R 4641  -0.141   6.045   9.488  0.7811  0.1217 -1.1553
   60SAPC  H16S 4642  -0.036   5.910   9.444 -0.1263  1.4614  0.9653
   60SAPC  C217 4643  -0.195   5.858   9.574 -0.3659 -0.1208  0.5347
   60SAPC  H17R 4644  -0.194   5.752   9.540 -0.1538  0.3900 -1.1128
   60SAPC  H17S 4645  -0.300   5.880   9.604 -0.1793 -0.1978  1.2348
   60SAPC  C218 4646  -0.129   5.865   9.709 -0.5495 -0.0248  0.0839
   60SAPC  H18R 4647  -0.115   5.973   9.731 -3.1106  0.3211  0.1091
   60SAPC  H18S 4648  -0.024   5.829   9.704 -1.1189 -1.4846 -1.7052
   60SAPC  C219 4649  -0.199   5.800   9.832 -0.4192  0.1979 -0.4711
   60SAPC  H19R 4650  -0.123   5.798   9.914  0.7739 -3.5006 -1.6005
   60SAPC  H19S 4651  -0.215   5.693   9.808 -1.3415  0.0595  0.7078
   60SAPC  C220 4652  -0.330   5.868   9.863  0.6566 -0.0163 -0.0829
   60SAPC  H20R 4653  -0.315   5.969   9.907 -1.1238  0.7030 -1.0562
   60SAPC  H20S 4654  -0.379   5.812   9.946  0.4044 -2.0448 -1.5792
   60SAPC  H20T 4655  -0.398   5.872   9.775 -2.4882 -0.7795  2.1871
   60SAPC   C33 4656   0.094   6.625   9.928  0.1998 -0.6776 -0.7212
   60SAPC   H3X 4657   0.128   6.523   9.957 -0.3461 -0.6331  0.0807
   60SAPC   H3Y 4658   0.192   6.673   9.905 -0.9810  1.5777 -1.1792
   60SAPC   C34 4659   0.022   6.634   9.795  0.2379  0.4010 -0.1121
   60SAPC   H4X 4660  -0.008   6.740   9.784 -1.2909 -0.1129 -1.0075
   60SAPC   H4Y 4661  -0.075   6.580   9.792  1.4133 -1.6891 -1.5876
   60SAPC   C35 4662   0.109   6.588   9.682 -0.1359 -0.1088  0.5021
   60SAPC   H5X 4663   0.193   6.533   9.728  0.8346  0.7035 -0.2533
   60SAPC   H5Y 4664   0.161   6.678   9.641 -0.8182  0.1943  0.2783
   60SAPC   C36 4665   0.049   6.490   9.584 -0.1715  0.3152 -0.0200
   60SAPC   H6X 4666   0.016   6.405   9.648 -0.3563  1.6109  1.6416
   60SAPC   H6Y 4667   0.133   6.462   9.517 -0.3230  3.4981 -1.6463
   60SAPC   C37 4668  -0.071   6.540   9.498 -0.3806  0.0001 -0.1154
   60SAPC   H7X 4669  -0.051   6.641   9.456 -0.5506  0.1365  0.1340
   60SAPC   H7Y 4670  -0.164   6.532   9.558 -0.3249 -1.4568 -0.1962
   60SAPC   C38 4671  -0.095   6.449   9.369 -0.5563 -0.0926  0.5428
   60SAPC   H8X 4672  -0.202   6.458   9.342 -0.1677 -2.2105 -1.8740
   60SAPC   H8Y 4673  -0.088   6.346   9.410 -0.3949  0.1109  1.0317
   60SAPC   C39 4674  -0.006   6.489   9.250 -0.5587 -0.5716  0.9895
   60SAPC   H9X 4675   0.097   6.483   9.290 -1.0064 -0.7168  2.1457
   60SAPC   H9Y 4676  -0.035   6.595   9.230  0.0748 -0.2416  1.8016
   60SAPC  C310 4677  -0.015   6.413   9.119 -0.1571 -0.0383  0.7442
   60SAPC  H10X 4678  -0.001   6.304   9.137  0.6525 -0.0581  0.0150
   60SAPC  H10Y 4679   0.065   6.450   9.051  0.9018  0.2908  2.1237
   60SAPC  C311 4680  -0.147   6.434   9.050 -0.1664 -0.0326 -0.4221
   60SAPC  H11X 4681  -0.166   6.543   9.036 -1.8045 -0.0908  1.1580
   60SAPC  H11Y 4682  -0.234   6.401   9.111 -0.1321  1.6946  0.5953
   60SAPC  C312 4683  -0.162   6.368   8.912 -0.1636  0.3704 -0.5190
   60SAPC  H12X 4684  -0.061   6.385   8.868  1.0196 -0.5017  1.7957
   60SAPC  H12Y 4685  -0.247   6.412   8.856 -0.8055  0.3886  0.4690
   60SAPC  C313 4686  -0.172   6.224   8.904  0.5946 -0.8244 -0.3340
   60SAPC  H13X 4687  -0.247   6.171   8.966  0.1181 -0.7441 -0.8393
   60SAPC  H13Y 4688  -0.078   6.179   8.942  1.8488  2.5828  0.7811
   60SAPC  C314 4689  -0.191   6.172   8.761 -0.7554  0.3144 -0.1612
   60SAPC  H14X 4690  -0.173   6.062   8.762  0.4608  0.4926 -1.0390
   60SAPC  H14Y 4691  -0.128   6.219   8.682 -0.1746 -2.2386 -1.2712
   60SAPC  C315 4692  -0.331   6.185   8.701 -0.3399  0.0175  0.3578
   60SAPC  H15X 4693  -0.359   6.292   8.704 -0.9113 -0.0701 -1.1340
   60SAPC  H15Y 4694  -0.405   6.131   8.764  1.1769 -2.9962 -0.3453
   60SAPC  C316 4695  -0.349   6.132   8.558 -0.2995  0.4933  0.9239
   60SAPC  H16X 4696  -0.310   6.028   8.550 -1.7056  0.2135 -3.4797
   60SAPC  H16Y 4697  -0.293   6.193   8.485 -1.3822  0.4080  0.0173
   60SAPC  C317 4698  -0.497   6.143   8.516  0.0038 -0.0759 -0.3240
   60SAPC  H17X 4699  -0.529   6.249   8.520  2.9169  0.8110  2.5061
   60SAPC  H17Y 4700  -0.573   6.089   8.576 -0.2156  1.1920  0.5603
   60SAPC  C318 4701  -0.511   6.112   8.369  0.1297 -0.1602 -0.0085
   60SAPC  H18X 4702  -0.622   6.110   8.358  0.2557  1.4715 -1.8649
   60SAPC  H18Y 4703  -0.455   6.022   8.335  0.7941 -0.2974  1.4278
   60SAPC  H18Z 4704  -0.479   6.197   8.306 -1.8934  2.7348  2.7024
   61SAPC     N 4705   0.982   5.410  11.259  0.3977 -0.1886 -0.5329
   61SAPC   C12 4706   0.902   5.383  11.136 -0.5909  0.7304 -0.2366
   61SAPC  H12A 4707   0.856   5.288  11.158 -0.4907  0.0778 -2.6566
   61SAPC  H12B 4708   0.973   5.346  11.064 -0.2066 -0.5674  0.8055
   61SAPC   C13 4709   0.886   5.459  11.363 -0.4293 -0.1187 -0.0404
   61SAPC  H13A 4710   0.862   5.557  11.324 -0.8362 -0.0791  0.3137
   61SAPC  H13B 4711   0.793   5.404  11.371 -1.3611  1.6463  1.5694
   61SAPC  H13C 4712   0.930   5.475  11.460 -0.4229 -1.6354  0.2285
   61SAPC   C14 4713   1.049   5.291  11.317  0.2596  0.6988  0.1065
   61SAPC  H14A 4714   1.104   5.325  11.403 -0.2133 -0.6913  0.9772
   61SAPC  H14B 4715   0.965   5.229  11.345 -1.1486  2.2748 -0.5003
   61SAPC  H14C 4716   1.117   5.245  11.246 -1.7392  2.3476 -3.0258
   61SAPC   C15 4717   1.086   5.515  11.245  0.0309  0.3513  1.0462
   61SAPC  H15A 4718   1.161   5.480  11.176  0.3056 -0.4450  1.7390
   61SAPC  H15B 4719   1.051   5.611  11.210  1.5596  0.1373 -1.1949
   61SAPC  H15C 4720   1.127   5.534  11.342 -1.6128 -1.1040  2.0597
   61SAPC   C11 4721   0.803   5.480  11.074 -0.3205 -1.0519  0.8659
   61SAPC  H11A 4722   0.726   5.493  11.153  0.8853  1.7396  1.6468
   61SAPC  H11B 4723   0.738   5.434  10.996 -1.2411 -0.4687  1.2748
   61SAPC     P 4724   0.900   5.643  10.893 -0.2585 -0.4593 -0.0475
   61SAPC   O13 4725   0.862   5.782  10.866 -0.4272  0.2326  0.0659
   61SAPC   O14 4726   1.036   5.611  10.868 -0.4752 -0.2596  0.2100
   61SAPC   O12 4727   0.857   5.608  11.039  0.2543 -0.3889  0.0369
   61SAPC   O11 4728   0.820   5.538  10.806 -0.2125 -0.1590 -0.3532
   61SAPC    C1 4729   0.686   5.568  10.748 -0.4299  0.5968  0.5002
   61SAPC    HA 4730   0.614   5.484  10.756  0.3252 -0.0846  0.1713
   61SAPC    HB 4731   0.633   5.654  10.795  0.2817  2.2447 -1.6713
   61SAPC    C2 4732   0.687   5.584  10.595  0.3608 -0.0707 -1.0302
   61SAPC    HS 4733   0.584   5.602  10.557  0.2182  1.0083 -0.1642
   61SAPC   O21 4734   0.744   5.471  10.517  0.3523  0.5363 -0.0300
   61SAPC   C21 4735   0.658   5.375  10.502  0.3107 -0.1804  0.1048
   61SAPC   O22 4736   0.543   5.368  10.549 -0.6688  0.2174 -0.1296
   61SAPC   C22 4737   0.731   5.276  10.411 -0.3507  0.3659 -0.0063
   61SAPC   H2R 4738   0.819   5.321  10.361 -0.9995  0.3608 -1.1697
   61SAPC   H2S 4739   0.756   5.185  10.469 -4.3939  0.7582  2.5965
   61SAPC    C3 4740   0.760   5.723  10.553  0.3432 -0.1557  0.1768
   61SAPC    HX 4741   0.864   5.731  10.592 -0.0921 -2.8195  2.0272
   61SAPC    HY 4742   0.705   5.806  10.602 -1.3324 -0.8587 -0.4643
   61SAPC   O31 4743   0.764   5.733  10.409  0.0299 -0.3006 -0.0539
   61SAPC   C31 4744   0.876   5.689  10.349  0.0484  0.0677  0.8744
   61SAPC   O32 4745   0.975   5.652  10.399 -0.1431 -0.0511  0.7735
   61SAPC   C32 4746   0.844   5.696  10.199 -0.4004  0.4396 -0.3976
   61SAPC   H2X 4747   0.735   5.714  10.182 -0.5260  0.7876  0.7566
   61SAPC   H2Y 4748   0.864   5.597  10.154  1.8736  0.7017 -0.0192
   61SAPC   C23 4749   0.632   5.213  10.307  0.0335 -0.7855  0.2835
   61SAPC   H3R 4750   0.547   5.166  10.360 -1.6396  0.1882 -1.4628
   61SAPC   H3S 4751   0.672   5.131  10.244 -1.2233 -0.1520 -1.3897
   61SAPC   C24 4752   0.582   5.339  10.220  0.4465 -0.3845  0.2285
   61SAPC   H4R 4753   0.661   5.407  10.181  1.1649 -1.0585  0.4958
   61SAPC   H4S 4754   0.523   5.404  10.288  1.6681  0.7730  0.2016
   61SAPC   C25 4755   0.503   5.278  10.107 -0.5238 -0.3584 -0.4439
   61SAPC   H5R 4756   0.398   5.276  10.140 -0.4152  0.8118 -0.0083
   61SAPC   C26 4757   0.534   5.232   9.982 -0.5959  0.1358 -0.1929
   61SAPC   H6R 4758   0.461   5.173   9.925 -0.3078  0.9338 -1.4055
   61SAPC   C27 4759   0.675   5.221   9.924  0.5969  0.2842  0.5342
   61SAPC   H7R 4760   0.709   5.117   9.907  1.9009  0.7676  0.1076
   61SAPC   H7S 4761   0.755   5.265   9.987  0.9697  1.8455 -0.9740
   61SAPC   C28 4762   0.676   5.289   9.789 -0.2209 -0.0324  0.4368
   61SAPC   H8R 4763   0.667   5.397   9.807 -2.2846 -0.0710 -0.2844
   61SAPC   C29 4764   0.694   5.238   9.667  0.0530 -0.5385 -0.2322
   61SAPC   H9R 4765   0.708   5.300   9.577 -1.9351 -2.7190 -2.1222
   61SAPC  C210 4766   0.706   5.095   9.638 -0.4495 -0.0848  0.1472
   61SAPC  H10R 4767   0.685   5.034   9.728 -1.5909  0.1703  0.0712
   61SAPC  H10S 4768   0.808   5.063   9.607 -0.9579 -1.3094 -0.2931
   61SAPC  C211 4769   0.612   5.044   9.539  0.1220 -0.6206 -0.3339
   61SAPC  H11R 4770   0.517   5.000   9.575  0.7460 -1.9490 -0.2916
   61SAPC  C212 4771   0.633   5.048   9.406  0.0875 -0.5373 -0.5103
   61SAPC  H12R 4772   0.554   5.007   9.341 -2.7427  0.5200  2.1257
   61SAPC  C213 4773   0.755   5.096   9.337  0.1733  0.3213 -0.0509
   61SAPC  H13R 4774   0.811   5.014   9.287  0.2600 -0.2922  1.0297
   61SAPC  H13S 4775   0.829   5.137   9.410 -0.4051  2.7942 -0.8175
   61SAPC  C214 4776   0.734   5.210   9.238  0.1647  0.3846 -0.1428
   61SAPC  H14R 4777   0.740   5.308   9.288 -0.9742  0.0836  0.5917
   61SAPC  C215 4778   0.719   5.197   9.106  0.3345  0.3761  0.5357
   61SAPC  H15R 4779   0.713   5.286   9.041 -2.3481 -0.1988 -0.0971
   61SAPC  C216 4780   0.714   5.067   9.026  0.4676  0.0054  0.0643
   61SAPC  H16R 4781   0.610   5.049   8.992 -1.1333  2.6727  3.3774
   61SAPC  H16S 4782   0.736   4.976   9.086  0.8661 -0.5603 -0.9197
   61SAPC  C217 4783   0.803   5.056   8.900 -1.3204  0.4170 -0.1443
   61SAPC  H17R 4784   0.801   5.144   8.832 -0.1197 -0.0727 -0.8424
   61SAPC  H17S 4785   0.779   4.967   8.837  0.6955 -1.4592  1.6631
   61SAPC  C218 4786   0.954   5.048   8.939  1.0366  0.5479  0.7773
   61SAPC  H18R 4787   0.970   5.119   9.022  0.3332  1.3830  0.2101
   61SAPC  H18S 4788   1.012   5.086   8.853  1.4229  0.3455  0.9469
   61SAPC  C219 4789   0.998   4.910   9.001 -0.8063 -0.5699 -0.3463
   61SAPC  H19R 4790   0.977   4.822   8.936  0.1145 -0.7278 -0.4346
   61SAPC  H19S 4791   0.940   4.901   9.095  1.3558 -2.3994  0.8437
   61SAPC  C220 4792   1.148   4.903   9.023  0.2899  0.3037 -0.6644
   61SAPC  H20R 4793   1.182   4.974   9.101  1.9108 -0.9426 -0.2159
   61SAPC  H20S 4794   1.214   4.901   8.933 -0.0157 -0.7144 -0.8755
   61SAPC  H20T 4795   1.178   4.808   9.073 -1.3057 -0.3627 -0.9414
   61SAPC   C33 4796   0.916   5.815  10.126  0.5373 -0.2886  0.5547
   61SAPC   H3X 4797   1.003   5.760  10.083 -0.0288 -2.1325  1.7102
   61SAPC   H3Y 4798   0.944   5.899  10.193  0.3905  1.1910 -1.1854
   61SAPC   C34 4799   0.820   5.878  10.017  0.6172  0.5297  0.5152
   61SAPC   H4X 4800   0.876   5.959   9.965 -0.4232  0.1913 -1.1736
   61SAPC   H4Y 4801   0.737   5.926  10.073 -0.4776 -2.6600  1.7131
   61SAPC   C35 4802   0.784   5.786   9.906  0.2893 -0.1157  0.0993
   61SAPC   H5X 4803   0.728   5.698   9.945  1.1570 -1.0775 -0.7999
   61SAPC   H5Y 4804   0.881   5.741   9.878 -0.2313 -1.0359 -0.2394
   61SAPC   C36 4805   0.709   5.854   9.801  0.5514 -0.0967  0.0255
   61SAPC   H6X 4806   0.726   5.962   9.818  0.4055  0.3125 -2.2532
   61SAPC   H6Y 4807   0.600   5.837   9.817  0.0098  2.8964 -0.2552
   61SAPC   C37 4808   0.747   5.815   9.655  0.4850  0.2363 -0.1990
   61SAPC   H7X 4809   0.726   5.706   9.650 -0.6372  0.5155 -2.0348
   61SAPC   H7Y 4810   0.854   5.844   9.645  0.0707  3.3182  3.1606
   61SAPC   C38 4811   0.651   5.874   9.545 -0.1354  0.2406  0.7291
   61SAPC   H8X 4812   0.650   5.985   9.544 -0.5563  0.2343 -0.5843
   61SAPC   H8Y 4813   0.551   5.831   9.567  0.7673 -1.1185  2.2767
   61SAPC   C39 4814   0.691   5.832   9.403  0.6319 -0.8012  0.4462
   61SAPC   H9X 4815   0.674   5.722   9.405  0.9685 -0.8751 -0.4496
   61SAPC   H9Y 4816   0.792   5.859   9.367  0.5230  3.8835  3.3142
   61SAPC  C310 4817   0.581   5.883   9.305  0.3912 -0.0774  0.1002
   61SAPC  H10X 4818   0.593   5.993   9.306 -0.8659  0.0706 -0.3023
   61SAPC  H10Y 4819   0.485   5.847   9.348  1.4833 -1.7635  1.2167
   61SAPC  C311 4820   0.600   5.846   9.158  0.7636 -0.3130  0.2969
   61SAPC  H11X 4821   0.669   5.917   9.109 -0.1528  0.7971  0.5790
   61SAPC  H11Y 4822   0.506   5.872   9.104  0.9838  1.6369  0.8213
   61SAPC  C312 4823   0.633   5.703   9.150  0.3781 -0.3153  0.2503
   61SAPC  H12X 4824   0.558   5.641   9.204  0.1915  0.5826  1.0406
   61SAPC  H12Y 4825   0.727   5.677   9.202  0.2716  1.9182  1.6706
   61SAPC  C313 4826   0.623   5.653   9.001  0.1403 -0.6523 -0.1215
   61SAPC  H13X 4827   0.690   5.708   8.931  0.5686  1.4215  1.8530
   61SAPC  H13Y 4828   0.520   5.686   8.976  0.0990 -1.3796 -0.9566
   61SAPC  C314 4829   0.622   5.498   8.993 -0.0410 -0.5816  0.0139
   61SAPC  H14X 4830   0.582   5.437   9.077  3.0602 -1.1680  1.1328
   61SAPC  H14Y 4831   0.731   5.478   9.000 -0.2472 -1.7957 -0.0159
   61SAPC  C315 4832   0.562   5.449   8.868 -0.7868 -0.5667 -0.1701
   61SAPC  H15X 4833   0.579   5.340   8.879 -1.5075 -0.8190 -1.5170
   61SAPC  H15Y 4834   0.602   5.486   8.771 -0.8014  2.3178  0.8824
   61SAPC  C316 4835   0.411   5.467   8.853  0.4048 -0.3237 -0.4431
   61SAPC  H16X 4836   0.413   5.570   8.812  4.8137  0.7097  1.9474
   61SAPC  H16Y 4837   0.358   5.462   8.951  0.9175 -0.4066 -0.1646
   61SAPC  C317 4838   0.361   5.361   8.761  0.6877 -0.2289  0.9220
   61SAPC  H17X 4839   0.380   5.255   8.787  0.4857 -0.8129 -1.2130
   61SAPC  H17Y 4840   0.423   5.380   8.671 -1.8246  0.3638 -0.7425
   61SAPC  C318 4841   0.216   5.380   8.721  0.1981  0.1188 -0.1390
   61SAPC  H18X 4842   0.193   5.484   8.692  1.3352 -0.0726 -1.8126
   61SAPC  H18Y 4843   0.148   5.355   8.805 -0.2485  2.7776  0.3183
   61SAPC  H18Z 4844   0.187   5.304   8.645 -2.3294  1.2963 -0.4154
   62SAPC     N 4845   6.319   4.175  10.853  0.1547 -0.3071  0.1941
   62SAPC   C12 4846   6.364   4.273  10.746 -0.3097 -0.3054 -0.7156
   62SAPC  H12A 4847   6.443   4.341  10.775 -0.6744  0.7031 -2.0094
   62SAPC  H12B 4848   6.284   4.342  10.726  0.3908  0.6188 -0.3871
   62SAPC   C13 4849   6.428   4.082  10.904 -0.1828 -0.8766 -0.0109
   62SAPC  H13A 4850   6.393   4.009  10.975  1.8669 -2.1531 -0.2796
   62SAPC  H13B 4851   6.481   4.035  10.822  0.6863 -0.4089  0.2658
   62SAPC  H13C 4852   6.492   4.150  10.959 -0.2669 -0.7337 -0.0915
   62SAPC   C14 4853   6.277   4.261  10.970 -0.1403 -0.3109 -0.1689
   62SAPC  H14A 4854   6.216   4.206  11.041  1.6475 -1.0693  0.8044
   62SAPC  H14B 4855   6.358   4.309  11.023 -1.8082  0.8996  1.3577
   62SAPC  H14C 4856   6.216   4.345  10.940  2.0898  0.9590 -1.2407
   62SAPC   C15 4857   6.190   4.105  10.810 -0.4057  0.0461 -0.0058
   62SAPC  H15A 4858   6.205   4.074  10.708 -0.7367  3.6242 -1.2131
   62SAPC  H15B 4859   6.177   4.020  10.875  0.7796 -0.0576  0.1205
   62SAPC  H15C 4860   6.103   4.167  10.800  0.1438  0.7122 -0.7400
   62SAPC   C11 4861   6.406   4.212  10.609  0.1517  0.7108  0.7536
   62SAPC  H11A 4862   6.420   4.295  10.537 -2.1609  2.2760  2.0492
   62SAPC  H11B 4863   6.323   4.154  10.562  2.6472 -1.5200 -1.0388
   62SAPC     P 4864   6.671   4.191  10.633  0.1911  0.0752 -0.0762
   62SAPC   O13 4865   6.689   4.310  10.720  0.1232  0.1304  0.0562
   62SAPC   O14 4866   6.758   4.080  10.660 -0.2280  0.0489  0.0917
   62SAPC   O12 4867   6.524   4.138  10.630 -0.5562  0.7719  0.6313
   62SAPC   O11 4868   6.698   4.249  10.486 -0.2586 -0.3948  0.3580
   62SAPC    C1 4869   6.784   4.179  10.394 -0.4428  0.0170 -0.1162
   62SAPC    HA 4870   6.819   4.079  10.428 -0.9021  0.3988  1.5134
   62SAPC    HB 4871   6.735   4.172  10.295  1.3005  0.6645 -1.0458
   62SAPC    C2 4872   6.918   4.248  10.368 -0.1208  0.5748  0.1117
   62SAPC    HS 4873   6.975   4.257  10.463 -0.7493 -2.5734  0.8394
   62SAPC   O21 4874   6.896   4.379  10.307 -0.1319 -0.6698  0.0308
   62SAPC   C21 4875   6.995   4.466  10.296 -0.4296 -0.2074 -0.2209
   62SAPC   O22 4876   7.097   4.465  10.366 -0.5934 -0.4504  0.1770
   62SAPC   C22 4877   6.951   4.577  10.203  0.4216  0.0447  0.7060
   62SAPC   H2R 4878   6.889   4.542  10.117 -2.2114 -0.0657  2.5703
   62SAPC   H2S 4879   6.876   4.640  10.255  0.9966  0.1241  1.4362
   62SAPC    C3 4880   7.013   4.155  10.277 -0.0097  0.3317  0.3473
   62SAPC    HX 4881   7.049   4.060  10.323  0.1904  0.7011  0.9504
   62SAPC    HY 4882   7.103   4.219  10.269 -0.1000  0.4433  0.2126
   62SAPC   O31 4883   6.953   4.136  10.139  0.4803 -0.1970  0.1677
   62SAPC   C31 4884   6.891   4.021  10.130  0.0911 -0.0787  0.1152
   62SAPC   O32 4885   6.888   3.935  10.213 -0.0910 -0.3931  0.3356
   62SAPC   C32 4886   6.855   3.999   9.983 -0.2104  0.1091 -0.2169
   62SAPC   H2X 4887   6.955   3.990   9.935 -0.5286 -0.0191 -0.8613
   62SAPC   H2Y 4888   6.796   4.086   9.947 -2.0403 -0.8041  0.5400
   62SAPC   C23 4889   7.067   4.662  10.143 -0.4340  0.3611  0.9945
   62SAPC   H3R 4890   7.158   4.604  10.114  0.6553  1.9781  1.0785
   62SAPC   H3S 4891   7.099   4.733  10.223 -1.3831  2.1367 -0.1596
   62SAPC   C24 4892   7.024   4.751  10.017 -0.4431 -0.3863  0.4299
   62SAPC   H4R 4893   6.927   4.796  10.046  0.2341  0.9596  0.6533
   62SAPC   H4S 4894   7.004   4.671   9.942  1.4366 -1.7997  1.3776
   62SAPC   C25 4895   7.137   4.840   9.984 -0.4211 -0.1782 -0.1289
   62SAPC   H5R 4896   7.143   4.921  10.058  1.8829  0.8325 -1.3645
   62SAPC   C26 4897   7.218   4.838   9.869  0.7001 -0.2570 -0.7602
   62SAPC   H6R 4898   7.283   4.924   9.846 -2.1340  2.1555  0.0019
   62SAPC   C27 4899   7.210   4.735   9.760 -0.3557 -0.0167  0.4746
   62SAPC   H7R 4900   7.208   4.632   9.804 -3.6244 -0.1114  0.2108
   62SAPC   H7S 4901   7.305   4.744   9.704 -0.2908 -0.3963  0.5229
   62SAPC   C28 4902   7.097   4.737   9.662  0.9453  0.5571  0.4291
   62SAPC   H8R 4903   7.002   4.768   9.707  0.5761 -1.0017  0.7460
   62SAPC   C29 4904   7.095   4.702   9.534  0.0328  0.7208 -0.3130
   62SAPC   H9R 4905   6.996   4.706   9.485 -0.3934 -0.7449  0.4027
   62SAPC  C210 4906   7.215   4.654   9.451  0.0304 -0.3018  0.3213
   62SAPC  H10R 4907   7.209   4.546   9.424 -1.6308  1.0466 -5.4633
   62SAPC  H10S 4908   7.309   4.664   9.509 -0.7143  1.1116  1.2961
   62SAPC  C211 4909   7.237   4.738   9.331 -0.3804  0.0425  0.0762
   62SAPC  H11R 4910   7.217   4.844   9.353  1.1051 -0.0514  1.9617
   62SAPC  C212 4911   7.249   4.700   9.203  0.3153  0.0815 -0.1833
   62SAPC  H12R 4912   7.261   4.781   9.129 -1.6903  0.2665 -0.3259
   62SAPC  C213 4913   7.261   4.555   9.156  0.3791  0.1587  0.1847
   62SAPC  H13R 4914   7.252   4.471   9.228 -0.4650 -0.0253 -0.1209
   62SAPC  H13S 4915   7.363   4.540   9.115 -0.0800  6.1149 -3.6852
   62SAPC  C214 4916   7.166   4.528   9.039  0.1136  0.4704 -0.1997
   62SAPC  H14R 4917   7.214   4.524   8.940  0.8870  2.4575  0.0895
   62SAPC  C215 4918   7.034   4.502   9.050  0.4999 -0.2215 -0.7021
   62SAPC  H15R 4919   6.976   4.478   8.959  0.7143  0.3136 -0.9823
   62SAPC  C216 4920   6.941   4.489   9.172  0.1204 -0.6407  0.4403
   62SAPC  H16R 4921   6.988   4.449   9.265  0.9290 -0.1360  0.2539
   62SAPC  H16S 4922   6.872   4.408   9.144 -1.1121  0.5978 -0.1552
   62SAPC  C217 4923   6.850   4.603   9.198  0.5533 -0.8918  0.0064
   62SAPC  H17R 4924   6.793   4.618   9.105  0.5817 -0.6165  0.0326
   62SAPC  H17S 4925   6.912   4.694   9.216 -1.8033  0.9024 -0.6545
   62SAPC  C218 4926   6.753   4.590   9.316  0.1098 -0.4047  0.1473
   62SAPC  H18R 4927   6.722   4.694   9.344  2.9392  0.1890  1.2080
   62SAPC  H18S 4928   6.813   4.551   9.401 -1.3704 -0.4291  1.2035
   62SAPC  C219 4929   6.638   4.489   9.292 -0.1457 -0.6927 -0.8434
   62SAPC  H19R 4930   6.681   4.393   9.257  0.7381  0.2614 -2.4899
   62SAPC  H19S 4931   6.572   4.528   9.211  0.6213  0.3154 -1.0020
   62SAPC  C220 4932   6.561   4.474   9.419  0.3114  0.0150 -0.5250
   62SAPC  H20R 4933   6.472   4.409   9.403 -0.2737  0.2762  1.5074
   62SAPC  H20S 4934   6.527   4.573   9.456  0.4513 -0.0459 -0.2340
   62SAPC  H20T 4935   6.624   4.424   9.496 -1.2818  0.0323  0.8220
   62SAPC   C33 4936   6.772   3.870   9.954 -0.4419  0.2758 -0.3064
   62SAPC   H3X 4937   6.800   3.804  10.039 -2.3509  0.5898  0.6111
   62SAPC   H3Y 4938   6.799   3.829   9.855 -1.0374 -1.2317  0.1354
   62SAPC   C34 4939   6.622   3.901   9.956  1.4942  0.1078  0.6069
   62SAPC   H4X 4940   6.612   4.004   9.915 -1.0021 -0.2234  0.3152
   62SAPC   H4Y 4941   6.564   3.912  10.051 -1.2871 -0.3174 -0.9795
   62SAPC   C35 4942   6.556   3.798   9.869  0.6975 -0.0400 -0.0221
   62SAPC   H5X 4943   6.597   3.705   9.913  1.8274  0.4166 -0.0807
   62SAPC   H5Y 4944   6.599   3.814   9.767  0.8123  0.9529  0.1757
   62SAPC   C36 4945   6.402   3.793   9.870 -0.2772  0.6983  0.2181
   62SAPC   H6X 4946   6.363   3.878   9.810  1.1667 -0.5633 -2.5708
   62SAPC   H6Y 4947   6.383   3.790   9.980 -1.5004 -2.0212 -0.0371
   62SAPC   C37 4948   6.338   3.676   9.801 -0.2638  0.0930 -0.5477
   62SAPC   H7X 4949   6.228   3.687   9.814  0.0176  1.7159  0.5683
   62SAPC   H7Y 4950   6.370   3.583   9.852 -1.6633  0.7047  1.5239
   62SAPC   C38 4951   6.370   3.660   9.653  0.3510 -0.2363 -0.9314
   62SAPC   H8X 4952   6.365   3.550   9.638 -0.1577 -0.1344 -1.5220
   62SAPC   H8Y 4953   6.470   3.701   9.628  0.5170  0.5551  0.9756
   62SAPC   C39 4954   6.279   3.734   9.556  0.3792  1.2682  0.4204
   62SAPC   H9X 4955   6.291   3.841   9.582  2.1557  1.3145 -0.5370
   62SAPC   H9Y 4956   6.173   3.708   9.577  0.3542  1.8388  1.0095
   62SAPC  C310 4957   6.322   3.704   9.411  0.2046 -0.1725  0.3161
   62SAPC  H10X 4958   6.344   3.595   9.406  1.8125  0.2101 -1.7818
   62SAPC  H10Y 4959   6.418   3.756   9.393 -0.1142 -0.4206 -2.4000
   62SAPC  C311 4960   6.220   3.752   9.309 -0.2435 -0.8717  0.2856
   62SAPC  H11X 4961   6.211   3.860   9.329 -1.6831 -0.1989 -3.5968
   62SAPC  H11Y 4962   6.120   3.704   9.318 -2.3411  3.4457  1.0026
   62SAPC  C312 4963   6.252   3.729   9.158 -0.7142 -0.9095  0.3745
   62SAPC  H12X 4964   6.262   3.620   9.145  0.6498 -0.9604  1.7003
   62SAPC  H12Y 4965   6.358   3.759   9.152 -1.0079 -0.0474 -0.6595
   62SAPC  C313 4966   6.167   3.786   9.048 -0.1980 -0.2693 -0.7811
   62SAPC  H13X 4967   6.197   3.746   8.949  2.4983 -0.2458  0.0038
   62SAPC  H13Y 4968   6.180   3.897   9.047  1.0261 -0.3856  0.7540
   62SAPC  C314 4969   6.017   3.752   9.079 -0.1247 -0.1597  0.3403
   62SAPC  H14X 4970   5.972   3.811   9.162 -2.8239  0.4963 -1.5018
   62SAPC  H14Y 4971   6.006   3.645   9.106 -1.3749  0.1304  1.0686
   62SAPC  C315 4972   5.937   3.792   8.952  0.0381  0.1701 -0.3097
   62SAPC  H15X 4973   5.974   3.737   8.863  0.7320 -1.3402  0.8929
   62SAPC  H15Y 4974   5.966   3.897   8.934  1.5275 -0.5019 -1.9978
   62SAPC  C316 4975   5.787   3.786   8.990 -0.6450  0.1993 -0.5683
   62SAPC  H16X 4976   5.769   3.826   9.091 -0.2461 -0.5160 -0.2065
   62SAPC  H16Y 4977   5.759   3.678   8.987  0.6875 -0.1563 -0.7490
   62SAPC  C317 4978   5.712   3.864   8.881  0.2155  0.0375 -0.1785
   62SAPC  H17X 4979   5.742   3.970   8.895 -2.4360  0.6159  1.5346
   62SAPC  H17Y 4980   5.602   3.861   8.896  0.1145  1.6236 -0.4745
   62SAPC  C318 4981   5.738   3.826   8.740 -0.1227  0.8368 -0.2686
   62SAPC  H18X 4982   5.670   3.871   8.665  0.1474  1.4547 -0.1425
   62SAPC  H18Y 4983   5.729   3.715   8.733  1.2992  0.7591 -1.1306
   62SAPC  H18Z 4984   5.838   3.853   8.701  1.4156 -1.1475  2.1238
   63SAPC     N 4985   4.027   3.381   6.290  0.5192  0.3992  0.2412
   63SAPC   C12 4986   4.104   3.442   6.411  0.1026  0.0562  0.3281
   63SAPC  H12A 4987   4.147   3.355   6.458  1.2045  0.5189  0.1949
   63SAPC  H12B 4988   4.030   3.472   6.485 -0.6902  1.6548 -1.0697
   63SAPC   C13 4989   3.964   3.497   6.217 -0.6959 -0.5889  0.3789
   63SAPC  H13A 4990   3.928   3.459   6.123  2.1338  0.4918 -1.2154
   63SAPC  H13B 4991   3.880   3.538   6.271  1.1414  0.8900  2.2335
   63SAPC  H13C 4992   4.035   3.578   6.206 -0.4753 -0.8518 -0.1611
   63SAPC   C14 4993   4.127   3.307   6.202  0.6006  0.1132 -0.2615
   63SAPC  H14A 4994   4.223   3.356   6.192 -0.3052  1.8154 -0.9798
   63SAPC  H14B 4995   4.155   3.214   6.248 -0.4151 -0.3504 -0.5713
   63SAPC  H14C 4996   4.080   3.283   6.108  0.3631  0.3255 -0.1997
   63SAPC   C15 4997   3.910   3.291   6.326  0.3689  0.2762 -0.6949
   63SAPC  H15A 4998   3.847   3.350   6.391  3.1474  2.1486  0.4033
   63SAPC  H15B 4999   3.839   3.267   6.248 -0.3996  0.8373 -0.1740
   63SAPC  H15C 5000   3.941   3.198   6.370  0.1348  0.4792 -0.1011
   63SAPC   C11 5001   4.211   3.555   6.394 -0.2504 -0.6227  0.1066
   63SAPC  H11A 5002   4.243   3.596   6.492 -0.2841  3.2726 -1.4539
   63SAPC  H11B 5003   4.155   3.636   6.344  2.5041  1.2112 -0.1235
   63SAPC     P 5004   4.442   3.437   6.360  0.0384 -0.1797 -0.4399
   63SAPC   O13 5005   4.412   3.295   6.344 -0.0947 -0.5320  0.3048
   63SAPC   O14 5006   4.569   3.478   6.297 -0.0599  0.1080  0.0990
   63SAPC   O12 5007   4.322   3.516   6.303  0.2568 -0.1113 -0.2173
   63SAPC   O11 5008   4.455   3.484   6.511 -0.3694  0.0939  0.1318
   63SAPC    C1 5009   4.575   3.453   6.593  0.2210  0.9906  0.8496
   63SAPC    HA 5010   4.564   3.353   6.640  0.4407  1.2220  1.3973
   63SAPC    HB 5011   4.671   3.461   6.536  1.6723  3.1735  3.4863
   63SAPC    C2 5012   4.593   3.556   6.711  0.2688  0.7955  0.4478
   63SAPC    HS 5013   4.684   3.528   6.768 -0.5885  2.8852  2.9234
   63SAPC   O21 5014   4.467   3.544   6.786  0.2396 -0.1170 -0.0743
   63SAPC   C21 5015   4.485   3.551   6.914  0.3884  0.2950  0.9052
   63SAPC   O22 5016   4.590   3.550   6.978 -0.2915 -0.0294 -0.2991
   63SAPC   C22 5017   4.352   3.570   6.983 -0.3315 -0.5721  0.3909
   63SAPC   H2R 5018   4.287   3.642   6.928  0.7741 -1.4016 -2.0868
   63SAPC   H2S 5019   4.293   3.477   6.966 -3.6951  1.9646 -2.7510
   63SAPC    C3 5020   4.609   3.705   6.661  0.4430  0.2791 -0.1572
   63SAPC    HX 5021   4.524   3.724   6.592  0.1966 -0.4235 -0.0540
   63SAPC    HY 5022   4.694   3.718   6.591  0.6390  0.5998  0.1402
   63SAPC   O31 5023   4.597   3.807   6.767 -0.3327 -0.6113 -0.4287
   63SAPC   C31 5024   4.721   3.833   6.819  0.4649 -0.8521  0.3632
   63SAPC   O32 5025   4.820   3.777   6.785  0.3445 -0.0129  0.1045
   63SAPC   C32 5026   4.709   3.926   6.943  0.2149  0.6079  0.3373
   63SAPC   H2X 5027   4.673   3.871   7.033  1.4261 -0.1924  0.3504
   63SAPC   H2Y 5028   4.640   4.008   6.915 -0.3239  0.6476  1.7025
   63SAPC   C23 5029   4.356   3.600   7.131  0.5442 -0.0791 -0.5534
   63SAPC   H3R 5030   4.407   3.530   7.200  1.0156  2.3453  1.6353
   63SAPC   H3S 5031   4.247   3.610   7.150  0.4523  0.2258 -1.2209
   63SAPC   C24 5032   4.414   3.741   7.148  0.1783 -0.1935  0.7743
   63SAPC   H4R 5033   4.368   3.808   7.073  0.5338 -0.3256  0.4352
   63SAPC   H4S 5034   4.523   3.736   7.127  0.3118 -1.4825  1.6975
   63SAPC   C25 5035   4.397   3.789   7.290  0.0801  0.0677  0.3552
   63SAPC   H5R 5036   4.305   3.848   7.302  0.0750  0.1019  0.1511
   63SAPC   C26 5037   4.469   3.774   7.399 -0.4408 -0.3376  0.2846
   63SAPC   H6R 5038   4.433   3.816   7.494  1.5228 -2.4801  2.0434
   63SAPC   C27 5039   4.599   3.698   7.409  0.8700 -0.5053 -0.7390
   63SAPC   H7R 5040   4.609   3.630   7.322  0.8546 -0.7189 -0.5750
   63SAPC   H7S 5041   4.601   3.630   7.497 -1.4090 -1.4463 -1.3757
   63SAPC   C28 5042   4.724   3.776   7.401  0.4727 -0.4277 -0.3178
   63SAPC   H8R 5043   4.797   3.752   7.322 -0.5789  0.3152 -1.5509
   63SAPC   C29 5044   4.764   3.865   7.495  0.1132 -0.5047 -0.7389
   63SAPC   H9R 5045   4.863   3.913   7.491 -0.6629  1.1743 -0.1520
   63SAPC  C210 5046   4.685   3.895   7.623  0.5261 -0.3351 -0.5329
   63SAPC  H10R 5047   4.748   3.859   7.707 -1.5409 -0.7509  0.8616
   63SAPC  H10S 5048   4.588   3.842   7.633 -0.4679  1.8001  1.7030
   63SAPC  C211 5049   4.651   4.045   7.631 -0.5824  0.0925 -0.0593
   63SAPC  H11R 5050   4.576   4.080   7.559  0.8027  2.4776 -0.4031
   63SAPC  C212 5051   4.703   4.138   7.706  0.2316  0.1755 -0.3921
   63SAPC  H12R 5052   4.678   4.243   7.689  0.9399  0.2407 -1.1186
   63SAPC  C213 5053   4.808   4.114   7.809 -0.5887 -0.7502  0.3144
   63SAPC  H13R 5054   4.871   4.205   7.809 -1.5144 -0.0934  1.0560
   63SAPC  H13S 5055   4.874   4.033   7.771  0.5844 -0.3172  1.4046
   63SAPC  C214 5056   4.759   4.076   7.948 -0.4194 -0.8485  0.4324
   63SAPC  H14R 5057   4.710   3.978   7.955 -3.3255  0.4767 -0.6483
   63SAPC  C215 5058   4.785   4.147   8.062 -0.3638 -0.3613  0.0097
   63SAPC  H15R 5059   4.733   4.109   8.151 -1.8037  1.8001  0.1264
   63SAPC  C216 5060   4.866   4.274   8.078  0.5829 -0.5147  0.3148
   63SAPC  H16R 5061   4.800   4.361   8.101  0.5765 -0.3895 -0.1683
   63SAPC  H16S 5062   4.918   4.300   7.984  0.6973 -0.4754  0.3881
   63SAPC  C217 5063   4.976   4.255   8.179 -0.1934 -0.2346 -0.2391
   63SAPC  H17R 5064   5.059   4.329   8.172  0.8776 -1.3118  0.7964
   63SAPC  H17S 5065   5.022   4.156   8.159 -0.7136 -1.0541  2.3434
   63SAPC  C218 5066   4.932   4.268   8.323  0.3065  0.7337 -0.5392
   63SAPC  H18R 5067   5.007   4.233   8.397 -0.6359 -1.6081 -0.6691
   63SAPC  H18S 5068   4.839   4.214   8.351  2.0140 -1.9328  0.2041
   63SAPC  C219 5069   4.900   4.411   8.369  0.2207 -0.4651  0.9690
   63SAPC  H19R 5070   4.809   4.451   8.320 -0.1023 -2.4360 -0.1006
   63SAPC  H19S 5071   4.979   4.477   8.327 -1.3055 -0.6315 -2.2866
   63SAPC  C220 5072   4.880   4.417   8.525  0.3516 -0.1821  0.3114
   63SAPC  H20R 5073   4.784   4.365   8.544  0.4144  0.2783  1.9161
   63SAPC  H20S 5074   4.876   4.522   8.560  1.8850 -0.3155  0.9199
   63SAPC  H20T 5075   4.956   4.363   8.586 -0.4361 -1.0640  0.5256
   63SAPC   C33 5076   4.846   3.990   6.980  0.3564 -0.1118 -0.2785
   63SAPC   H3X 5077   4.879   4.050   6.892 -0.1662  0.4160 -0.1155
   63SAPC   H3Y 5078   4.924   3.920   7.016  0.5088  0.3734  0.3424
   63SAPC   C34 5079   4.823   4.091   7.099 -0.0565  0.4922  0.1859
   63SAPC   H4X 5080   4.773   4.041   7.184  1.5722 -1.8800 -0.2021
   63SAPC   H4Y 5081   4.760   4.174   7.061  0.0533 -0.5393 -2.3295
   63SAPC   C35 5082   4.957   4.154   7.143  0.1734  0.1821 -0.2916
   63SAPC   H5X 5083   5.013   4.202   7.060 -0.2198 -2.2816 -2.0373
   63SAPC   H5Y 5084   5.033   4.087   7.189  0.3195  0.6150  0.1031
   63SAPC   C36 5085   4.929   4.262   7.253 -0.1962  0.4500 -0.5415
   63SAPC   H6X 5086   4.888   4.191   7.328 -1.7360 -1.9780 -3.5714
   63SAPC   H6Y 5087   4.846   4.331   7.229 -1.8258 -0.8095  1.3013
   63SAPC   C37 5088   5.055   4.330   7.309 -1.0097  0.2655 -0.0628
   63SAPC   H7X 5089   5.085   4.424   7.259 -0.4501 -0.1086 -0.4302
   63SAPC   H7Y 5090   5.137   4.256   7.300  0.9041  1.9275  2.7376
   63SAPC   C38 5091   5.038   4.361   7.454 -0.3269 -0.0878  0.2483
   63SAPC   H8X 5092   4.935   4.398   7.469 -0.5319  0.1934 -1.7135
   63SAPC   H8Y 5093   5.120   4.427   7.489  1.9515 -0.7096 -3.5334
   63SAPC   C39 5094   5.054   4.233   7.545  0.4502 -0.0612  0.1462
   63SAPC   H9X 5095   4.965   4.168   7.550 -0.9559  1.6290 -1.7475
   63SAPC   H9Y 5096   5.064   4.267   7.650  1.1945 -0.6134  0.2573
   63SAPC  C310 5097   5.186   4.151   7.511 -0.0823 -0.4188  0.1612
   63SAPC  H10X 5098   5.176   4.101   7.412 -0.4885  0.7280 -0.3897
   63SAPC  H10Y 5099   5.191   4.075   7.592 -2.9350 -0.1759  0.6203
   63SAPC  C311 5100   5.317   4.226   7.530 -0.2107 -0.5111  0.1212
   63SAPC  H11X 5101   5.338   4.263   7.633 -0.1408  1.4150 -0.5554
   63SAPC  H11Y 5102   5.321   4.314   7.462 -0.4351 -2.2495 -2.2163
   63SAPC  C312 5103   5.440   4.132   7.498  0.6634 -1.0544  0.3857
   63SAPC  H12X 5104   5.424   4.042   7.562 -1.5352  0.7428  2.4681
   63SAPC  H12Y 5105   5.528   4.176   7.550 -0.1916  0.0483  0.9230
   63SAPC  C313 5106   5.478   4.094   7.354 -0.1507 -0.6945 -0.0972
   63SAPC  H13X 5107   5.408   4.018   7.313 -1.0546  0.1976 -0.2277
   63SAPC  H13Y 5108   5.575   4.042   7.357  0.1646 -0.0797  0.6003
   63SAPC  C314 5109   5.478   4.209   7.250 -0.6266 -0.1453  0.0900
   63SAPC  H14X 5110   5.544   4.287   7.292 -0.8305  0.1935 -0.2080
   63SAPC  H14Y 5111   5.377   4.253   7.237 -0.5132  0.6671  1.7754
   63SAPC  C315 5112   5.544   4.160   7.113 -0.1562  0.3462  0.1566
   63SAPC  H15X 5113   5.485   4.072   7.078  0.3715 -0.2707  0.8083
   63SAPC  H15Y 5114   5.651   4.133   7.115 -0.1022  0.5625  0.1972
   63SAPC  C316 5115   5.535   4.257   6.996  0.3814 -0.9326 -0.3280
   63SAPC  H16X 5116   5.581   4.354   7.027  0.7738 -0.9523 -0.8458
   63SAPC  H16Y 5117   5.428   4.275   6.974  0.6764  0.0061 -1.0428
   63SAPC  C317 5118   5.605   4.211   6.871  0.2567 -0.0105 -0.1382
   63SAPC  H17X 5119   5.701   4.177   6.914  0.1597 -1.6571 -1.1810
   63SAPC  H17Y 5120   5.625   4.296   6.802 -1.2875 -0.5676 -1.3089
   63SAPC  C318 5121   5.535   4.096   6.795 -0.2963  0.0429 -0.4250
   63SAPC  H18X 5122   5.519   4.007   6.859  0.4960 -0.3685 -0.7935
   63SAPC  H18Y 5123   5.598   4.047   6.718 -2.2183 -1.3000 -1.1825
   63SAPC  H18Z 5124   5.442   4.126   6.741 -0.0080 -0.1153 -1.0118
   64SAPC     N 5125   6.539   4.093   5.887  0.2233  0.6523 -0.6530
   64SAPC   C12 5126   6.443   4.141   5.995  0.6523  0.3661  0.1334
   64SAPC  H12A 5127   6.352   4.085   5.978 -0.2694  1.3454  1.7515
   64SAPC  H12B 5128   6.413   4.243   5.980 -0.4690  0.0800  0.3480
   64SAPC   C13 5129   6.582   3.948   5.914 -0.1207 -0.3790  0.1627
   64SAPC  H13A 5130   6.486   3.902   5.934 -0.3144 -0.2229 -0.4034
   64SAPC  H13B 5131   6.630   3.902   5.830  0.8845 -2.9834  2.0930
   64SAPC  H13C 5132   6.648   3.937   5.999 -1.5878 -3.1766  1.0135
   64SAPC   C14 5133   6.460   4.115   5.760  0.6920  0.1781  0.1450
   64SAPC  H14A 5134   6.435   4.219   5.747 -1.0838 -0.0700  1.4611
   64SAPC  H14B 5135   6.516   4.075   5.676 -1.1461 -1.0326 -0.5256
   64SAPC  H14C 5136   6.364   4.066   5.762 -1.3641  4.1014  0.7243
   64SAPC   C15 5137   6.665   4.177   5.885  0.3615  0.1177 -0.1486
   64SAPC  H15A 5138   6.726   4.139   5.805  2.1596  0.1058  1.2026
   64SAPC  H15B 5139   6.648   4.284   5.884 -3.1680 -0.3519  1.1203
   64SAPC  H15C 5140   6.701   4.156   5.985  0.2286 -0.8108 -0.2913
   64SAPC   C11 5141   6.493   4.136   6.141  0.7308  0.7109 -0.5009
   64SAPC  H11A 5142   6.539   4.036   6.158  0.4237 -0.4129 -5.4917
   64SAPC  H11B 5143   6.411   4.138   6.216  1.4259 -0.5993  0.3343
   64SAPC     P 5144   6.527   4.389   6.197 -0.4745  0.3585 -0.1339
   64SAPC   O13 5145   6.592   4.470   6.090 -0.5119  0.7810 -0.5465
   64SAPC   O14 5146   6.380   4.390   6.199 -0.1632 -0.2382 -0.1961
   64SAPC   O12 5147   6.578   4.243   6.185 -0.1077  0.2776 -0.5598
   64SAPC   O11 5148   6.588   4.437   6.334 -0.6681  0.0835  0.0698
   64SAPC    C1 5149   6.702   4.377   6.396 -0.1432 -0.2316  0.3084
   64SAPC    HA 5150   6.677   4.274   6.430  2.4911 -1.3416 -0.9532
   64SAPC    HB 5151   6.778   4.349   6.320 -0.0120 -3.1387  1.4361
   64SAPC    C2 5152   6.763   4.471   6.501  0.1019 -0.1199  0.0064
   64SAPC    HS 5153   6.845   4.418   6.554  0.1984 -0.8398 -0.8483
   64SAPC   O21 5154   6.661   4.510   6.596  0.6271  0.0282  0.6111
   64SAPC   C21 5155   6.610   4.419   6.674 -0.9394 -0.1705 -0.4263
   64SAPC   O22 5156   6.643   4.303   6.676  0.1955 -0.2239 -0.3245
   64SAPC   C22 5157   6.498   4.482   6.758  0.1917 -0.0387  0.4693
   64SAPC   H2R 5158   6.539   4.576   6.801 -4.5019  0.6576  3.8474
   64SAPC   H2S 5159   6.427   4.508   6.677  0.6569  2.6713  0.9016
   64SAPC    C3 5160   6.835   4.599   6.447 -0.4842 -0.9399 -0.5769
   64SAPC    HX 5161   6.774   4.650   6.369  0.1999  0.0401 -0.4856
   64SAPC    HY 5162   6.925   4.566   6.392 -1.0322 -1.8106 -0.9640
   64SAPC   O31 5163   6.881   4.691   6.547 -0.1689 -0.3897 -0.6543
   64SAPC   C31 5164   6.795   4.783   6.587  0.2451 -0.7352 -0.2262
   64SAPC   O32 5165   6.691   4.813   6.531 -0.4579 -0.3769  0.3954
   64SAPC   C32 5166   6.855   4.861   6.711 -0.6903  0.3457 -0.0665
   64SAPC   H2X 5167   6.792   4.951   6.725 -1.1373  0.3456 -2.0287
   64SAPC   H2Y 5168   6.961   4.889   6.693 -0.4759 -1.2763 -1.4847
   64SAPC   C23 5169   6.432   4.392   6.858 -0.3994 -0.3503  1.1035
   64SAPC   H3R 5170   6.506   4.345   6.926  0.8634  0.9507  0.6531
   64SAPC   H3S 5171   6.377   4.312   6.803 -2.1351  0.1293  2.1065
   64SAPC   C24 5172   6.324   4.463   6.933 -0.1359  0.4615  0.9015
   64SAPC   H4R 5173   6.291   4.383   7.002 -0.8528 -1.3398 -1.4589
   64SAPC   H4S 5174   6.231   4.467   6.873  2.1959  0.6476 -2.8569
   64SAPC   C25 5175   6.366   4.595   6.997  0.2172 -0.4583 -0.1188
   64SAPC   H5R 5176   6.378   4.675   6.922 -0.0295 -0.1859  0.1284
   64SAPC   C26 5177   6.390   4.601   7.127 -0.0898 -0.2613 -0.2654
   64SAPC   H6R 5178   6.423   4.694   7.175 -0.4468 -0.0069 -0.5088
   64SAPC   C27 5179   6.379   4.494   7.228 -0.1879  0.8282 -0.1084
   64SAPC   H7R 5180   6.354   4.397   7.178  0.5493 -0.0020  1.0998
   64SAPC   H7S 5181   6.295   4.535   7.289 -0.3562  0.6877 -0.2445
   64SAPC   C28 5182   6.503   4.494   7.310  0.3446 -0.8401  0.2788
   64SAPC   H8R 5183   6.601   4.475   7.264  0.5696  1.2475 -0.1468
   64SAPC   C29 5184   6.512   4.518   7.442  0.3487  0.0330  0.1735
   64SAPC   H9R 5185   6.614   4.524   7.482  0.1171  0.4876  0.6911
   64SAPC  C210 5186   6.401   4.558   7.544 -0.2119 -0.2100 -0.6228
   64SAPC  H10R 5187   6.320   4.482   7.542 -0.1333 -0.3042 -0.2296
   64SAPC  H10S 5188   6.346   4.651   7.516  1.0363  0.0630 -2.2778
   64SAPC  C211 5189   6.464   4.553   7.682 -0.4099 -0.3997  1.0485
   64SAPC  H11R 5190   6.532   4.469   7.701  0.2366  0.0409  0.6717
   64SAPC  C212 5191   6.429   4.616   7.790 -0.3424 -0.0616  0.5076
   64SAPC  H12R 5192   6.492   4.601   7.880 -1.2250 -1.1597  0.9415
   64SAPC  C213 5193   6.316   4.712   7.797 -0.2035  0.3300 -0.7054
   64SAPC  H13R 5194   6.247   4.707   7.710  0.7262  1.9426 -1.5667
   64SAPC  H13S 5195   6.372   4.808   7.787  1.4739 -0.5419  0.0967
   64SAPC  C214 5196   6.242   4.694   7.925  0.4240  0.3028  0.2042
   64SAPC  H14R 5197   6.153   4.629   7.923 -0.6350  1.7591 -0.4941
   64SAPC  C215 5198   6.266   4.756   8.039 -0.0742  0.0411  0.1152
   64SAPC  H15R 5199   6.191   4.738   8.117  1.0133  1.3791  1.4997
   64SAPC  C216 5200   6.386   4.838   8.064 -0.1089  0.2644 -0.0031
   64SAPC  H16R 5201   6.362   4.945   8.075 -2.5212 -0.4446  1.8788
   64SAPC  H16S 5202   6.462   4.827   7.983  0.2498  1.1596  0.2182
   64SAPC  C217 5203   6.456   4.789   8.196  0.4063 -0.0520  0.7058
   64SAPC  H17R 5204   6.459   4.679   8.208 -0.4071  0.1224  2.6525
   64SAPC  H17S 5205   6.401   4.827   8.285 -0.3784 -0.0884  0.2387
   64SAPC  C218 5206   6.596   4.850   8.201  0.2370 -0.7940 -0.4920
   64SAPC  H18R 5207   6.587   4.961   8.200 -1.0768 -0.8926 -0.1050
   64SAPC  H18S 5208   6.662   4.814   8.119  4.8434  1.0126  2.1765
   64SAPC  C219 5209   6.676   4.810   8.326  0.1736  0.0660 -0.1616
   64SAPC  H19R 5210   6.609   4.805   8.415 -0.7109  1.7768 -0.6971
   64SAPC  H19S 5211   6.738   4.901   8.345  1.0675  0.0048 -2.5871
   64SAPC  C220 5212   6.771   4.693   8.309 -0.8323  1.1937  0.0570
   64SAPC  H20R 5213   6.841   4.681   8.394 -1.6111  1.7614  0.7880
   64SAPC  H20S 5214   6.836   4.695   8.219 -0.1180  0.6617  0.5485
   64SAPC  H20T 5215   6.705   4.606   8.288  0.8782 -0.0555 -0.2772
   64SAPC   C33 5216   6.861   4.767   6.837 -0.0062 -0.9541 -0.5538
   64SAPC   H3X 5217   6.940   4.689   6.830  1.8138  0.5787  1.8838
   64SAPC   H3Y 5218   6.762   4.722   6.863 -1.6505  2.1338 -1.2456
   64SAPC   C34 5219   6.907   4.845   6.956 -0.9856  0.2470 -0.1198
   64SAPC   H4X 5220   6.845   4.936   6.969 -0.6506  0.6282 -1.1039
   64SAPC   H4Y 5221   7.010   4.881   6.933 -0.6241 -1.3262 -1.0073
   64SAPC   C35 5222   6.899   4.769   7.087  0.0025  0.3256  0.2045
   64SAPC   H5X 5223   6.982   4.696   7.080 -0.6299 -0.2953 -0.8461
   64SAPC   H5Y 5224   6.804   4.712   7.098 -0.7459  1.3286 -0.8987
   64SAPC   C36 5225   6.935   4.844   7.214 -0.1606  1.2422  0.1824
   64SAPC   H6X 5226   6.876   4.938   7.224 -1.1447  0.6842 -0.2461
   64SAPC   H6Y 5227   7.042   4.869   7.225  0.3168 -0.4966 -0.2783
   64SAPC   C37 5228   6.903   4.752   7.336  0.1859 -0.0939  0.0759
   64SAPC   H7X 5229   6.958   4.655   7.333 -0.7553 -0.6520  0.2900
   64SAPC   H7Y 5230   6.793   4.731   7.343  0.2062 -0.4372 -0.5479
   64SAPC   C38 5231   6.935   4.834   7.458  0.0885 -0.5374  0.0171
   64SAPC   H8X 5232   6.891   4.936   7.453 -1.5232 -1.1270  1.5804
   64SAPC   H8Y 5233   7.043   4.856   7.472 -0.1257  0.0705  0.7263
   64SAPC   C39 5234   6.880   4.766   7.580  0.3382 -0.6833 -0.6567
   64SAPC   H9X 5235   6.931   4.668   7.587 -2.0369 -1.8543  1.0427
   64SAPC   H9Y 5236   6.769   4.757   7.587  0.1827  1.4834 -0.0328
   64SAPC  C310 5237   6.919   4.830   7.710 -0.8209  0.0547 -0.1558
   64SAPC  H10X 5238   7.027   4.829   7.739 -0.6116 -1.9752 -0.9116
   64SAPC  H10Y 5239   6.891   4.768   7.798 -2.4357 -0.3240 -0.9415
   64SAPC  C311 5240   6.862   4.975   7.736 -0.2801  0.7235  0.3317
   64SAPC  H11X 5241   6.752   4.963   7.737 -0.2544 -0.5225 -3.2300
   64SAPC  H11Y 5242   6.870   5.029   7.639 -3.4402  0.8005  0.0715
   64SAPC  C312 5243   6.928   5.065   7.841  0.1004  0.4012 -0.0231
   64SAPC  H12X 5244   6.886   5.167   7.828 -2.3970 -0.5686  0.1979
   64SAPC  H12Y 5245   7.038   5.068   7.828  0.2637 -2.1684  0.5150
   64SAPC  C313 5246   6.902   5.016   7.986  0.1106  0.1014 -0.3182
   64SAPC  H13X 5247   6.917   4.906   7.981  1.0061  0.2895 -2.4058
   64SAPC  H13Y 5248   6.793   5.019   8.006 -0.1498 -3.5288 -0.9158
   64SAPC  C314 5249   6.985   5.084   8.088  0.0233 -0.1175 -0.0692
   64SAPC  H14X 5250   6.996   5.194   8.077 -1.2284  0.0727  0.4912
   64SAPC  H14Y 5251   7.089   5.046   8.075 -0.4236 -1.2442 -0.3318
   64SAPC  C315 5252   6.948   5.056   8.239  0.0364  0.3340 -0.6221
   64SAPC  H15X 5253   6.918   4.949   8.236  0.7438  0.1073  0.2451
   64SAPC  H15Y 5254   6.859   5.122   8.252  1.9865  2.8249  0.5063
   64SAPC  C316 5255   7.060   5.087   8.334  0.0690  0.0773  0.6572
   64SAPC  H16X 5256   7.056   5.197   8.353 -1.2607  0.7839 -3.2835
   64SAPC  H16Y 5257   7.160   5.074   8.287  0.1634  1.3871  0.4643
   64SAPC  C317 5258   7.042   5.001   8.469  0.8251 -0.2359  0.3273
   64SAPC  H17X 5259   7.020   4.895   8.444 -0.3232 -0.0178  0.3823
   64SAPC  H17Y 5260   6.949   5.029   8.523 -0.8530 -0.5775 -2.3052
   64SAPC  C318 5261   7.160   5.017   8.556 -0.1267 -0.8194 -0.1612
   64SAPC  H18X 5262   7.133   4.968   8.652 -2.0548 -3.0368 -1.7900
   64SAPC  H18Y 5263   7.195   5.121   8.572  1.9253 -1.5350  0.1378
   64SAPC  H18Z 5264   7.241   4.955   8.513  0.9977 -0.4758  1.4410
   65SAPC     N 5265   5.806   6.205   6.067 -0.0051  0.1296  0.5659
   65SAPC   C12 5266   5.796   6.086   6.158 -0.1015  0.4770  0.7536
   65SAPC  H12A 5267   5.749   6.011   6.096 -2.0629  2.4695 -0.2053
   65SAPC  H12B 5268   5.722   6.109   6.234 -3.5069 -0.9785 -1.9740
   65SAPC   C13 5269   5.864   6.171   5.933  0.5249 -0.3659 -0.0312
   65SAPC  H13A 5270   5.970   6.152   5.947  0.2928 -1.1333  0.7611
   65SAPC  H13B 5271   5.823   6.080   5.894 -1.8125  1.3333 -1.7092
   65SAPC  H13C 5272   5.844   6.253   5.866  2.6043  1.6417  1.6768
   65SAPC   C14 5273   5.673   6.255   6.037  0.2962  0.6115 -0.2741
   65SAPC  H14A 5274   5.609   6.264   6.124  0.6326 -0.1856  0.0511
   65SAPC  H14B 5275   5.675   6.354   5.992 -0.4999 -0.4659 -2.7821
   65SAPC  H14C 5276   5.616   6.187   5.976  0.4559 -1.5837  1.9701
   65SAPC   C15 5277   5.884   6.312   6.137 -0.6087 -0.3207  0.0323
   65SAPC  H15A 5278   5.901   6.392   6.066 -0.3856  0.7979  1.3205
   65SAPC  H15B 5279   5.832   6.347   6.225 -1.0738 -0.2094 -0.2853
   65SAPC  H15C 5280   5.979   6.272   6.171 -0.2875  2.3635  2.5643
   65SAPC   C11 5281   5.923   6.024   6.225  0.2804 -0.1484  0.0180
   65SAPC  H11A 5282   5.874   5.958   6.300  1.7319 -0.0518  1.0794
   65SAPC  H11B 5283   5.981   6.092   6.292  1.9759 -3.1105  1.6613
   65SAPC     P 5284   5.953   5.810   6.089 -0.3490  0.4431  0.0616
   65SAPC   O13 5285   5.819   5.834   6.030 -0.2645 -0.0234 -0.1160
   65SAPC   O14 5286   6.047   5.749   5.993  0.0842 -0.5596 -0.5457
   65SAPC   O12 5287   6.007   5.955   6.137  0.3355 -0.5838  0.0262
   65SAPC   O11 5288   5.930   5.722   6.221  0.2737 -0.2997 -0.3052
   65SAPC    C1 5289   6.022   5.642   6.290 -0.0010 -0.1945  1.1702
   65SAPC    HA 5290   6.005   5.534   6.271  0.0087  0.3053 -1.8326
   65SAPC    HB 5291   6.123   5.657   6.245 -0.2899  0.2080  0.6543
   65SAPC    C2 5292   6.025   5.687   6.440 -0.4870  0.6423  1.0997
   65SAPC    HS 5293   6.057   5.793   6.445  1.5364 -0.0284  3.8155
   65SAPC   O21 5294   6.119   5.597   6.502  0.2796  0.1918  0.0809
   65SAPC   C21 5295   6.241   5.627   6.484 -0.4096  0.1340  0.3391
   65SAPC   O22 5296   6.283   5.736   6.439 -0.5894  0.3866 -0.4920
   65SAPC   C22 5297   6.327   5.521   6.557 -0.3710 -0.2100  0.0042
   65SAPC   H2R 5298   6.313   5.421   6.510 -0.3019 -0.5379  0.6733
   65SAPC   H2S 5299   6.433   5.556   6.556  0.1742 -1.8207 -0.7485
   65SAPC    C3 5300   5.886   5.671   6.518 -0.0794  0.0981  0.2213
   65SAPC    HX 5301   5.849   5.568   6.496  1.3956 -0.2058 -0.9083
   65SAPC    HY 5302   5.809   5.744   6.483 -1.0618 -0.9540  0.1683
   65SAPC   O31 5303   5.901   5.681   6.664 -0.1640 -0.4155 -0.2479
   65SAPC   C31 5304   5.918   5.803   6.710 -0.2815  0.2110  0.0133
   65SAPC   O32 5305   5.894   5.902   6.644 -0.0867 -0.3303 -0.6559
   65SAPC   C32 5306   5.947   5.797   6.854  0.5604  0.1113 -0.1694
   65SAPC   H2X 5307   6.052   5.766   6.870  0.4146 -0.4092 -0.2112
   65SAPC   H2Y 5308   5.875   5.724   6.897  2.7109 -1.4196  0.9198
   65SAPC   C23 5309   6.286   5.500   6.700  0.0734  0.0639  0.5038
   65SAPC   H3R 5310   6.350   5.420   6.743 -0.8785 -0.8877  0.1506
   65SAPC   H3S 5311   6.185   5.457   6.718  0.0297  0.6180  1.6565
   65SAPC   C24 5312   6.297   5.618   6.797  0.3549  0.3326  0.2273
   65SAPC   H4R 5313   6.261   5.588   6.898  0.4460  2.7204  0.9916
   65SAPC   H4S 5314   6.228   5.690   6.749 -1.9482  0.7255  3.9577
   65SAPC   C25 5315   6.434   5.675   6.808  0.6177 -0.4486 -0.7307
   65SAPC   H5R 5316   6.450   5.756   6.735 -2.0833 -0.9017 -1.9252
   65SAPC   C26 5317   6.531   5.628   6.888 -0.2473 -0.5230 -0.2991
   65SAPC   H6R 5318   6.619   5.694   6.897 -0.0511 -1.0476  1.7115
   65SAPC   C27 5319   6.512   5.512   6.984 -0.5742  0.2859 -0.7263
   65SAPC   H7R 5320   6.508   5.432   6.907  0.0529  0.3614 -0.8465
   65SAPC   H7S 5321   6.415   5.514   7.037 -0.0810  2.4760  0.1668
   65SAPC   C28 5322   6.630   5.484   7.077  0.1650 -0.1273 -0.3304
   65SAPC   H8R 5323   6.646   5.378   7.100 -1.2551 -0.2117  0.3188
   65SAPC   C29 5324   6.715   5.568   7.144 -0.4859  0.1152 -0.2638
   65SAPC   H9R 5325   6.793   5.524   7.206  0.6005  3.0502  0.5229
   65SAPC  C210 5326   6.729   5.716   7.136 -0.3994 -0.2867  0.3655
   65SAPC  H10R 5327   6.763   5.743   7.034  0.7927 -0.5074  0.6891
   65SAPC  H10S 5328   6.818   5.735   7.201 -0.8025 -2.7907  1.7377
   65SAPC  C211 5329   6.612   5.799   7.192 -0.1890  0.2883 -0.3323
   65SAPC  H11R 5330   6.516   5.791   7.139 -0.1009 -1.6748 -0.2393
   65SAPC  C212 5331   6.604   5.846   7.318  0.3368  0.5911 -0.4744
   65SAPC  H12R 5332   6.518   5.911   7.339 -0.0525  0.4248 -1.5356
   65SAPC  C213 5333   6.713   5.843   7.424  0.3134  0.4915  0.3034
   65SAPC  H13R 5334   6.749   5.738   7.433 -2.7209 -0.4982  1.4738
   65SAPC  H13S 5335   6.666   5.864   7.522  1.3764  0.9812  0.7081
   65SAPC  C214 5336   6.823   5.940   7.403 -0.0566 -0.1144 -0.1768
   65SAPC  H14R 5337   6.867   5.940   7.302 -0.4879  0.0174 -0.3653
   65SAPC  C215 5338   6.867   6.030   7.490  0.1255 -0.1053  0.0446
   65SAPC  H15R 5339   6.940   6.103   7.453 -0.4387  0.2168 -0.4404
   65SAPC  C216 5340   6.820   6.059   7.636 -0.3793 -0.0392 -0.0934
   65SAPC  H16R 5341   6.757   5.984   7.688  1.2788 -2.5585 -1.5518
   65SAPC  H16S 5342   6.757   6.150   7.642  1.1950  0.9392  1.9134
   65SAPC  C217 5343   6.948   6.097   7.722  0.1717  0.2453 -0.2778
   65SAPC  H17R 5344   6.997   6.185   7.675 -0.2334  0.2128 -0.7653
   65SAPC  H17S 5345   7.023   6.016   7.737 -1.3069 -1.2160 -0.6706
   65SAPC  C218 5346   6.919   6.149   7.862 -0.4477 -0.1336  0.1655
   65SAPC  H18R 5347   7.009   6.134   7.925  0.5186  2.2680 -0.5638
   65SAPC  H18S 5348   6.838   6.079   7.892  0.4783 -1.4329 -0.3241
   65SAPC  C219 5349   6.891   6.292   7.862 -0.3498  0.1923  0.5644
   65SAPC  H19R 5350   6.795   6.314   7.811 -0.9965 -0.1461  1.6204
   65SAPC  H19S 5351   6.974   6.357   7.828 -1.2071  0.0135 -1.9574
   65SAPC  C220 5352   6.853   6.326   8.007 -0.2503 -0.3260  0.1224
   65SAPC  H20R 5353   6.815   6.431   8.001  1.3125  0.2071 -0.5208
   65SAPC  H20S 5354   6.938   6.322   8.078 -1.4594 -0.3699  1.6022
   65SAPC  H20T 5355   6.759   6.278   8.043 -0.8793  0.7190 -0.0878
   65SAPC   C33 5356   5.908   5.932   6.924 -0.0194 -0.6501  0.7142
   65SAPC   H3X 5357   5.797   5.938   6.932  0.1964  2.4289  1.9238
   65SAPC   H3Y 5358   5.937   6.025   6.870 -2.2031 -0.9377 -1.0500
   65SAPC   C34 5359   5.977   5.942   7.061  0.0258 -0.4095  0.8583
   65SAPC   H4X 5360   5.937   5.863   7.128 -0.6503 -0.5415  0.3036
   65SAPC   H4Y 5361   5.946   6.033   7.117  1.5216  1.3159 -1.0556
   65SAPC   C35 5362   6.129   5.947   7.062  1.0437  0.1527 -0.1784
   65SAPC   H5X 5363   6.160   6.041   7.012 -0.6685  0.8899  0.1288
   65SAPC   H5Y 5364   6.167   5.872   6.989 -1.3982 -0.5667 -0.7557
   65SAPC   C36 5365   6.210   5.929   7.196  0.3389  0.1146  0.0509
   65SAPC   H6X 5366   6.316   5.946   7.170 -0.5916  0.7005 -3.6693
   65SAPC   H6Y 5367   6.182   5.830   7.238  1.3431  0.0514  0.5702
   65SAPC   C37 5368   6.161   6.026   7.308  0.4573  0.3592  0.1442
   65SAPC   H7X 5369   6.051   6.023   7.324  0.3791  0.1786 -0.4187
   65SAPC   H7Y 5370   6.170   6.134   7.284  1.9650  0.8547  2.6931
   65SAPC   C38 5371   6.242   5.996   7.440  0.9718 -0.2771  0.1053
   65SAPC   H8X 5372   6.348   6.027   7.430  0.3884  1.2343 -1.7334
   65SAPC   H8Y 5373   6.250   5.885   7.437  3.0261 -0.1258 -0.8903
   65SAPC   C39 5374   6.185   6.051   7.574 -0.0553  0.3838 -0.3776
   65SAPC   H9X 5375   6.170   6.160   7.558  1.0021  0.8693  1.7303
   65SAPC   H9Y 5376   6.265   6.030   7.648  0.2339 -0.1189 -0.8279
   65SAPC  C310 5377   6.059   5.981   7.629 -0.2662 -0.3475 -0.5886
   65SAPC  H10X 5378   6.070   5.870   7.624 -4.1266 -0.8574  0.9554
   65SAPC  H10Y 5379   5.969   6.010   7.572  1.1843  1.9060 -1.8028
   65SAPC  C311 5380   6.021   6.033   7.777 -1.2226 -0.2560 -0.4355
   65SAPC  H11X 5381   5.984   6.138   7.772 -1.1029 -0.1512  0.6586
   65SAPC  H11Y 5382   6.112   6.026   7.840 -0.5837  1.3359 -1.1359
   65SAPC  C312 5383   5.919   5.945   7.834  0.5414 -0.0685 -0.3535
   65SAPC  H12X 5384   5.957   5.840   7.831  0.3319 -0.1623  0.3663
   65SAPC  H12Y 5385   5.834   5.955   7.763 -0.5927  0.0494  1.0183
   65SAPC  C313 5386   5.872   5.979   7.972 -0.6129  0.1563  0.7687
   65SAPC  H13X 5387   5.761   5.970   7.965 -0.4696  0.2581 -2.4237
   65SAPC  H13Y 5388   5.885   6.087   7.995 -5.8829  0.7424  1.5149
   65SAPC  C314 5389   5.921   5.880   8.082 -0.4376  0.0248 -0.5419
   65SAPC  H14X 5390   5.896   5.926   8.180  1.4842 -1.5551  0.7189
   65SAPC  H14Y 5391   6.032   5.883   8.083 -0.4762  1.7053  1.0296
   65SAPC  C315 5392   5.864   5.747   8.067  0.4463  0.1607  0.4610
   65SAPC  H15X 5393   5.942   5.687   8.014  0.2864  0.1990  0.1825
   65SAPC  H15Y 5394   5.772   5.745   8.005  2.1707 -0.0548 -2.1758
   65SAPC  C316 5395   5.833   5.672   8.206 -0.4154  0.0358 -0.0749
   65SAPC  H16X 5396   5.737   5.707   8.249  0.6597  1.0330  1.5633
   65SAPC  H16Y 5397   5.908   5.701   8.282  1.0417 -1.9147 -0.7289
   65SAPC  C317 5398   5.837   5.520   8.175 -0.5142 -0.0564 -0.0262
   65SAPC  H17X 5399   5.941   5.488   8.153 -0.0590  1.1583  0.3253
   65SAPC  H17Y 5400   5.782   5.495   8.081  2.2655  0.4505 -1.8464
   65SAPC  C318 5401   5.766   5.437   8.289 -0.4903 -0.3988  0.1105
   65SAPC  H18X 5402   5.665   5.482   8.302 -1.3150 -2.1843 -0.0029
   65SAPC  H18Y 5403   5.824   5.450   8.383 -1.3446 -1.6777  0.8529
   65SAPC  H18Z 5404   5.767   5.328   8.269  0.5286 -1.2280  4.1743
   66SAPC     N 5405   4.280   4.920   5.390  0.2271  0.0075  0.0387
   66SAPC   C12 5406   4.240   4.909   5.533 -0.7528 -0.0598  0.0301
   66SAPC  H12A 5407   4.171   4.827   5.544  0.1649 -0.8789 -0.2055
   66SAPC  H12B 5408   4.198   5.004   5.563  1.9764  0.7302  1.5518
   66SAPC   C13 5409   4.360   5.045   5.387 -0.6839 -0.1743 -0.0973
   66SAPC  H13A 5410   4.302   5.128   5.426  0.1135  0.3695 -0.0504
   66SAPC  H13B 5411   4.445   5.035   5.453 -0.1829  3.5366 -0.0669
   66SAPC  H13C 5412   4.394   5.076   5.289 -0.5757  0.0801  0.0182
   66SAPC   C14 5413   4.351   4.803   5.337  1.1438  0.3911  0.1033
   66SAPC  H14A 5414   4.434   4.772   5.398 -0.3613  0.7417  2.3664
   66SAPC  H14B 5415   4.285   4.717   5.329  0.1124  1.2876 -1.4453
   66SAPC  H14C 5416   4.384   4.823   5.236 -0.8737  0.7532 -0.5053
   66SAPC   C15 5417   4.162   4.939   5.296  0.0174 -0.1002  0.2149
   66SAPC  H15A 5418   4.198   4.944   5.194 -1.3986  0.2948 -0.2666
   66SAPC  H15B 5419   4.103   4.849   5.297  1.8124 -1.3251 -0.8597
   66SAPC  H15C 5420   4.102   5.025   5.321 -1.0332 -0.2850 -1.5544
   66SAPC   C11 5421   4.352   4.882   5.634 -0.0159 -0.2882  0.3964
   66SAPC  H11A 5422   4.440   4.949   5.622 -0.7358  1.5025  4.2428
   66SAPC  H11B 5423   4.378   4.780   5.599 -0.6672  0.7846 -3.5298
   66SAPC     P 5424   4.295   5.002   5.849  0.3999  0.1554  0.0295
   66SAPC   O13 5425   4.432   5.053   5.878 -0.3578  0.2046 -1.3526
   66SAPC   O14 5426   4.207   5.105   5.789 -0.0512 -0.5795  0.6881
   66SAPC   O12 5427   4.295   4.875   5.759  0.1478 -0.2758  0.2204
   66SAPC   O11 5428   4.234   4.940   5.985 -0.6398  0.6652 -0.1549
   66SAPC    C1 5429   4.297   4.825   6.041  0.1151  0.2765  0.0640
   66SAPC    HA 5430   4.239   4.737   6.006 -0.5096 -0.0277  1.8249
   66SAPC    HB 5431   4.407   4.825   6.029  0.1610  1.9085  0.4081
   66SAPC    C2 5432   4.278   4.849   6.196 -0.2549 -0.0229  0.4571
   66SAPC    HS 5433   4.334   4.776   6.258  0.6886  0.1994 -0.1195
   66SAPC   O21 5434   4.138   4.862   6.227 -0.6025 -0.0502 -1.0167
   66SAPC   C21 5435   4.108   4.794   6.336 -0.8287  0.2066  0.5512
   66SAPC   O22 5436   4.189   4.735   6.410  0.1908  0.6375  0.2110
   66SAPC   C22 5437   3.951   4.798   6.353 -0.5377 -0.0816 -0.4717
   66SAPC   H2R 5438   3.909   4.880   6.292  2.1407  1.8019  0.1465
   66SAPC   H2S 5439   3.909   4.697   6.334 -1.0158  0.1951 -0.8982
   66SAPC    C3 5440   4.363   4.967   6.239  0.1240  0.1431  0.3980
   66SAPC    HX 5441   4.324   5.053   6.180  0.6503 -0.2439 -0.5288
   66SAPC    HY 5442   4.468   4.960   6.202 -0.2831 -0.5725 -0.6471
   66SAPC   O31 5443   4.354   4.992   6.376  0.1607  0.3736 -0.0158
   66SAPC   C31 5444   4.453   4.936   6.452 -1.2297 -0.4064 -0.0839
   66SAPC   O32 5445   4.548   4.873   6.410  0.0390  0.7180 -0.5187
   66SAPC   C32 5446   4.407   4.947   6.596  0.2556  0.1403 -0.3696
   66SAPC   H2X 5447   4.303   4.909   6.601 -0.2723  1.7939  1.9907
   66SAPC   H2Y 5448   4.394   5.053   6.626  0.3522 -0.0044  0.1751
   66SAPC   C23 5449   3.913   4.831   6.500  0.8665  0.7720  0.2032
   66SAPC   H3R 5450   3.935   4.738   6.556 -0.1679 -1.5013 -2.9990
   66SAPC   H3S 5451   3.803   4.838   6.497  0.7248 -1.2504  0.0822
   66SAPC   C24 5452   3.964   4.957   6.573  0.3310  1.2839  0.0721
   66SAPC   H4R 5453   4.075   4.957   6.562  0.1754  0.2411 -1.6448
   66SAPC   H4S 5454   3.933   4.930   6.676  2.6211  0.2093  0.4998
   66SAPC   C25 5455   3.889   5.080   6.541  0.7037 -0.4935  0.3320
   66SAPC   H5R 5456   3.856   5.074   6.436  0.7258 -1.2154  0.3652
   66SAPC   C26 5457   3.854   5.177   6.636  0.1071 -0.1163 -0.0819
   66SAPC   H6R 5458   3.787   5.252   6.592 -1.4820 -2.3113 -1.5299
   66SAPC   C27 5459   3.885   5.184   6.782 -0.3431 -0.0489 -0.4740
   66SAPC   H7R 5460   3.935   5.091   6.818  0.3625  0.5186  0.0341
   66SAPC   H7S 5461   3.793   5.192   6.843 -0.0430 -1.4359  0.1954
   66SAPC   C28 5462   3.974   5.306   6.800  0.8259 -0.0768 -0.0037
   66SAPC   H8R 5463   4.021   5.331   6.703  1.3277 -3.1195 -0.6135
   66SAPC   C29 5464   4.007   5.365   6.912  0.0829 -0.5975 -0.3456
   66SAPC   H9R 5465   4.064   5.459   6.906 -0.1668 -0.5028 -1.3431
   66SAPC  C210 5466   3.959   5.318   7.052 -0.3724 -0.1764  0.6539
   66SAPC  H10R 5467   3.944   5.208   7.052  0.8046 -0.3480 -0.4504
   66SAPC  H10S 5468   3.859   5.359   7.074 -1.5412 -1.3687 -2.2430
   66SAPC  C211 5469   4.071   5.354   7.144 -0.5204 -0.1453  0.5560
   66SAPC  H11R 5470   4.169   5.375   7.098  0.0091 -2.4394  0.5321
   66SAPC  C212 5471   4.052   5.345   7.276 -0.5324  0.1199 -0.5115
   66SAPC  H12R 5472   4.137   5.361   7.344 -0.5480 -2.4708  0.1760
   66SAPC  C213 5473   3.923   5.290   7.344  0.2503  0.0713  0.5870
   66SAPC  H13R 5474   3.842   5.252   7.277  0.7799 -1.8410  0.9915
   66SAPC  H13S 5475   3.869   5.384   7.369  1.3347  1.0968 -0.8516
   66SAPC  C214 5476   3.950   5.192   7.454 -0.2638  0.6529 -0.5509
   66SAPC  H14R 5477   3.969   5.089   7.420 -0.1866  1.3387 -2.6393
   66SAPC  C215 5478   3.926   5.204   7.586 -0.4889  0.0238  0.6004
   66SAPC  H15R 5479   3.924   5.101   7.627 -1.2953 -0.8489 -1.5563
   66SAPC  C216 5480   3.865   5.316   7.662 -0.4788 -0.2950 -0.3032
   66SAPC  H16R 5481   3.808   5.392   7.604  1.1215  0.8466 -0.4169
   66SAPC  H16S 5482   3.947   5.368   7.716 -2.0218  0.5501  1.3068
   66SAPC  C217 5483   3.765   5.276   7.779  0.1762 -0.8543  1.0870
   66SAPC  H17R 5484   3.678   5.221   7.738 -0.7770 -0.0939  2.0783
   66SAPC  H17S 5485   3.726   5.370   7.824  0.4242 -0.6459  0.8673
   66SAPC  C218 5486   3.841   5.208   7.890 -0.3931  0.8853 -0.2578
   66SAPC  H18R 5487   3.934   5.265   7.912  1.2169 -1.0046 -1.9329
   66SAPC  H18S 5488   3.882   5.108   7.863  2.1844  0.9479  2.9872
   66SAPC  C219 5489   3.760   5.172   8.015  0.5065  0.4270  0.7107
   66SAPC  H19R 5490   3.837   5.116   8.073  0.8409  0.2989  0.1497
   66SAPC  H19S 5491   3.675   5.103   7.998  0.6902  0.4054 -0.1181
   66SAPC  C220 5492   3.709   5.291   8.097  0.2481 -0.4783 -0.1568
   66SAPC  H20R 5493   3.632   5.347   8.040  0.3725 -0.5004 -0.3478
   66SAPC  H20S 5494   3.796   5.354   8.126 -0.6538  0.1741  1.1764
   66SAPC  H20T 5495   3.670   5.252   8.193  3.3594 -1.8154  0.6225
   66SAPC   C33 5496   4.502   4.878   6.690  0.0632  0.1269 -0.3852
   66SAPC   H3X 5497   4.607   4.912   6.676  0.5280 -1.9091 -2.0011
   66SAPC   H3Y 5498   4.501   4.768   6.674  0.3008 -0.0209  0.5259
   66SAPC   C34 5499   4.456   4.896   6.837  0.0997 -0.4487  0.4955
   66SAPC   H4X 5500   4.508   4.830   6.910  1.0140 -0.2470  0.0222
   66SAPC   H4Y 5501   4.351   4.860   6.834  0.1576 -0.7061  1.2623
   66SAPC   C35 5502   4.438   5.033   6.897 -0.9931  0.1720 -0.2956
   66SAPC   H5X 5503   4.356   5.096   6.856 -1.3740 -1.2773 -1.7965
   66SAPC   H5Y 5504   4.528   5.097   6.885  0.3402 -1.2399  1.8530
   66SAPC   C36 5505   4.411   5.019   7.049  0.1556  0.0143  0.5930
   66SAPC   H6X 5506   4.386   5.117   7.096 -1.2995  1.2988 -2.7101
   66SAPC   H6Y 5507   4.503   4.974   7.092  0.2231 -2.0664 -1.6019
   66SAPC   C37 5508   4.302   4.920   7.084 -0.4828  0.0122  0.2606
   66SAPC   H7X 5509   4.336   4.818   7.058 -4.1957 -1.2255 -0.1062
   66SAPC   H7Y 5510   4.213   4.930   7.019  0.0496 -2.2536 -0.8858
   66SAPC   C38 5511   4.255   4.918   7.229  0.6997  0.2082 -1.4710
   66SAPC   H8X 5512   4.179   4.837   7.232  0.2934  0.6299 -0.0146
   66SAPC   H8Y 5513   4.196   5.010   7.244  0.8313  0.1783 -0.7639
   66SAPC   C39 5514   4.366   4.897   7.336  0.8487  0.4050  0.6065
   66SAPC   H9X 5515   4.463   4.943   7.306  1.9724 -2.6918 -0.7008
   66SAPC   H9Y 5516   4.381   4.787   7.334  1.6205  0.5213 -0.9269
   66SAPC  C310 5517   4.322   4.949   7.470 -0.2517 -0.0602  0.4074
   66SAPC  H10X 5518   4.279   5.046   7.437 -0.0974 -0.1783 -0.1482
   66SAPC  H10Y 5519   4.408   4.971   7.537  0.2618 -1.7787  0.3362
   66SAPC  C311 5520   4.221   4.873   7.550 -0.2836  0.0562  0.0232
   66SAPC  H11X 5521   4.264   4.773   7.575 -0.1356 -0.2123 -1.3101
   66SAPC  H11Y 5522   4.123   4.866   7.499  1.2537 -1.9919 -2.7546
   66SAPC  C312 5523   4.204   4.933   7.693  0.6271 -0.4525 -0.2096
   66SAPC  H12X 5524   4.178   5.041   7.688  3.4202  0.2097 -1.7071
   66SAPC  H12Y 5525   4.306   4.929   7.739  0.8485  0.3912 -0.6177
   66SAPC  C313 5526   4.105   4.859   7.787  0.0013 -0.4866 -0.3849
   66SAPC  H13X 5527   4.127   4.751   7.802  1.3608 -0.0516  0.8522
   66SAPC  H13Y 5528   4.012   4.877   7.730  0.7623  1.2161 -1.1154
   66SAPC  C314 5529   4.100   4.924   7.928 -0.0253  0.4372 -0.4440
   66SAPC  H14X 5530   4.017   4.868   7.976 -1.4502  1.9872 -1.0481
   66SAPC  H14Y 5531   4.080   5.032   7.912  4.3086  1.2056 -1.4784
   66SAPC  C315 5532   4.227   4.898   8.021  0.0720 -0.1018  0.7809
   66SAPC  H15X 5533   4.297   4.967   7.969 -2.8026 -0.1740 -3.3773
   66SAPC  H15Y 5534   4.240   4.789   8.004  0.0474 -0.0531  0.4551
   66SAPC  C316 5535   4.211   4.926   8.175  0.5966  0.0917  0.0254
   66SAPC  H16X 5536   4.304   4.923   8.236 -0.7733  1.0990  2.2273
   66SAPC  H16Y 5537   4.147   4.848   8.222  0.6825  1.2177  2.0254
   66SAPC  C317 5538   4.149   5.058   8.204  0.1640  0.1988 -0.1602
   66SAPC  H17X 5539   4.048   5.074   8.161  0.0211 -1.0959 -0.3249
   66SAPC  H17Y 5540   4.201   5.126   8.134 -2.1402  1.7150 -0.4603
   66SAPC  C318 5541   4.160   5.109   8.346  0.2501  0.2844 -0.7629
   66SAPC  H18X 5542   4.267   5.106   8.378  0.5123  1.5846 -1.4788
   66SAPC  H18Y 5543   4.106   5.050   8.423  0.1170 -1.0068 -1.8263
   66SAPC  H18Z 5544   4.115   5.210   8.343 -1.5840 -0.3792  2.6039
   67SAPC     N 5545   6.239   0.252   5.958  0.2093 -0.4775 -0.2019
   67SAPC   C12 5546   6.182   0.181   6.080  0.1695 -0.0428  0.1260
   67SAPC  H12A 5547   6.179   0.075   6.062 -0.4990 -0.2686  1.5268
   67SAPC  H12B 5548   6.082   0.221   6.089 -0.3110 -0.2941 -3.5653
   67SAPC   C13 5549   6.167   0.198   5.835  0.1184  0.3528  0.6643
   67SAPC  H13A 5550   6.060   0.214   5.835 -0.2581 -1.8723  0.2158
   67SAPC  H13B 5551   6.206   0.241   5.743 -1.8173  1.4801  0.3494
   67SAPC  H13C 5552   6.175   0.090   5.827  1.7745  0.5619 -0.7725
   67SAPC   C14 5553   6.214   0.396   5.958 -0.5953 -0.8338  0.2061
   67SAPC  H14A 5554   6.275   0.444   6.034 -2.5102 -1.6719  2.3480
   67SAPC  H14B 5555   6.251   0.431   5.863  1.8224  0.1499  1.4628
   67SAPC  H14C 5556   6.111   0.424   5.972 -0.8879 -1.6804 -0.2269
   67SAPC   C15 5557   6.383   0.231   5.953  0.7514 -0.0072  0.6441
   67SAPC  H15A 5558   6.424   0.271   5.862  0.8652 -0.8665  0.3107
   67SAPC  H15B 5559   6.434   0.283   6.033 -0.9775 -0.0157  1.7789
   67SAPC  H15C 5560   6.410   0.126   5.953  3.1735  0.5764  0.9472
   67SAPC   C11 5561   6.260   0.206   6.213 -0.1929  0.4976 -0.0396
   67SAPC  H11A 5562   6.354   0.148   6.221  0.5022  1.7151  0.9382
   67SAPC  H11B 5563   6.188   0.169   6.289  0.3697 -0.2792  0.1226
   67SAPC     P 5564   6.430   0.392   6.301  0.2081  0.1735  0.0229
   67SAPC   O13 5565   6.533   0.361   6.203 -0.4530 -0.3727 -0.1924
   67SAPC   O14 5566   6.422   0.536   6.335  0.0626 -0.2241  0.3696
   67SAPC   O12 5567   6.284   0.348   6.246  0.0014  0.7739  0.0723
   67SAPC   O11 5568   6.449   0.301   6.426 -0.0212  0.1672  0.1389
   67SAPC    C1 5569   6.343   0.253   6.513  0.3753  0.1007 -0.3376
   67SAPC    HA 5570   6.249   0.217   6.466  0.6508 -0.7502 -0.2580
   67SAPC    HB 5571   6.375   0.163   6.570  0.3382  0.6550  0.5562
   67SAPC    C2 5572   6.314   0.356   6.622 -0.4079  0.2748  0.6337
   67SAPC    HS 5573   6.318   0.456   6.572  2.3320  1.0009  2.1921
   67SAPC   O21 5574   6.414   0.352   6.721  0.3713 -0.1300  0.1673
   67SAPC   C21 5575   6.415   0.434   6.819 -0.6008 -0.3735  0.3610
   67SAPC   O22 5576   6.335   0.525   6.831 -0.2798 -0.0617 -0.1474
   67SAPC   C22 5577   6.510   0.385   6.920 -0.2745 -0.0680 -0.3438
   67SAPC   H2R 5578   6.455   0.308   6.979 -1.8771  1.3534  0.0686
   67SAPC   H2S 5579   6.599   0.342   6.870 -1.3872 -0.1458 -2.3259
   67SAPC    C3 5580   6.172   0.330   6.682  0.4579 -0.3718 -0.5185
   67SAPC    HX 5581   6.104   0.320   6.594  0.6581  0.2325 -0.7399
   67SAPC    HY 5582   6.139   0.421   6.736 -1.9069  0.3275 -3.0533
   67SAPC   O31 5583   6.159   0.214   6.767  0.4492  0.4678 -0.9796
   67SAPC   C31 5584   6.046   0.209   6.817  0.3906  0.6554  0.2898
   67SAPC   O32 5585   5.955   0.292   6.804  0.1839  0.4633 -0.4643
   67SAPC   C32 5586   6.038   0.071   6.879 -0.3561  0.2904  0.2036
   67SAPC   H2X 5587   6.143   0.042   6.899 -0.3844 -0.9793 -1.4106
   67SAPC   H2Y 5588   6.002   0.007   6.796  2.1896  1.2070 -1.6694
   67SAPC   C23 5589   6.543   0.488   7.028 -0.1623  0.6083 -0.3273
   67SAPC   H3R 5590   6.447   0.520   7.076 -0.4081 -1.7308  0.7737
   67SAPC   H3S 5591   6.571   0.590   6.993  1.6797 -0.2515 -1.4385
   67SAPC   C24 5592   6.627   0.430   7.146 -0.0647  0.2400  0.1774
   67SAPC   H4R 5593   6.611   0.321   7.162  1.7684 -0.0995 -0.1932
   67SAPC   H4S 5594   6.603   0.487   7.238  1.1373  1.0274 -0.0038
   67SAPC   C25 5595   6.773   0.453   7.094  0.4097  0.4434 -0.0761
   67SAPC   H5R 5596   6.789   0.481   6.989 -1.1784  0.5147 -0.3101
   67SAPC   C26 5597   6.883   0.455   7.168  0.6105  0.4881 -0.2591
   67SAPC   H6R 5598   6.979   0.474   7.118 -0.7598 -2.0395 -4.0456
   67SAPC   C27 5599   6.882   0.420   7.319 -0.2720 -0.0839  0.3465
   67SAPC   H7R 5600   6.973   0.359   7.333  0.1120  0.4692  0.3090
   67SAPC   H7S 5601   6.787   0.369   7.347 -0.6314  1.5737  2.2942
   67SAPC   C28 5602   6.902   0.538   7.413  0.3985  0.5728  0.2135
   67SAPC   H8R 5603   6.960   0.615   7.360  0.2132 -1.0076 -2.3597
   67SAPC   C29 5604   6.853   0.547   7.538 -0.2900 -0.6713  0.6992
   67SAPC   H9R 5605   6.871   0.642   7.589 -0.8466 -0.2386  0.0924
   67SAPC  C210 5606   6.770   0.443   7.606 -0.1580  0.2321  0.0849
   67SAPC  H10R 5607   6.695   0.396   7.539  0.1448 -0.2125  0.0525
   67SAPC  H10S 5608   6.704   0.505   7.670  0.5530  0.0544  1.0142
   67SAPC  C211 5609   6.841   0.341   7.676 -0.1130  0.8167 -0.2016
   67SAPC  H11R 5610   6.889   0.262   7.615 -0.7816  1.0540 -1.0431
   67SAPC  C212 5611   6.871   0.328   7.805 -0.3612  0.3821  0.4957
   67SAPC  H12R 5612   6.907   0.228   7.835  1.0977  1.1855  1.5083
   67SAPC  C213 5613   6.827   0.419   7.920  0.5484  0.2679  0.5546
   67SAPC  H13R 5614   6.865   0.370   8.013 -2.3550 -0.5995  1.3402
   67SAPC  H13S 5615   6.716   0.414   7.921  0.4558  1.7126 -0.8193
   67SAPC  C214 5616   6.875   0.558   7.912  0.9383  0.3318  0.4520
   67SAPC  H14R 5617   6.973   0.578   7.868  1.6758  2.0464  2.7383
   67SAPC  C215 5618   6.810   0.670   7.954  1.4500 -0.5852  0.0055
   67SAPC  H15R 5619   6.859   0.769   7.955 -3.8107  2.2178 -0.2886
   67SAPC  C216 5620   6.678   0.667   8.029 -0.4391  0.7891  1.2694
   67SAPC  H16R 5621   6.660   0.564   8.066 -2.9453  1.7151  2.7892
   67SAPC  H16S 5622   6.600   0.708   7.960  1.2026  2.2774  0.2543
   67SAPC  C217 5623   6.676   0.753   8.157 -0.2549 -0.0337  0.2052
   67SAPC  H17R 5624   6.592   0.710   8.215 -2.5207  1.7050 -1.6476
   67SAPC  H17S 5625   6.659   0.861   8.137  0.2398 -0.2499 -1.5441
   67SAPC  C218 5626   6.798   0.730   8.249 -0.3328  0.2172  0.1275
   67SAPC  H18R 5627   6.881   0.792   8.209 -0.3333 -1.2446 -2.1881
   67SAPC  H18S 5628   6.835   0.627   8.231  2.4123  0.7422  2.3121
   67SAPC  C219 5629   6.762   0.758   8.396 -0.1815  0.4318 -0.1444
   67SAPC  H19R 5630   6.842   0.719   8.462 -0.5486 -0.1482 -0.0433
   67SAPC  H19S 5631   6.667   0.703   8.415  0.6937 -0.9773  0.1551
   67SAPC  C220 5632   6.745   0.915   8.427  0.3621  0.4418  0.0577
   67SAPC  H20R 5633   6.729   0.921   8.537 -1.7784 -1.2316 -0.1314
   67SAPC  H20S 5634   6.657   0.967   8.385 -0.2534 -0.5974  0.0548
   67SAPC  H20T 5635   6.843   0.960   8.401 -0.1752  1.4910 -0.1408
   67SAPC   C33 5636   5.944   0.073   7.003  0.0738  0.2258  0.1462
   67SAPC   H3X 5637   5.944  -0.035   7.031  1.6209  0.3607  0.7081
   67SAPC   H3Y 5638   5.846   0.113   6.969 -0.1076  0.8631  1.4163
   67SAPC   C34 5639   5.992   0.154   7.129 -0.5707  0.1923 -0.3338
   67SAPC   H4X 5640   5.926   0.141   7.217 -0.3598  2.2379  0.1417
   67SAPC   H4Y 5641   6.006   0.259   7.098  3.7918 -0.5413 -1.1644
   67SAPC   C35 5642   6.125   0.103   7.178 -0.3842 -0.0568  0.1389
   67SAPC   H5X 5643   6.208   0.118   7.106 -2.1480  2.5543 -1.4484
   67SAPC   H5Y 5644   6.113  -0.007   7.187  0.2920 -0.1796 -0.4158
   67SAPC   C36 5645   6.155   0.178   7.310 -0.8807  0.9127  0.0571
   67SAPC   H6X 5646   6.084   0.163   7.394 -0.3868 -3.4931 -0.2287
   67SAPC   H6Y 5647   6.168   0.287   7.293  1.2992  1.1300  2.8885
   67SAPC   C37 5648   6.292   0.138   7.369 -0.4885  0.5796 -0.5337
   67SAPC   H7X 5649   6.356   0.127   7.278  0.3717  0.7030  0.0542
   67SAPC   H7Y 5650   6.286   0.033   7.405  0.7991  0.2944 -1.1059
   67SAPC   C38 5651   6.356   0.238   7.461  0.1725 -0.2141 -1.0830
   67SAPC   H8X 5652   6.353   0.341   7.419 -0.8285  0.7437  1.2516
   67SAPC   H8Y 5653   6.463   0.222   7.483 -0.1220 -1.9041 -0.8052
   67SAPC   C39 5654   6.284   0.255   7.599  0.3797  0.3133 -0.2805
   67SAPC   H9X 5655   6.251   0.157   7.641 -0.2589  0.3315 -0.7433
   67SAPC   H9Y 5656   6.188   0.305   7.576 -0.6145 -2.3488 -2.1632
   67SAPC  C310 5657   6.362   0.342   7.699 -0.8028 -0.4673  0.2124
   67SAPC  H10X 5658   6.364   0.450   7.673 -0.4161 -0.5704 -0.2045
   67SAPC  H10Y 5659   6.466   0.305   7.708 -0.7929 -0.8271 -1.1907
   67SAPC  C311 5660   6.316   0.339   7.848  1.5052  0.1839  0.5582
   67SAPC  H11X 5661   6.328   0.235   7.888 -3.8271  0.0138  2.1462
   67SAPC  H11Y 5662   6.206   0.352   7.846  1.4781  0.9192  3.6306
   67SAPC  C312 5663   6.370   0.456   7.932  0.1526 -0.0584 -0.2282
   67SAPC  H12X 5664   6.352   0.551   7.878  0.0652  0.8116  1.2978
   67SAPC  H12Y 5665   6.478   0.430   7.943  0.0190 -0.9081 -0.8496
   67SAPC  C313 5666   6.300   0.480   8.067 -0.5660  1.2692  0.1182
   67SAPC  H13X 5667   6.214   0.411   8.083  0.7265 -0.1644  1.0777
   67SAPC  H13Y 5668   6.259   0.583   8.065 -2.1376  0.6429 -1.2256
   67SAPC  C314 5669   6.397   0.469   8.185  0.6897  0.4962 -0.0533
   67SAPC  H14X 5670   6.353   0.495   8.284 -1.6699 -0.9669 -0.6580
   67SAPC  H14Y 5671   6.474   0.549   8.183  0.8194  0.3384 -2.7152
   67SAPC  C315 5672   6.461   0.335   8.210  0.4591  0.1448  0.5058
   67SAPC  H15X 5673   6.507   0.287   8.120 -1.4847 -1.5831  0.4157
   67SAPC  H15Y 5674   6.370   0.275   8.231  0.9506 -1.6575 -2.2405
   67SAPC  C316 5675   6.566   0.334   8.322  0.3070  0.5012  0.1093
   67SAPC  H16X 5676   6.617   0.433   8.325 -2.6027  2.1097 -1.0996
   67SAPC  H16Y 5677   6.647   0.259   8.314  0.0387  0.0814  1.2814
   67SAPC  C317 5678   6.494   0.316   8.456  0.0899  0.0156  0.2508
   67SAPC  H17X 5679   6.442   0.220   8.440 -1.4591  0.2738  3.4412
   67SAPC  H17Y 5680   6.415   0.392   8.479  1.3707  1.3191  0.4163
   67SAPC  C318 5681   6.588   0.305   8.571  0.3767  0.7275  0.0478
   67SAPC  H18X 5682   6.667   0.235   8.538  0.9139  0.1699  2.4334
   67SAPC  H18Y 5683   6.544   0.256   8.660  0.8675 -0.6604 -0.4555
   67SAPC  H18Z 5684   6.631   0.405   8.595 -0.6635  1.0393  0.6730
   68SAPC     N 5685   4.646   5.710   5.862 -0.1388 -0.1326 -0.1190
   68SAPC   C12 5686   4.658   5.788   5.992 -0.4254 -0.3757 -0.2593
   68SAPC  H12A 5687   4.677   5.894   5.978  0.3643 -0.2688  1.4031
   68SAPC  H12B 5688   4.745   5.757   6.049 -1.4389  1.7138  2.5737
   68SAPC   C13 5689   4.776   5.707   5.793  0.3153  0.1918  0.5339
   68SAPC  H13A 5690   4.763   5.659   5.697  0.1612  0.7970  0.2488
   68SAPC  H13B 5691   4.817   5.806   5.776 -0.8068  0.8934  1.8428
   68SAPC  H13C 5692   4.853   5.648   5.841 -1.8342 -2.3305  1.0083
   68SAPC   C14 5693   4.617   5.566   5.890 -0.2835 -0.1304  0.8045
   68SAPC  H14A 5694   4.529   5.555   5.952  0.5810 -0.9204  1.9194
   68SAPC  H14B 5695   4.610   5.505   5.802  0.5602 -0.2088  0.7800
   68SAPC  H14C 5696   4.685   5.527   5.965  0.6964 -0.1093 -0.0678
   68SAPC   C15 5697   4.547   5.777   5.773  0.1696  0.2823 -0.7441
   68SAPC  H15A 5698   4.449   5.755   5.813  0.8638 -0.8501  0.3969
   68SAPC  H15B 5699   4.565   5.883   5.771  0.2512  0.3159  0.9555
   68SAPC  H15C 5700   4.548   5.743   5.671  0.4292 -0.9021 -0.3620
   68SAPC   C11 5701   4.531   5.791   6.083 -0.4289 -0.1469  0.0338
   68SAPC  H11A 5702   4.541   5.845   6.179 -2.4107  3.2155 -1.5399
   68SAPC  H11B 5703   4.509   5.685   6.105 -0.5491 -0.5020 -1.7233
   68SAPC     P 5704   4.396   6.005   6.008  0.1064  0.1611 -0.3164
   68SAPC   O13 5705   4.507   6.049   5.930  0.6462  0.0949  0.2962
   68SAPC   O14 5706   4.262   6.025   5.948  0.0977 -0.3386  0.2238
   68SAPC   O12 5707   4.419   5.848   6.019  0.0653 -0.0105  0.2897
   68SAPC   O11 5708   4.406   6.063   6.157  0.0287  0.2004 -0.6530
   68SAPC    C1 5709   4.297   6.042   6.246  0.3017 -1.1298  0.3018
   68SAPC    HA 5710   4.207   6.095   6.208 -1.5790 -3.7279  0.9852
   68SAPC    HB 5711   4.268   5.935   6.249  0.8984 -1.3476 -1.3005
   68SAPC    C2 5712   4.334   6.092   6.388  0.6887  0.1558  0.0581
   68SAPC    HS 5713   4.351   6.202   6.378  1.4464 -0.0922 -1.4952
   68SAPC   O21 5714   4.447   6.018   6.431  0.2520  0.4679 -0.3934
   68SAPC   C21 5715   4.517   6.091   6.514 -0.1016 -0.4012  0.2111
   68SAPC   O22 5716   4.499   6.207   6.550  0.1086 -0.0214 -0.0074
   68SAPC   C22 5717   4.634   6.007   6.564 -0.8282  1.3236  0.0779
   68SAPC   H2R 5718   4.677   5.951   6.479 -0.0623  0.3439  1.1001
   68SAPC   H2S 5719   4.707   6.082   6.603  1.1730  0.9790 -2.8601
   68SAPC    C3 5720   4.217   6.072   6.496 -0.5515 -0.2766 -0.0035
   68SAPC    HX 5721   4.207   5.962   6.509 -1.0338 -0.2876 -0.4682
   68SAPC    HY 5722   4.125   6.114   6.451 -3.0548 -1.8564  3.4102
   68SAPC   O31 5723   4.242   6.123   6.625 -0.0827 -0.2540  0.0677
   68SAPC   C31 5724   4.212   6.254   6.643  0.1876 -0.2874  0.2164
   68SAPC   O32 5725   4.157   6.326   6.557 -0.6639  0.1574  0.3432
   68SAPC   C32 5726   4.247   6.295   6.784  0.0987 -0.1155 -0.1092
   68SAPC   H2X 5727   4.184   6.382   6.815  1.4164  1.6356 -2.1981
   68SAPC   H2Y 5728   4.354   6.324   6.781  0.1266  0.3273  2.9965
   68SAPC   C23 5729   4.591   5.920   6.684  0.2199  0.4522  0.1942
   68SAPC   H3R 5730   4.651   5.827   6.676 -1.4834 -0.5145 -2.0307
   68SAPC   H3S 5731   4.490   5.874   6.674  0.2168  0.4253  0.3507
   68SAPC   C24 5732   4.606   5.978   6.823 -0.3055  0.0067  0.0642
   68SAPC   H4R 5733   4.549   5.903   6.882  0.7680 -1.6185 -0.9390
   68SAPC   H4S 5734   4.560   6.079   6.822 -0.0747  0.1052 -1.0170
   68SAPC   C25 5735   4.752   5.999   6.844  0.2633  0.7083 -0.9786
   68SAPC   H5R 5736   4.820   5.961   6.766 -0.2628 -2.3171 -0.0123
   68SAPC   C26 5737   4.802   6.064   6.950  0.1574  0.7800 -0.3929
   68SAPC   H6R 5738   4.911   6.074   6.959  0.7222 -1.9767 -3.3769
   68SAPC   C27 5739   4.715   6.129   7.060  0.0956  0.3798  0.2308
   68SAPC   H7R 5740   4.634   6.060   7.093  1.3219 -1.9407 -1.4414
   68SAPC   H7S 5741   4.649   6.206   7.014 -0.6577 -0.9008 -0.8710
   68SAPC   C28 5742   4.784   6.200   7.169 -0.3028  0.0530  0.2031
   68SAPC   H8R 5743   4.770   6.309   7.170 -0.3230  0.0509  0.8959
   68SAPC   C29 5744   4.875   6.155   7.254  0.1387 -0.6944  0.2374
   68SAPC   H9R 5745   4.907   6.219   7.337 -0.4337 -1.3183  0.9553
   68SAPC  C210 5746   4.931   6.015   7.247  0.4364 -0.0167 -0.3512
   68SAPC  H10R 5747   4.987   6.004   7.152  1.2338 -2.8143  0.3858
   68SAPC  H10S 5748   4.852   5.938   7.255 -0.9747  1.4041 -0.4841
   68SAPC  C211 5749   5.034   5.995   7.353  0.4944  0.6822 -0.6966
   68SAPC  H11R 5750   5.003   5.922   7.429 -1.2345  2.1439  0.0279
   68SAPC  C212 5751   5.152   6.063   7.377 -0.3574  0.9107  0.6748
   68SAPC  H12R 5752   5.220   6.036   7.460  0.7523 -0.7447 -0.7200
   68SAPC  C213 5753   5.221   6.169   7.295  0.1720  0.1342 -0.3191
   68SAPC  H13R 5754   5.159   6.198   7.207 -0.3298  1.7210  0.5251
   68SAPC  H13S 5755   5.317   6.125   7.261  0.2360  0.6866 -0.8594
   68SAPC  C214 5756   5.240   6.299   7.373 -0.1497 -0.0958 -0.2880
   68SAPC  H14R 5757   5.320   6.292   7.447 -0.4191 -0.0632  0.0094
   68SAPC  C215 5758   5.180   6.423   7.350 -0.4374 -0.0207 -0.1917
   68SAPC  H15R 5759   5.200   6.504   7.422  1.3945 -0.0059 -0.6983
   68SAPC  C216 5760   5.086   6.459   7.238 -0.2952  0.1283 -0.3734
   68SAPC  H16R 5761   5.004   6.526   7.271  0.1382  0.9764 -0.9824
   68SAPC  H16S 5762   5.041   6.367   7.194 -1.0011  0.6120 -0.6607
   68SAPC  C217 5763   5.168   6.525   7.128 -0.4327  0.6070 -0.7181
   68SAPC  H17R 5764   5.235   6.451   7.080 -1.4751  1.2210 -3.2588
   68SAPC  H17S 5765   5.222   6.608   7.178  3.5460 -2.3170  0.0053
   68SAPC  C218 5766   5.095   6.605   7.024  0.8912 -0.5086  0.0444
   68SAPC  H18R 5767   5.160   6.675   6.967  0.7084  0.8388  1.4609
   68SAPC  H18S 5768   5.024   6.674   7.074  0.3817 -0.9123 -0.1202
   68SAPC  C219 5769   5.019   6.524   6.915 -0.1451 -0.7240  0.1284
   68SAPC  H19R 5770   4.931   6.476   6.963 -0.5155  0.7298  0.9238
   68SAPC  H19S 5771   5.085   6.446   6.870  1.2950  0.9033 -0.6441
   68SAPC  C220 5772   4.961   6.613   6.804 -0.5285  0.2728  0.2238
   68SAPC  H20R 5773   4.900   6.555   6.731 -1.4219  0.2990  0.9526
   68SAPC  H20S 5774   5.041   6.654   6.738  0.2236 -0.3859  0.7151
   68SAPC  H20T 5775   4.912   6.707   6.837 -2.6733 -0.9738  0.6996
   68SAPC   C33 5776   4.247   6.173   6.886  0.0224  0.1610  0.7495
   68SAPC   H3X 5777   4.305   6.092   6.838  0.6275  1.5996 -1.0260
   68SAPC   H3Y 5778   4.144   6.133   6.903 -0.5559  1.4321  0.3263
   68SAPC   C34 5779   4.304   6.216   7.013  0.3767 -0.4331 -0.1724
   68SAPC   H4X 5780   4.246   6.300   7.056  0.0523 -0.7089 -0.0714
   68SAPC   H4Y 5781   4.409   6.249   6.996  0.6535 -0.7804  0.8503
   68SAPC   C35 5782   4.321   6.101   7.115  0.0194 -0.2926 -0.3516
   68SAPC   H5X 5783   4.375   6.012   7.077  0.2227  0.1461 -1.0918
   68SAPC   H5Y 5784   4.223   6.054   7.138 -1.1310  2.2037  0.0706
   68SAPC   C36 5785   4.385   6.158   7.244  0.4199 -0.0632  0.5054
   68SAPC   H6X 5786   4.333   6.247   7.285  1.1925  1.0768 -0.9564
   68SAPC   H6Y 5787   4.490   6.190   7.228  0.6292 -1.3567 -0.8055
   68SAPC   C37 5788   4.395   6.047   7.354  0.6516  0.1069 -0.2389
   68SAPC   H7X 5789   4.458   5.968   7.307  0.3319  0.3161 -1.0352
   68SAPC   H7Y 5790   4.292   6.009   7.376  1.3485 -0.4535  2.1507
   68SAPC   C38 5791   4.459   6.102   7.483  0.2034 -0.9484  0.1255
   68SAPC   H8X 5792   4.372   6.137   7.543 -0.9394 -1.2703 -1.3102
   68SAPC   H8Y 5793   4.527   6.188   7.470 -1.3543  0.7971  3.0135
   68SAPC   C39 5794   4.545   5.992   7.546 -0.4303 -0.4482 -0.7012
   68SAPC   H9X 5795   4.626   5.960   7.477 -0.8669  1.8740 -2.3659
   68SAPC   H9Y 5796   4.481   5.903   7.568  1.8513 -1.2155  3.3292
   68SAPC  C310 5797   4.610   6.024   7.681 -0.6351 -0.0666 -0.3611
   68SAPC  H10X 5798   4.640   5.929   7.729 -0.8357  0.8386  1.5943
   68SAPC  H10Y 5799   4.531   6.071   7.743 -0.9793 -0.1423 -0.7392
   68SAPC  C311 5800   4.747   6.091   7.671 -0.5530  0.5891  0.1636
   68SAPC  H11X 5801   4.802   6.034   7.593 -0.6560  0.9261 -0.1588
   68SAPC  H11Y 5802   4.801   6.073   7.766 -0.1328  0.1762 -0.1492
   68SAPC  C312 5803   4.737   6.244   7.644 -0.1487  0.0711  0.1818
   68SAPC  H12X 5804   4.644   6.288   7.687  0.5064  1.5198  0.1270
   68SAPC  H12Y 5805   4.730   6.254   7.534 -0.3044 -0.8395  0.1040
   68SAPC  C313 5806   4.857   6.325   7.698 -0.8309 -0.2974 -0.0601
   68SAPC  H13X 5807   4.869   6.303   7.806 -2.5511 -1.6299 -0.1186
   68SAPC  H13Y 5808   4.844   6.434   7.676  2.7254  0.2237  0.0733
   68SAPC  C314 5809   4.993   6.307   7.624 -0.4812  0.4959 -0.1807
   68SAPC  H14X 5810   4.973   6.298   7.515 -1.9985 -4.2200  0.4025
   68SAPC  H14Y 5811   5.033   6.212   7.665  1.1050  0.6281 -1.3787
   68SAPC  C315 5812   5.093   6.419   7.669 -0.1546  0.0620  0.0872
   68SAPC  H15X 5813   5.061   6.518   7.629 -0.2201  0.4423  1.0755
   68SAPC  H15Y 5814   5.190   6.397   7.620 -0.4700  0.1210 -0.5657
   68SAPC  C316 5815   5.128   6.433   7.820  0.6461 -0.0500 -0.3643
   68SAPC  H16X 5816   5.168   6.334   7.849 -0.4568 -0.5049 -0.3748
   68SAPC  H16Y 5817   5.033   6.447   7.877  0.1531 -1.0006 -0.9333
   68SAPC  C317 5818   5.231   6.542   7.852 -0.1337 -0.4968  0.2858
   68SAPC  H17X 5819   5.219   6.631   7.787 -0.7335 -1.6201 -1.1572
   68SAPC  H17Y 5820   5.332   6.505   7.821 -0.0133 -0.0630  0.1582
   68SAPC  C318 5821   5.240   6.592   7.992 -0.2990 -0.3477  0.0980
   68SAPC  H18X 5822   5.144   6.631   8.033 -0.9973 -1.4714 -0.4707
   68SAPC  H18Y 5823   5.309   6.679   7.988  1.2604 -1.6374 -1.7190
   68SAPC  H18Z 5824   5.287   6.520   8.062  0.8733 -0.0543 -0.3815
   69SLPC     N 5825   1.553   3.843  11.051  0.0254 -0.1612  0.5284
   69SLPC   C13 5826   1.541   3.776  11.183  0.4392 -0.5537  0.0034
   69SLPC  H13A 5827   1.440   3.744  11.205  0.0728 -0.6099 -1.6386
   69SLPC  H13B 5828   1.608   3.693  11.193  0.4174 -0.8872 -2.2171
   69SLPC  H13C 5829   1.581   3.841  11.259 -0.3638  0.4656 -0.4302
   69SLPC   C14 5830   1.501   3.747  10.950  0.1682  0.0175 -0.3364
   69SLPC  H14A 5831   1.407   3.706  10.982 -0.2577  1.1955 -0.0534
   69SLPC  H14B 5832   1.489   3.787  10.850 -0.1897 -0.7911 -0.6202
   69SLPC  H14C 5833   1.568   3.663  10.938  0.7404  0.6299 -1.5775
   69SLPC   C15 5834   1.694   3.886  11.032  0.1525  0.1799  0.3383
   69SLPC  H15A 5835   1.769   3.812  11.008 -1.3912 -1.1956 -0.3855
   69SLPC  H15B 5836   1.704   3.955  10.950 -1.8276 -1.7722 -1.6366
   69SLPC  H15C 5837   1.738   3.944  11.112 -1.4394  0.0072  1.3842
   69SLPC   C12 5838   1.463   3.970  11.044  0.3181  0.1342 -0.3000
   69SLPC  H12A 5839   1.364   3.930  11.060 -0.3560  0.9110 -2.4070
   69SLPC  H12B 5840   1.465   4.014  10.946  0.8222  0.2569 -0.2377
   69SLPC   C11 5841   1.484   4.075  11.147 -0.4489 -0.4199  0.1879
   69SLPC  H11A 5842   1.487   4.019  11.243 -1.1140 -1.7499 -0.5516
   69SLPC  H11B 5843   1.393   4.139  11.144 -0.7579 -0.8542  0.2591
   69SLPC     P 5844   1.630   4.252  11.006  0.1537  0.2480  0.3190
   69SLPC   O13 5845   1.505   4.319  10.972 -0.1284  0.8468  0.3729
   69SLPC   O14 5846   1.740   4.342  11.056 -0.9583  0.2833 -0.3308
   69SLPC   O12 5847   1.599   4.148  11.117  0.0345  0.3339  0.5575
   69SLPC   O11 5848   1.672   4.151  10.888  0.8811 -0.3368  0.4956
   69SLPC    C1 5849   1.594   4.120  10.767 -0.2753  0.3125  0.1846
   69SLPC    HA 5850   1.591   4.009  10.757  1.6294  0.2019  0.6774
   69SLPC    HB 5851   1.486   4.148  10.774 -0.7321 -0.7713 -2.0764
   69SLPC    C2 5852   1.664   4.177  10.633  0.2666  0.3241  0.8602
   69SLPC    HS 5853   1.773   4.161  10.649 -0.0131 -2.7960 -0.0699
   69SLPC   O21 5854   1.623   4.318  10.610 -0.3251  0.1047 -0.7177
   69SLPC   C21 5855   1.714   4.414  10.618 -0.4457  1.0110  0.2285
   69SLPC   O22 5856   1.830   4.396  10.646  0.7893  0.1636 -0.1841
   69SLPC   C22 5857   1.649   4.542  10.574 -0.0941  0.2265 -0.8903
   69SLPC   H2R 5858   1.591   4.520  10.482 -2.8308 -0.1001  0.8715
   69SLPC   H2S 5859   1.566   4.566  10.644 -0.8878  1.8372 -2.3651
   69SLPC    C3 5860   1.613   4.093  10.505 -0.8426 -0.2890 -0.4218
   69SLPC    HX 5861   1.502   4.091  10.501 -0.7636 -0.5695 -3.0287
   69SLPC    HY 5862   1.648   3.988  10.516  1.9775  0.6361 -0.2390
   69SLPC   O31 5863   1.664   4.144  10.381  0.5740 -0.8324 -0.1286
   69SLPC   C31 5864   1.791   4.116  10.360  0.0477 -0.7323 -0.1809
   69SLPC   O32 5865   1.859   4.053  10.439 -0.8720  0.0547  0.5594
   69SLPC   C32 5866   1.827   4.153  10.215  0.3291  0.4867 -0.2004
   69SLPC   H2X 5867   1.938   4.159  10.202  0.6188 -2.1254  0.8390
   69SLPC   H2Y 5868   1.790   4.249  10.172 -0.1308  0.0691 -0.7446
   69SLPC   C23 5869   1.736   4.671  10.578 -0.8643 -0.2421  0.9024
   69SLPC   H3R 5870   1.786   4.665  10.677  0.9082 -0.8182  0.0106
   69SLPC   H3S 5871   1.673   4.761  10.565  0.0914  0.4442  0.9934
   69SLPC   C24 5872   1.844   4.670  10.469  0.0326 -0.1435 -0.0490
   69SLPC   H4R 5873   1.878   4.564  10.456  1.0360  0.0901  0.5913
   69SLPC   H4S 5874   1.927   4.740  10.493  0.3428 -0.1038 -1.1959
   69SLPC   C25 5875   1.788   4.721  10.334  0.7315  0.1580  0.3285
   69SLPC   H5R 5876   1.747   4.824  10.338  0.6041  0.2042 -1.7357
   69SLPC   H5S 5877   1.696   4.661  10.317 -0.6689  1.9024  1.5705
   69SLPC   C26 5878   1.886   4.698  10.215 -0.4963 -0.8496  0.0073
   69SLPC   H6R 5879   1.971   4.770  10.220 -1.3579  0.0570  2.4469
   69SLPC   H6S 5880   1.824   4.717  10.125 -0.5896 -1.5263 -0.0705
   69SLPC   C27 5881   1.937   4.556  10.187  0.6309  0.9042 -0.7244
   69SLPC   H7R 5882   1.848   4.490  10.185  0.3932  1.2690 -2.2224
   69SLPC   H7S 5883   1.997   4.522  10.275 -2.1721  1.5469  1.5147
   69SLPC   C28 5884   2.014   4.534  10.054  0.1247 -0.0532  0.0041
   69SLPC   H8R 5885   2.106   4.596  10.055 -0.1643  0.3809  0.7469
   69SLPC   H8S 5886   1.938   4.583   9.989 -0.1948 -1.2134 -0.5111
   69SLPC   C29 5887   2.030   4.387  10.010 -0.0075 -0.6148 -0.6412
   69SLPC   H9R 5888   2.055   4.323  10.096  4.1741  1.1661 -0.4281
   69SLPC  C210 5889   2.020   4.340   9.885 -0.5022 -0.5466 -0.4300
   69SLPC  H10R 5890   2.035   4.232   9.874 -0.8750 -0.8620  1.9012
   69SLPC  C211 5891   1.995   4.422   9.756  0.0821  0.3813  0.1882
   69SLPC  H11R 5892   1.980   4.526   9.792 -0.4585  0.6669 -0.8454
   69SLPC  H11S 5893   1.905   4.387   9.702 -0.6241  0.2850  1.4042
   69SLPC  C212 5894   2.117   4.434   9.673  0.0809 -0.2886 -0.3292
   69SLPC  H12R 5895   2.213   4.426   9.725  0.5231 -1.2940 -1.2655
   69SLPC  C213 5896   2.119   4.488   9.550 -0.0579 -0.2688  0.1365
   69SLPC  H13R 5897   2.214   4.493   9.495 -1.3595 -0.1365 -2.1709
   69SLPC  C214 5898   2.001   4.524   9.463 -0.6952  0.0485 -0.0794
   69SLPC  H14R 5899   1.972   4.631   9.477 -0.3864  0.3318 -1.5394
   69SLPC  H14S 5900   1.909   4.470   9.494 -0.9546 -0.4382 -1.6648
   69SLPC  C215 5901   2.030   4.489   9.322 -0.1092  0.0878  0.1984
   69SLPC  H15R 5902   2.044   4.379   9.319  3.2953  0.4721  0.5180
   69SLPC  H15S 5903   2.119   4.538   9.277 -1.2128  2.5976  0.6483
   69SLPC  C216 5904   1.912   4.523   9.223 -1.2204 -0.1292  0.3205
   69SLPC  H16R 5905   1.817   4.518   9.280 -0.2715 -0.6781  1.8846
   69SLPC  H16S 5906   1.906   4.442   9.147 -1.9183 -1.5303  1.8535
   69SLPC  C217 5907   1.925   4.656   9.138 -0.0385 -0.2097  0.1059
   69SLPC  H17R 5908   1.944   4.731   9.218  0.1311 -1.3753  1.1835
   69SLPC  H17S 5909   1.824   4.676   9.096  0.0498 -1.0373 -0.5129
   69SLPC  C218 5910   2.027   4.660   9.022  0.0566 -0.2092  0.2992
   69SLPC  H18R 5911   2.017   4.573   8.954 -0.4594  0.1903 -0.1443
   69SLPC  H18S 5912   2.125   4.668   9.074 -0.1169 -0.6921  0.7022
   69SLPC  H18T 5913   2.020   4.759   8.970  1.2040  0.5437  1.5527
   69SLPC   C33 5914   1.784   4.034  10.127  0.0877 -0.3888 -0.6066
   69SLPC   H3X 5915   1.673   4.029  10.139 -0.0648  1.9554 -0.7822
   69SLPC   H3Y 5916   1.822   3.934  10.158 -0.7041 -0.2872  0.7250
   69SLPC   C34 5917   1.819   4.055   9.986 -0.0245  0.0267 -0.3966
   69SLPC   H4X 5918   1.927   4.067   9.965 -0.2936  0.4224 -1.5898
   69SLPC   H4Y 5919   1.775   4.150   9.949 -1.0199  0.1026  0.9346
   69SLPC   C35 5920   1.770   3.933   9.906 -0.2359  0.0281 -0.2539
   69SLPC   H5X 5921   1.660   3.949   9.908  0.0084  1.7664 -0.7103
   69SLPC   H5Y 5922   1.809   3.842   9.956  0.9816 -0.0073 -1.2574
   69SLPC   C36 5923   1.823   3.927   9.763  0.4115  0.4560 -0.5046
   69SLPC   H6X 5924   1.811   3.821   9.733 -0.8739  0.1331  1.0486
   69SLPC   H6Y 5925   1.933   3.942   9.761  0.3217  1.4426  0.8993
   69SLPC   C37 5926   1.758   4.027   9.668  0.2739 -0.6805 -0.0431
   69SLPC   H7X 5927   1.801   4.127   9.692 -1.8731  0.0325  0.9270
   69SLPC   H7Y 5928   1.648   4.033   9.683  0.3799  1.2487  0.0664
   69SLPC   C38 5929   1.796   3.989   9.526 -0.1902  0.8806 -0.3969
   69SLPC   H8X 5930   1.772   3.883   9.504  0.9662  0.8612 -1.6736
   69SLPC   H8Y 5931   1.906   3.987   9.511  0.1527 -0.8500  2.1944
   69SLPC   C39 5932   1.732   4.074   9.413  0.1826  0.3673 -0.1906
   69SLPC   H9X 5933   1.758   4.177   9.443 -0.4251  0.4499  0.0541
   69SLPC   H9Y 5934   1.621   4.065   9.414  0.2596 -0.8156 -1.2725
   69SLPC  C310 5935   1.786   4.033   9.274 -0.3719  0.4990 -0.7370
   69SLPC  H10X 5936   1.759   3.928   9.252 -0.0416  0.0260  1.0328
   69SLPC  H10Y 5937   1.896   4.047   9.279 -0.4912  0.6974  1.9079
   69SLPC  C311 5938   1.737   4.120   9.160  0.3299  0.7679  0.8013
   69SLPC  H11X 5939   1.743   4.225   9.197  2.5289  1.2229 -0.7153
   69SLPC  H11Y 5940   1.632   4.104   9.131  0.5733  0.6933 -0.0456
   69SLPC  C312 5941   1.830   4.094   9.036  0.4339  0.8058 -0.1799
   69SLPC  H12X 5942   1.822   3.983   9.028 -0.0995  0.7844  0.5715
   69SLPC  H12Y 5943   1.935   4.116   9.065  0.9135  1.0719 -2.0373
   69SLPC  C313 5944   1.793   4.171   8.911  0.1337 -0.5921 -0.0700
   69SLPC  H13X 5945   1.771   4.276   8.941 -1.0817 -1.1620  1.0921
   69SLPC  H13Y 5946   1.705   4.117   8.870 -1.4854  1.9848 -0.0927
   69SLPC  C314 5947   1.913   4.184   8.819  0.6084 -0.2859 -0.0500
   69SLPC  H14X 5948   2.004   4.216   8.875 -0.2444 -1.0763  1.8437
   69SLPC  H14Y 5949   1.891   4.255   8.736 -0.8834 -0.2482  0.3641
   69SLPC  C315 5950   1.935   4.056   8.739 -0.1626 -0.7081  0.1882
   69SLPC  H15X 5951   1.844   4.040   8.677 -0.3452 -1.8899  0.7535
   69SLPC  H15Y 5952   1.937   3.962   8.797 -0.9732 -0.1600  1.1174
   69SLPC  C316 5953   2.054   4.049   8.638  0.0295 -0.5710  0.3069
   69SLPC  H16X 5954   2.043   4.141   8.577  0.4239 -0.4366  0.4339
   69SLPC  H16Y 5955   2.046   3.960   8.573  1.2128  0.9855 -2.0628
   69SLPC  C317 5956   2.191   4.048   8.713 -0.0557 -0.2957  0.0058
   69SLPC  H17X 5957   2.183   3.973   8.794 -0.5146 -0.6711 -0.3950
   69SLPC  H17Y 5958   2.204   4.148   8.760  1.0712 -0.8128  0.8236
   69SLPC  C318 5959   2.317   4.046   8.623  0.0592  0.4582  0.1222
   69SLPC  H18X 5960   2.314   3.956   8.557 -0.0468 -0.8700  1.9153
   69SLPC  H18Y 5961   2.411   4.021   8.677 -0.3454  0.4283  0.8091
   69SLPC  H18Z 5962   2.328   4.145   8.573 -2.2580  0.4977 -0.3290
   70SLPC     N 5963   3.148   1.739  11.142 -0.2740  0.1996 -0.0452
   70SLPC   C13 5964   3.207   1.881  11.144  0.3467 -0.5108 -0.0592
   70SLPC  H13A 5965   3.168   1.949  11.070  0.3908 -1.2998 -0.8245
   70SLPC  H13B 5966   3.192   1.923  11.242  0.2111 -0.2607 -0.1913
   70SLPC  H13C 5967   3.315   1.871  11.137  0.2179 -1.1774 -1.2568
   70SLPC   C14 5968   3.002   1.765  11.165  0.7789  0.7218  0.1962
   70SLPC  H14A 5969   2.962   1.835  11.093  0.6192  0.5027  0.0690
   70SLPC  H14B 5970   2.952   1.671  11.145 -0.3065  2.1003 -4.0343
   70SLPC  H14C 5971   2.977   1.808  11.261 -0.3447  0.2979  0.1049
   70SLPC   C15 5972   3.204   1.664  11.256  0.1483 -0.2131 -0.0216
   70SLPC  H15A 5973   3.312   1.660  11.257  0.2525  0.5074 -2.9410
   70SLPC  H15B 5974   3.182   1.707  11.352  1.9166 -0.3416  0.4653
   70SLPC  H15C 5975   3.174   1.562  11.242 -3.4439  0.8739 -0.6219
   70SLPC   C12 5976   3.186   1.674  11.009  0.2330  0.1014  0.7065
   70SLPC  H12A 5977   3.293   1.666  10.999  0.2145  1.2440 -0.7548
   70SLPC  H12B 5978   3.157   1.742  10.930  3.6273  1.4462  0.5078
   70SLPC   C11 5979   3.127   1.540  10.962 -0.2931  0.3638 -1.1111
   70SLPC  H11A 5980   3.164   1.460  11.030  0.4313 -0.0843 -2.0370
   70SLPC  H11B 5981   3.180   1.517  10.867 -2.9004 -1.1479 -2.2438
   70SLPC     P 5982   2.911   1.610  10.838 -0.4931  0.6768  0.3285
   70SLPC   O13 5983   2.766   1.589  10.844  0.3539 -1.3151 -0.2106
   70SLPC   O14 5984   2.961   1.749  10.846 -0.1538 -0.4883  0.0790
   70SLPC   O12 5985   2.987   1.534  10.946 -0.5040  0.1761  0.0223
   70SLPC   O11 5986   2.973   1.541  10.711  0.1127 -0.0680 -0.1616
   70SLPC    C1 5987   2.967   1.398  10.688  0.2638  0.5394  0.0275
   70SLPC    HA 5988   3.062   1.359  10.731 -1.3845 -2.1881  1.3038
   70SLPC    HB 5989   2.886   1.349  10.745 -0.2399  0.9977 -0.2843
   70SLPC    C2 5990   2.945   1.364  10.538  0.6452 -0.2757 -0.8788
   70SLPC    HS 5991   2.958   1.254  10.529  0.6909 -0.2494 -1.1474
   70SLPC   O21 5992   3.042   1.429  10.451 -0.1393  0.4014  0.5318
   70SLPC   C21 5993   3.164   1.378  10.447 -0.0166  0.8622  0.7288
   70SLPC   O22 5994   3.207   1.284  10.511  0.2148 -0.0875 -0.7995
   70SLPC   C22 5995   3.246   1.457  10.339  0.2978  0.4123 -0.2275
   70SLPC   H2R 5996   3.185   1.437  10.249  0.4178 -0.1060 -0.1922
   70SLPC   H2S 5997   3.235   1.564  10.368 -0.1107  0.4471 -0.5146
   70SLPC    C3 5998   2.806   1.419  10.491  0.6352 -0.3548  0.5890
   70SLPC    HX 5999   2.811   1.530  10.501 -0.3802 -0.2551  0.0100
   70SLPC    HY 6000   2.724   1.384  10.558  1.0159 -0.1231  1.1848
   70SLPC   O31 6001   2.782   1.381  10.350  0.4182  0.3795 -0.2585
   70SLPC   C31 6002   2.681   1.451  10.300  0.3152 -0.5265  1.1817
   70SLPC   O32 6003   2.620   1.540  10.366 -0.2859 -0.0208 -0.3633
   70SLPC   C32 6004   2.642   1.402  10.162 -0.9328 -0.0680  0.2034
   70SLPC   H2X 6005   2.531   1.407  10.148 -0.8855  2.0510  0.4715
   70SLPC   H2Y 6006   2.664   1.294  10.174 -1.2085  0.1795  3.2335
   70SLPC   C23 6007   3.395   1.424  10.322  0.4835 -0.0466  0.4113
   70SLPC   H3R 6008   3.430   1.405  10.426  1.2946 -0.8038  0.0032
   70SLPC   H3S 6009   3.444   1.514  10.280 -1.4266  1.3040  0.9974
   70SLPC   C24 6010   3.403   1.296  10.234  0.9795 -0.4513 -0.7008
   70SLPC   H4R 6011   3.306   1.243  10.218 -0.0460  1.5430 -1.2922
   70SLPC   H4S 6012   3.476   1.220  10.270 -0.3279 -0.9672  0.9609
   70SLPC   C25 6013   3.448   1.341  10.087 -0.0795  0.6121 -0.3420
   70SLPC   H5R 6014   3.541   1.402  10.084  0.3076 -0.0220 -1.3784
   70SLPC   H5S 6015   3.362   1.401  10.048  0.6732  2.2049  0.3771
   70SLPC   C26 6016   3.475   1.217   9.996  0.2916  0.0881 -0.4305
   70SLPC   H6R 6017   3.403   1.137  10.024 -0.2133  0.6020 -0.2494
   70SLPC   H6S 6018   3.576   1.173  10.007  0.1150 -0.2524 -0.1123
   70SLPC   C27 6019   3.443   1.250   9.845 -0.2784 -0.0453 -0.3159
   70SLPC   H7R 6020   3.342   1.298   9.843 -0.1970  0.1204 -0.5397
   70SLPC   H7S 6021   3.444   1.159   9.781  2.0531  0.5469 -1.1753
   70SLPC   C28 6022   3.546   1.340   9.770 -0.1097  0.4275  0.0093
   70SLPC   H8R 6023   3.560   1.427   9.838  1.4932 -1.4486  2.1641
   70SLPC   H8S 6024   3.511   1.390   9.678  1.6676 -1.7395 -1.9101
   70SLPC   C29 6025   3.680   1.266   9.756 -0.5496  0.0636  0.2600
   70SLPC   H9R 6026   3.719   1.243   9.856  0.6773 -0.8543 -0.4120
   70SLPC  C210 6027   3.753   1.246   9.643 -0.0399  0.0766 -0.1399
   70SLPC  H10R 6028   3.861   1.225   9.647 -0.4532 -2.0498  0.6710
   70SLPC  C211 6029   3.712   1.283   9.505 -0.1184  0.4297  0.0123
   70SLPC  H11R 6030   3.798   1.314   9.441  0.1709 -0.0409  0.1750
   70SLPC  H11S 6031   3.656   1.379   9.504 -1.3403 -0.2798 -1.0880
   70SLPC  C212 6032   3.622   1.174   9.442  0.2382  0.1944 -0.2028
   70SLPC  H12R 6033   3.593   1.088   9.505 -2.6370  1.5918  0.4902
   70SLPC  C213 6034   3.594   1.176   9.313 -0.6385  0.6123  0.1112
   70SLPC  H13R 6035   3.536   1.091   9.274 -0.7076  0.1308  1.2441
   70SLPC  C214 6036   3.636   1.277   9.211  0.4524 -0.1233  0.7504
   70SLPC  H14R 6037   3.715   1.229   9.149  0.2571  1.0686 -0.4465
   70SLPC  H14S 6038   3.690   1.361   9.260  1.4971 -0.8264  0.8301
   70SLPC  C215 6039   3.515   1.327   9.124  0.0886  0.1440  0.1460
   70SLPC  H15R 6040   3.487   1.243   9.057  0.0572  0.5965 -0.4097
   70SLPC  H15S 6041   3.559   1.410   9.065  2.0662 -0.6734  0.4282
   70SLPC  C216 6042   3.384   1.372   9.196  0.8748 -0.4551  0.1503
   70SLPC  H16R 6043   3.391   1.460   9.264  1.4433  0.5867 -1.2353
   70SLPC  H16S 6044   3.334   1.289   9.251  0.2928 -1.4836 -1.9090
   70SLPC  C217 6045   3.271   1.399   9.093 -0.8345  0.0973 -0.0312
   70SLPC  H17R 6046   3.306   1.486   9.034 -1.1347 -0.2603 -0.7481
   70SLPC  H17S 6047   3.181   1.442   9.141  1.1512  4.1644  0.2494
   70SLPC  C218 6048   3.222   1.288   9.004  0.2567 -0.6778 -0.1141
   70SLPC  H18R 6049   3.183   1.202   9.063 -1.2110 -0.1236 -0.2539
   70SLPC  H18S 6050   3.307   1.256   8.940  1.5644 -0.7095  1.6005
   70SLPC  H18T 6051   3.140   1.321   8.936  0.3938  0.6371  0.3389
   70SLPC   C33 6052   2.728   1.460  10.051  0.6931  0.2155 -0.2641
   70SLPC   H3X 6053   2.720   1.390   9.965  1.0491  2.4582 -2.1716
   70SLPC   H3Y 6054   2.834   1.458  10.085  0.7825 -0.5992 -0.5788
   70SLPC   C34 6055   2.669   1.601  10.015 -0.1746 -0.0036 -0.3059
   70SLPC   H4X 6056   2.688   1.670  10.099  0.4049 -0.4771 -0.0385
   70SLPC   H4Y 6057   2.560   1.589   9.999 -0.0461  0.1441 -1.3696
   70SLPC   C35 6058   2.747   1.658   9.893  1.0423  0.4399  0.2818
   70SLPC   H5X 6059   2.720   1.599   9.803  1.1246  1.1567 -0.2076
   70SLPC   H5Y 6060   2.858   1.654   9.903  0.9308 -1.1327  1.1370
   70SLPC   C36 6061   2.712   1.802   9.871  0.2451  1.4065 -0.2624
   70SLPC   H6X 6062   2.778   1.839   9.789 -0.3523 -0.9862 -1.8846
   70SLPC   H6Y 6063   2.734   1.867   9.958 -1.7927 -0.9442  2.0705
   70SLPC   C37 6064   2.571   1.839   9.823 -0.3073 -0.5817  0.1555
   70SLPC   H7X 6065   2.581   1.950   9.830 -2.0500 -0.4373  0.6238
   70SLPC   H7Y 6066   2.495   1.808   9.899 -2.2916 -0.4126 -1.7099
   70SLPC   C38 6067   2.529   1.798   9.679 -0.8017 -0.0643 -0.2482
   70SLPC   H8X 6068   2.510   1.689   9.679 -0.5752 -0.1183  1.8703
   70SLPC   H8Y 6069   2.618   1.821   9.615  0.5955  1.3397  2.1320
   70SLPC   C39 6070   2.408   1.878   9.628  0.2144  0.3759  0.2402
   70SLPC   H9X 6071   2.421   1.984   9.657  1.7960  0.5598 -1.0695
   70SLPC   H9Y 6072   2.319   1.833   9.676  0.3715 -0.4888 -0.2641
   70SLPC  C310 6073   2.398   1.872   9.479  0.2306  0.0901  0.6703
   70SLPC  H10X 6074   2.353   1.774   9.452  1.1143 -0.2539  0.4226
   70SLPC  H10Y 6075   2.496   1.866   9.428 -1.2417 -1.8447 -2.1185
   70SLPC  C311 6076   2.312   1.982   9.423  0.6582 -0.1115  0.3805
   70SLPC  H11X 6077   2.371   2.076   9.425  1.1020 -0.3496 -0.7465
   70SLPC  H11Y 6078   2.223   1.995   9.487  1.6905  2.1065  1.4173
   70SLPC  C312 6079   2.287   1.963   9.269  0.0433 -0.2048 -0.9992
   70SLPC  H12X 6080   2.249   1.861   9.248  0.8518 -0.4235 -1.4092
   70SLPC  H12Y 6081   2.385   1.982   9.221  1.7994 -1.2991  2.0616
   70SLPC  C313 6082   2.192   2.071   9.220  0.9601  0.8325  0.1696
   70SLPC  H13X 6083   2.233   2.175   9.224  0.7775  0.9472 -0.6975
   70SLPC  H13Y 6084   2.096   2.070   9.276  1.0197 -0.5534  0.2436
   70SLPC  C314 6085   2.176   2.059   9.067  0.4910  0.4924  0.5445
   70SLPC  H14X 6086   2.133   1.960   9.042  2.4872  0.3310 -2.5185
   70SLPC  H14Y 6087   2.280   2.065   9.029 -0.5359  0.4946 -2.4116
   70SLPC  C315 6088   2.084   2.168   8.991  0.1445 -0.0675 -0.0387
   70SLPC  H15X 6089   2.095   2.160   8.881  0.0683  0.7648 -0.1084
   70SLPC  H15Y 6090   2.126   2.262   9.034 -0.8010 -0.0022  0.7586
   70SLPC  C316 6091   1.936   2.163   9.030  0.0438 -0.4144 -0.0120
   70SLPC  H16X 6092   1.920   2.161   9.140 -0.5279  0.2985 -0.0845
   70SLPC  H16Y 6093   1.883   2.073   8.992 -0.6050 -1.3345  2.9198
   70SLPC  C317 6094   1.858   2.282   8.969  0.2454 -0.5341  1.1087
   70SLPC  H17X 6095   1.752   2.273   8.998  0.0870 -1.8176  0.1421
   70SLPC  H17Y 6096   1.880   2.270   8.861 -0.9049 -0.4005  0.8539
   70SLPC  C318 6097   1.905   2.423   9.012  0.6512 -0.0253  0.3468
   70SLPC  H18X 6098   2.013   2.449   9.002  0.7350  0.3441  2.1563
   70SLPC  H18Y 6099   1.884   2.427   9.121 -0.5312 -0.9008  0.1705
   70SLPC  H18Z 6100   1.854   2.505   8.956  0.9610 -0.6872 -0.9376
   71SLPC     N 6101   2.390   0.443  10.908 -0.1771 -0.1698 -0.6366
   71SLPC   C13 6102   2.269   0.434  10.983  0.3199  0.4896  0.1540
   71SLPC  H13A 6103   2.199   0.362  10.944  0.3277  1.4121 -1.6476
   71SLPC  H13B 6104   2.298   0.411  11.084 -1.1274  0.9987  0.6917
   71SLPC  H13C 6105   2.213   0.526  10.995 -1.3128 -0.3704 -0.7671
   71SLPC   C14 6106   2.463   0.312  10.907 -0.0147 -0.0177 -0.3687
   71SLPC  H14A 6107   2.466   0.261  11.002  1.5684 -0.1917 -0.4858
   71SLPC  H14B 6108   2.418   0.242  10.839  0.2304 -1.1209  0.5928
   71SLPC  H14C 6109   2.561   0.338  10.870 -0.0437  1.1133  0.3195
   71SLPC   C15 6110   2.486   0.542  10.976  0.4036  0.8888  0.5905
   71SLPC  H15A 6111   2.469   0.645  10.948  0.5930  0.6175 -0.5479
   71SLPC  H15B 6112   2.475   0.533  11.083 -1.0633  1.1455  0.4749
   71SLPC  H15C 6113   2.587   0.522  10.943 -0.4152 -0.4654 -1.2167
   71SLPC   C12 6114   2.373   0.492  10.773  0.0697  0.7336  0.1207
   71SLPC  H12A 6115   2.464   0.509  10.718 -0.0118 -0.8231 -0.5127
   71SLPC  H12B 6116   2.330   0.591  10.774 -1.8712 -0.0368 -1.9728
   71SLPC   C11 6117   2.283   0.410  10.677  0.1516  0.5073 -0.2581
   71SLPC  H11A 6118   2.252   0.466  10.586 -2.3570 -0.6149 -0.1431
   71SLPC  H11B 6119   2.183   0.404  10.725  1.0518 -1.1984  1.4835
   71SLPC     P 6120   2.455   0.263  10.549 -0.6145  0.2506 -0.3619
   71SLPC   O13 6121   2.572   0.343  10.599  0.1226  0.4347  0.3229
   71SLPC   O14 6122   2.481   0.121  10.524 -0.1762 -0.6681 -0.6977
   71SLPC   O12 6123   2.334   0.281  10.640  0.1507 -0.4306 -1.0837
   71SLPC   O11 6124   2.406   0.315  10.414 -0.3243 -0.0017 -0.4963
   71SLPC    C1 6125   2.287   0.255  10.356 -0.2016  0.1391 -0.1081
   71SLPC    HA 6126   2.307   0.148  10.336 -0.0525  0.2071 -0.3280
   71SLPC    HB 6127   2.195   0.252  10.418 -0.4661  0.0270 -0.5113
   71SLPC    C2 6128   2.252   0.321  10.214  0.4682 -0.0722 -0.2371
   71SLPC    HS 6129   2.164   0.263  10.179 -0.1626  0.6394  0.1229
   71SLPC   O21 6130   2.364   0.300  10.131  0.1386  1.0552 -0.1581
   71SLPC   C21 6131   2.358   0.185  10.072  0.3658 -0.4249  0.7013
   71SLPC   O22 6132   2.275   0.097  10.078  0.1340 -0.5727  0.9277
   71SLPC   C22 6133   2.474   0.177   9.974  0.8232 -0.9613  0.0306
   71SLPC   H2R 6134   2.528   0.273   9.991  0.7059 -0.7962 -0.5009
   71SLPC   H2S 6135   2.534   0.089  10.003 -0.1405 -1.4246  0.6595
   71SLPC    C3 6136   2.217   0.474  10.230 -0.2369  0.1523 -0.1692
   71SLPC    HX 6137   2.307   0.531  10.262 -1.3130  1.6015  0.3498
   71SLPC    HY 6138   2.146   0.506  10.309  0.5181  1.6574 -0.0761
   71SLPC   O31 6139   2.162   0.510  10.103  0.2606  0.7364  0.2823
   71SLPC   C31 6140   2.163   0.641  10.071  0.4730 -0.0653 -0.2297
   71SLPC   O32 6141   2.180   0.729  10.156 -0.1787 -0.3962 -0.3635
   71SLPC   C32 6142   2.123   0.671   9.932 -0.6297 -0.7107  0.5642
   71SLPC   H2X 6143   2.015   0.698   9.935  0.3426  3.5300  2.0243
   71SLPC   H2Y 6144   2.124   0.583   9.864 -2.3013 -0.5293  0.2645
   71SLPC   C23 6145   2.420   0.170   9.827  0.1879 -0.4250  0.0221
   71SLPC   H3R 6146   2.338   0.243   9.808  3.3793  2.8629 -1.7991
   71SLPC   H3S 6147   2.375   0.070   9.810 -1.8595  0.3775  0.5561
   71SLPC   C24 6148   2.539   0.182   9.728  1.0486  0.5646 -0.6844
   71SLPC   H4R 6149   2.627   0.115   9.743  1.2421  0.7681 -0.9066
   71SLPC   H4S 6150   2.574   0.287   9.725 -1.0729  1.4107  2.2573
   71SLPC   C25 6151   2.489   0.168   9.583  0.2821  0.1597  0.7135
   71SLPC   H5R 6152   2.418   0.247   9.550  0.9088  1.3533  2.1493
   71SLPC   H5S 6153   2.434   0.073   9.570 -1.3893  1.4500 -2.0716
   71SLPC   C26 6154   2.600   0.167   9.475  0.0772 -0.3151  0.2774
   71SLPC   H6R 6155   2.661   0.087   9.524 -1.3656 -1.2672  0.5642
   71SLPC   H6S 6156   2.660   0.260   9.474  1.2136 -1.0427 -0.0213
   71SLPC   C27 6157   2.543   0.127   9.341  0.6427  0.5926 -0.1874
   71SLPC   H7R 6158   2.470   0.203   9.305 -0.2268 -0.5571 -0.8540
   71SLPC   H7S 6159   2.488   0.031   9.347 -0.1126  1.1192  1.5669
   71SLPC   C28 6160   2.636   0.134   9.227  0.8490 -0.9098  0.6257
   71SLPC   H8R 6161   2.704   0.222   9.237  1.1973 -1.3239  1.9836
   71SLPC   H8S 6162   2.586   0.145   9.128 -0.2418  1.6571  1.4243
   71SLPC   C29 6163   2.721   0.010   9.236 -0.3952 -0.1838  0.4535
   71SLPC   H9R 6164   2.747  -0.019   9.339  2.0448 -1.1060 -0.3991
   71SLPC  C210 6165   2.762  -0.066   9.135 -0.4382  0.0182 -0.0310
   71SLPC  H10R 6166   2.815  -0.159   9.160  0.4897  0.5928  0.1916
   71SLPC  C211 6167   2.736  -0.051   8.985 -0.1555  0.3989 -0.2199
   71SLPC  H11R 6168   2.707   0.051   8.952 -1.4596 -0.3682 -1.5006
   71SLPC  H11S 6169   2.661  -0.126   8.949 -0.3594  0.0671  0.8805
   71SLPC  C212 6170   2.873  -0.057   8.915  0.5915  0.3308 -0.5658
   71SLPC  H12R 6171   2.953   0.005   8.958  0.4807  2.1301 -2.8867
   71SLPC  C213 6172   2.919  -0.148   8.826  0.3700 -0.3931  0.1050
   71SLPC  H13R 6173   3.011  -0.139   8.766 -0.8486 -0.3512 -1.7689
   71SLPC  C214 6174   2.828  -0.248   8.773  0.5263  0.7649  0.5169
   71SLPC  H14R 6175   2.774  -0.304   8.852  0.5690  1.8794  1.3366
   71SLPC  H14S 6176   2.887  -0.324   8.717 -1.1121 -0.8114  0.8808
   71SLPC  C215 6177   2.723  -0.189   8.680 -0.0807  0.2684  0.3382
   71SLPC  H15R 6178   2.769  -0.176   8.580 -0.2722  1.7181  0.4267
   71SLPC  H15S 6179   2.689  -0.089   8.713 -1.0480 -0.0130  0.1961
   71SLPC  C216 6180   2.595  -0.279   8.658 -0.3032  0.7530  0.5316
   71SLPC  H16R 6181   2.525  -0.217   8.598 -0.5427  0.7911  0.8505
   71SLPC  H16S 6182   2.555  -0.303   8.759 -0.1070 -1.9519 -0.0130
   71SLPC  C217 6183   2.620  -0.402   8.576 -0.7530  0.6028  0.3598
   71SLPC  H17R 6184   2.681  -0.474   8.634  1.0275  0.4023 -1.6596
   71SLPC  H17S 6185   2.673  -0.368   8.484  0.8494  0.1982  1.1127
   71SLPC  C218 6186   2.498  -0.479   8.527  0.9235  0.0302 -0.2804
   71SLPC  H18R 6187   2.428  -0.404   8.485  0.0002  0.1358  1.3985
   71SLPC  H18S 6188   2.447  -0.539   8.605  1.0560 -0.3672 -0.5008
   71SLPC  H18T 6189   2.535  -0.545   8.446 -0.4679 -0.2195 -0.7328
   71SLPC   C33 6190   2.181   0.804   9.866  0.8375 -0.3413 -0.5327
   71SLPC   H3X 6191   2.267   0.779   9.801  1.9874 -0.6571  1.0687
   71SLPC   H3Y 6192   2.208   0.876   9.947 -0.8858  0.5049 -0.6800
   71SLPC   C34 6193   2.073   0.880   9.784  0.5468  0.4204 -0.1209
   71SLPC   H4X 6194   2.113   0.971   9.734 -1.3790  1.0221 -0.5849
   71SLPC   H4Y 6195   1.987   0.911   9.847 -0.3233  1.3613 -1.7397
   71SLPC   C35 6196   2.003   0.800   9.673 -0.3767 -0.0322 -0.8173
   71SLPC   H5X 6197   1.905   0.851   9.658 -0.1594  1.1006  1.4266
   71SLPC   H5Y 6198   1.996   0.691   9.692 -0.1316 -0.1700 -1.4769
   71SLPC   C36 6199   2.078   0.815   9.540 -0.3707 -0.1934  0.1829
   71SLPC   H6X 6200   2.181   0.775   9.537  0.1113  1.1333 -3.0325
   71SLPC   H6Y 6201   2.065   0.922   9.515 -0.9843 -0.4621 -0.7094
   71SLPC   C37 6202   2.015   0.735   9.416 -0.0307 -0.0777 -0.2357
   71SLPC   H7X 6203   1.905   0.750   9.422 -0.2022 -0.9996 -1.0228
   71SLPC   H7Y 6204   2.042   0.631   9.443 -1.0201 -0.8607 -2.1998
   71SLPC   C38 6205   2.064   0.779   9.282  0.0392  0.3080  0.6756
   71SLPC   H8X 6206   2.036   0.696   9.214 -1.1225  1.3490 -0.1245
   71SLPC   H8Y 6207   2.175   0.782   9.280 -0.0180  2.5806  0.6451
   71SLPC   C39 6208   2.011   0.916   9.229  0.5155 -0.0397 -0.6341
   71SLPC   H9X 6209   2.016   0.998   9.303  1.6281 -1.6922  1.1649
   71SLPC   H9Y 6210   1.907   0.899   9.195 -0.8423 -0.2687  3.3685
   71SLPC  C310 6211   2.100   0.951   9.102 -0.3407  0.1563  0.5500
   71SLPC  H10X 6212   2.114   0.854   9.049  1.2917  0.1463  0.9810
   71SLPC  H10Y 6213   2.194   0.982   9.151  0.9260 -2.2430 -0.2905
   71SLPC  C311 6214   2.043   1.044   8.995 -0.0047  0.4589 -0.6866
   71SLPC  H11X 6215   2.019   1.137   9.052  1.7522 -0.5723  1.8034
   71SLPC  H11Y 6216   1.957   0.995   8.945  0.1720 -0.8049  0.2460
   71SLPC  C312 6217   2.154   1.080   8.892 -0.4132  0.1768  0.1874
   71SLPC  H12X 6218   2.149   0.989   8.829 -0.2262 -1.1218  2.0116
   71SLPC  H12Y 6219   2.250   1.074   8.949 -1.0773  0.4919  1.3595
   71SLPC  C313 6220   2.125   1.207   8.815  0.5022 -0.4198  0.2732
   71SLPC  H13X 6221   2.207   1.233   8.745  1.7465 -1.3683  1.3766
   71SLPC  H13Y 6222   2.112   1.289   8.889 -2.6989 -0.5340 -0.0793
   71SLPC  C314 6223   1.990   1.220   8.741  0.0591  0.2902  0.0399
   71SLPC  H14X 6224   1.913   1.201   8.819  0.5968 -2.1127  0.0140
   71SLPC  H14Y 6225   1.978   1.137   8.668  1.2099  0.8495 -0.8141
   71SLPC  C315 6226   1.956   1.353   8.685 -0.0186 -0.2362 -0.3704
   71SLPC  H15X 6227   2.031   1.382   8.609 -1.5202  1.5457 -1.2011
   71SLPC  H15Y 6228   1.975   1.424   8.768 -2.1587  1.2672 -1.1362
   71SLPC  C316 6229   1.819   1.353   8.616  0.7938 -0.7677  0.3493
   71SLPC  H16X 6230   1.748   1.333   8.699 -1.0188  0.6958 -0.8093
   71SLPC  H16Y 6231   1.826   1.279   8.534 -0.2070 -0.8835  0.3525
   71SLPC  C317 6232   1.781   1.494   8.556  0.3890  0.2228  0.0206
   71SLPC  H17X 6233   1.854   1.533   8.482  0.4975  2.7752  1.4329
   71SLPC  H17Y 6234   1.787   1.575   8.632  0.7356 -0.3027  0.5554
   71SLPC  C318 6235   1.644   1.490   8.496  0.6926 -0.0003 -0.4499
   71SLPC  H18X 6236   1.619   1.598   8.482 -0.6254 -0.2666 -0.2723
   71SLPC  H18Y 6237   1.578   1.445   8.573 -0.2320  0.3349 -1.0349
   71SLPC  H18Z 6238   1.633   1.427   8.405  0.4906 -0.7576  0.0934
   72SLPC     N 6239   2.788   5.242  11.127 -0.6037 -0.1619  0.0702
   72SLPC   C13 6240   2.719   5.125  11.059  0.3818  0.4751  0.6275
   72SLPC  H13A 6241   2.709   5.035  11.117  0.2126 -1.7417 -2.7442
   72SLPC  H13B 6242   2.618   5.158  11.037  0.5843 -0.1158 -1.2506
   72SLPC  H13C 6243   2.771   5.085  10.973  1.6971 -1.0229  2.0812
   72SLPC   C14 6244   2.928   5.207  11.188 -0.3820 -0.4024 -0.0804
   72SLPC  H14A 6245   2.982   5.287  11.236  0.6251  0.5423 -2.6495
   72SLPC  H14B 6246   2.910   5.133  11.264 -0.7839 -1.8597 -1.5451
   72SLPC  H14C 6247   3.005   5.177  11.119  0.2999 -2.4909  1.5574
   72SLPC   C15 6248   2.690   5.286  11.228  0.4241 -0.0301 -0.4424
   72SLPC  H15A 6249   2.600   5.314  11.175  0.8252  1.0262 -0.5800
   72SLPC  H15B 6250   2.649   5.209  11.291  2.4432  0.9356  2.1278
   72SLPC  H15C 6251   2.723   5.370  11.287 -0.3361  0.4842 -0.7347
   72SLPC   C12 6252   2.812   5.365  11.030  0.4775  0.5795  0.2053
   72SLPC  H12A 6253   2.877   5.440  11.073 -0.3720  1.0886  0.6157
   72SLPC  H12B 6254   2.717   5.416  11.031 -0.8056 -1.6795 -1.4005
   72SLPC   C11 6255   2.859   5.338  10.887  0.4022  0.8232 -0.2534
   72SLPC  H11A 6256   2.868   5.426  10.821  0.3930  0.2984 -0.9528
   72SLPC  H11B 6257   2.774   5.287  10.837  0.6275  1.3050 -1.1152
   72SLPC     P 6258   3.120   5.305  10.915 -0.2441 -0.3942  0.2675
   72SLPC   O13 6259   3.107   5.443  10.965  0.1206 -0.6551  0.1130
   72SLPC   O14 6260   3.193   5.219  11.008  0.3269  0.3762 -0.7671
   72SLPC   O12 6261   2.976   5.245  10.894  0.2646 -0.0504 -0.0436
   72SLPC   O11 6262   3.190   5.305  10.778  0.3369  0.4442 -0.3224
   72SLPC    C1 6263   3.174   5.401  10.670 -0.1182 -0.2444  0.2257
   72SLPC    HA 6264   3.128   5.494  10.708  2.0013  0.6745  0.6436
   72SLPC    HB 6265   3.277   5.412  10.628  0.6058 -0.7882  1.8278
   72SLPC    C2 6266   3.081   5.345  10.563 -0.4577  0.4119  0.8209
   72SLPC    HS 6267   2.982   5.332  10.613 -0.8141 -3.6774 -0.8108
   72SLPC   O21 6268   3.128   5.205  10.530 -0.2842 -0.4937  0.1497
   72SLPC   C21 6269   3.043   5.139  10.459  0.2312  0.0469  0.3260
   72SLPC   O22 6270   2.922   5.164  10.459 -0.4240 -0.0265 -0.5158
   72SLPC   C22 6271   3.108   5.031  10.370  0.5766  0.7280 -0.4240
   72SLPC   H2R 6272   3.207   5.075  10.345 -0.0697  2.5882  0.1404
   72SLPC   H2S 6273   3.127   4.938  10.428 -1.9239 -0.2544 -1.0977
   72SLPC    C3 6274   3.086   5.436  10.443 -0.0256  0.4162  0.5146
   72SLPC    HX 6275   3.044   5.538  10.456  1.8615  0.9820  2.4471
   72SLPC    HY 6276   3.021   5.392  10.365  1.1589 -1.2414  0.4272
   72SLPC   O31 6277   3.222   5.442  10.394  0.7301  0.1783  0.2674
   72SLPC   C31 6278   3.243   5.530  10.298 -0.4227  0.2369  0.1832
   72SLPC   O32 6279   3.164   5.606  10.248  0.5937  0.0578  0.7816
   72SLPC   C32 6280   3.396   5.516  10.268 -0.2604 -0.1190 -0.0301
   72SLPC   H2X 6281   3.420   5.414  10.230  0.5791 -0.7911  2.2214
   72SLPC   H2Y 6282   3.450   5.537  10.363  1.1155 -1.7739 -0.4121
   72SLPC   C23 6283   3.024   4.992  10.246  1.0603  0.1514 -0.7107
   72SLPC   H3R 6284   2.917   4.980  10.274  1.4662  1.6900  1.5762
   72SLPC   H3S 6285   3.069   4.896  10.211  2.7353  0.9004 -0.6620
   72SLPC   C24 6286   3.028   5.097  10.128 -0.0606  0.4214 -0.5153
   72SLPC   H4R 6287   3.001   5.194  10.175  1.2549  0.5591 -0.0422
   72SLPC   H4S 6288   2.946   5.070  10.057 -0.3529 -1.0129  0.3469
   72SLPC   C25 6289   3.163   5.111  10.064  0.2315 -0.7438 -0.6844
   72SLPC   H5R 6290   3.221   5.017  10.075  1.6843  0.1551 -0.6364
   72SLPC   H5S 6291   3.234   5.182  10.112 -0.1940 -1.5592  1.1959
   72SLPC   C26 6292   3.160   5.154   9.911 -0.0503  0.1777 -0.1317
   72SLPC   H6R 6293   3.095   5.243   9.897 -1.7848 -0.9478  0.6629
   72SLPC   H6S 6294   3.130   5.072   9.843  0.9175  0.5642 -1.0409
   72SLPC   C27 6295   3.300   5.206   9.871 -0.4412  0.7666  0.6449
   72SLPC   H7R 6296   3.314   5.300   9.930 -1.3533  1.0734  0.3918
   72SLPC   H7S 6297   3.301   5.240   9.765 -2.0080  0.5436  0.5555
   72SLPC   C28 6298   3.408   5.107   9.878 -0.1783 -0.1668  0.0214
   72SLPC   H8R 6299   3.375   5.003   9.858  1.5400 -0.3928 -1.7088
   72SLPC   H8S 6300   3.430   5.095   9.987 -3.1188 -2.5903  0.4088
   72SLPC   C29 6301   3.534   5.155   9.813 -0.4096  0.0592 -0.5090
   72SLPC   H9R 6302   3.624   5.173   9.873 -1.1545  1.6722  0.1594
   72SLPC  C210 6303   3.547   5.163   9.679  0.5106  1.6949 -0.4556
   72SLPC  H10R 6304   3.642   5.199   9.638  1.5367  0.7617  1.0617
   72SLPC  C211 6305   3.438   5.130   9.572 -0.7765 -0.1969 -0.3452
   72SLPC  H11R 6306   3.411   5.225   9.521  0.5363  1.0952  1.3156
   72SLPC  H11S 6307   3.343   5.099   9.622 -1.0619 -0.5751 -1.1121
   72SLPC  C212 6308   3.485   5.013   9.486  0.0296  0.0706 -0.3137
   72SLPC  H12R 6309   3.524   4.926   9.540 -2.7287 -1.3799 -0.5693
   72SLPC  C213 6310   3.463   5.011   9.354  0.0987  0.4928  0.6576
   72SLPC  H13R 6311   3.499   4.922   9.300  0.6203  1.0952  0.0017
   72SLPC  C214 6312   3.379   5.104   9.263  0.2482 -0.2765  1.0575
   72SLPC  H14R 6313   3.346   5.195   9.317 -0.9151 -0.7138  1.0922
   72SLPC  H14S 6314   3.292   5.047   9.224  2.1989 -0.4027 -3.4000
   72SLPC  C215 6315   3.471   5.142   9.143 -0.1533 -0.0645  0.6045
   72SLPC  H15R 6316   3.551   5.214   9.172 -0.2812 -0.0665  0.9780
   72SLPC  H15S 6317   3.414   5.200   9.067  0.9139 -0.2729 -0.3643
   72SLPC  C216 6318   3.536   5.029   9.072  0.3414 -0.3768  0.5862
   72SLPC  H16R 6319   3.469   4.944   9.044  3.2549 -2.3525 -0.6494
   72SLPC  H16S 6320   3.618   4.978   9.127  0.3439 -2.8897 -1.6678
   72SLPC  C217 6321   3.595   5.079   8.940  0.1545 -0.0992  0.2925
   72SLPC  H17R 6322   3.658   5.168   8.963 -1.1227  0.2757  2.5189
   72SLPC  H17S 6323   3.516   5.116   8.871  1.1418  0.6071 -0.4913
   72SLPC  C218 6324   3.692   4.977   8.877 -0.3797 -0.6970 -0.3519
   72SLPC  H18R 6325   3.761   4.950   8.960  0.9068 -4.2820 -2.4826
   72SLPC  H18S 6326   3.752   5.024   8.796 -1.4544  0.1401 -0.6725
   72SLPC  H18T 6327   3.649   4.881   8.844  1.3717 -2.0148  1.0990
   72SLPC   C33 6328   3.446   5.613  10.155  0.0870  0.4920  0.3911
   72SLPC   H3X 6329   3.553   5.640  10.149 -0.3243  2.3821  1.1015
   72SLPC   H3Y 6330   3.393   5.710  10.155 -1.1956 -0.1901 -1.3878
   72SLPC   C34 6331   3.421   5.545  10.023  0.2618  0.2419 -0.4084
   72SLPC   H4X 6332   3.317   5.507  10.026  0.6014 -0.5843  1.1233
   72SLPC   H4Y 6333   3.477   5.449  10.019  0.8874  0.6711 -2.5597
   72SLPC   C35 6334   3.457   5.625   9.899  0.0750 -0.0817 -0.2117
   72SLPC   H5X 6335   3.567   5.641   9.905  0.0529  0.0090 -0.0354
   72SLPC   H5Y 6336   3.401   5.721   9.898  0.2015  0.0799  2.3875
   72SLPC   C36 6337   3.421   5.549   9.772  0.1563  0.6590 -0.5355
   72SLPC   H6X 6338   3.314   5.519   9.773  0.7422 -1.8637 -3.5254
   72SLPC   H6Y 6339   3.475   5.452   9.756 -0.6069  0.2221 -0.4736
   72SLPC   C37 6340   3.439   5.634   9.647 -0.2750  0.3306 -0.0171
   72SLPC   H7X 6341   3.540   5.679   9.643 -0.1472  0.0461 -0.0242
   72SLPC   H7Y 6342   3.374   5.723   9.659 -1.5406 -0.4531 -0.8563
   72SLPC   C38 6343   3.409   5.565   9.515 -0.8391 -0.2676  0.1105
   72SLPC   H8X 6344   3.310   5.516   9.508 -0.4103 -1.1274  0.0837
   72SLPC   H8Y 6345   3.485   5.486   9.504 -1.7476 -1.7031  3.3467
   72SLPC   C39 6346   3.424   5.664   9.399 -0.0482 -0.6911 -0.3325
   72SLPC   H9X 6347   3.506   5.734   9.427 -0.5098  0.1679 -1.1027
   72SLPC   H9Y 6348   3.332   5.726   9.398  0.9347  0.7735 -1.5923
   72SLPC  C310 6349   3.444   5.595   9.263 -0.3163  0.5240  0.2500
   72SLPC  H10X 6350   3.356   5.526   9.257  0.4489 -0.5096  0.7501
   72SLPC  H10Y 6351   3.538   5.536   9.266  0.0841  1.1126 -0.6750
   72SLPC  C311 6352   3.445   5.684   9.143 -0.0199  0.1550 -0.4796
   72SLPC  H11X 6353   3.508   5.771   9.171 -2.4139  1.8254 -0.1711
   72SLPC  H11Y 6354   3.342   5.719   9.119 -0.0141  2.5085  2.7060
   72SLPC  C312 6355   3.501   5.633   9.003 -0.2261 -0.3730  0.1061
   72SLPC  H12X 6356   3.596   5.582   9.033 -1.2306 -1.9453  0.6543
   72SLPC  H12Y 6357   3.536   5.726   8.953  0.0390 -1.5058 -1.8908
   72SLPC  C313 6358   3.410   5.552   8.915  0.0558  0.0415  0.7530
   72SLPC  H13X 6359   3.307   5.590   8.901 -0.5805 -2.0814 -0.7171
   72SLPC  H13Y 6360   3.410   5.464   8.983  1.0966  0.8640  1.8389
   72SLPC  C314 6361   3.481   5.517   8.786 -0.9650  0.0556 -0.3109
   72SLPC  H14X 6362   3.589   5.513   8.812 -0.9898  0.1705 -0.1896
   72SLPC  H14Y 6363   3.464   5.599   8.713  1.0422  0.1009 -0.7495
   72SLPC  C315 6364   3.432   5.388   8.725  0.4845 -0.1402 -0.5948
   72SLPC  H15X 6365   3.454   5.298   8.785  0.9700 -0.1303 -0.7534
   72SLPC  H15Y 6366   3.483   5.379   8.626  0.5354  0.5618 -0.6331
   72SLPC  C316 6367   3.275   5.385   8.709 -0.0564 -1.1820 -0.0052
   72SLPC  H16X 6368   3.251   5.462   8.632  1.6531 -2.0289 -1.4130
   72SLPC  H16Y 6369   3.226   5.412   8.805  1.3748 -1.7650  0.9083
   72SLPC  C317 6370   3.215   5.255   8.662  0.0602 -0.1903 -0.3533
   72SLPC  H17X 6371   3.183   5.189   8.745 -0.6549  0.1916 -0.3214
   72SLPC  H17Y 6372   3.284   5.189   8.605  0.2032  0.4003 -0.8740
   72SLPC  C318 6373   3.101   5.280   8.564 -0.2740  0.3401  0.5969
   72SLPC  H18X 6374   3.060   5.182   8.531 -0.6293  0.5057  0.5520
   72SLPC  H18Y 6375   3.122   5.353   8.483  0.4435  0.8838  1.2663
   72SLPC  H18Z 6376   3.026   5.326   8.632 -0.7461 -1.1649  1.1261
   73SLPC     N 6377   3.639   3.741  11.239  0.3671  0.9196  0.2936
   73SLPC   C13 6378   3.507   3.706  11.187 -0.3125 -0.1224  0.6887
   73SLPC  H13A 6379   3.438   3.789  11.195  0.9302  0.7959  2.2857
   73SLPC  H13B 6380   3.502   3.683  11.082  3.5511 -1.5350  0.7632
   73SLPC  H13C 6381   3.462   3.619  11.233 -3.1620  0.2796 -1.1545
   73SLPC   C14 6382   3.719   3.626  11.195 -0.0594 -0.4906 -0.3332
   73SLPC  H14A 6383   3.826   3.631  11.208 -0.0679  1.8787 -0.8789
   73SLPC  H14B 6384   3.686   3.542  11.255  0.8956 -0.4761  0.2395
   73SLPC  H14C 6385   3.707   3.611  11.089 -1.7120  3.0575 -0.7199
   73SLPC   C15 6386   3.622   3.762  11.389 -0.7324 -0.0155 -0.1700
   73SLPC  H15A 6387   3.559   3.847  11.410  0.1279  0.2811  1.2342
   73SLPC  H15B 6388   3.583   3.671  11.434  0.6406 -0.4954  0.0606
   73SLPC  H15C 6389   3.715   3.785  11.438 -1.6357 -1.6407  2.4127
   73SLPC   C12 6390   3.687   3.868  11.173 -0.4658 -0.7597  0.2547
   73SLPC  H12A 6391   3.724   3.845  11.074 -0.6704  0.3479 -0.0833
   73SLPC  H12B 6392   3.771   3.905  11.230 -1.4339  0.2134  1.0654
   73SLPC   C11 6393   3.586   3.984  11.156  0.4076  0.0031  0.1906
   73SLPC  H11A 6394   3.628   4.082  11.123  0.2277 -0.8688 -2.7425
   73SLPC  H11B 6395   3.531   4.012  11.248  1.1963  0.6261  0.4760
   73SLPC     P 6396   3.507   3.940  10.902 -0.1831 -0.1712  0.3163
   73SLPC   O13 6397   3.470   4.073  10.849 -0.0388 -0.8349  0.0527
   73SLPC   O14 6398   3.641   3.890  10.870 -0.0736 -0.3401  0.0469
   73SLPC   O12 6399   3.486   3.951  11.055 -0.5806  0.5353 -0.9421
   73SLPC   O11 6400   3.391   3.835  10.870  0.0614 -0.4442  0.3747
   73SLPC    C1 6401   3.405   3.701  10.818  0.0229 -0.2713  0.5269
   73SLPC    HA 6402   3.484   3.647  10.874  1.3085  1.4065  0.3526
   73SLPC    HB 6403   3.316   3.634  10.819  0.1832 -0.5560 -1.3318
   73SLPC    C2 6404   3.440   3.707  10.657  0.2306  0.1837 -0.4675
   73SLPC    HS 6405   3.527   3.776  10.663 -0.5843  1.1005  0.9874
   73SLPC   O21 6406   3.323   3.763  10.596 -0.0457  0.3292  0.1908
   73SLPC   C21 6407   3.338   3.835  10.484 -0.1513 -0.5229  0.2495
   73SLPC   O22 6408   3.446   3.854  10.428 -0.3903 -1.0005 -0.0551
   73SLPC   C22 6409   3.203   3.879  10.425 -0.0722 -0.4425 -0.5000
   73SLPC   H2R 6410   3.145   3.798  10.377 -2.2866 -1.2623  3.3354
   73SLPC   H2S 6411   3.145   3.906  10.516 -0.0365  0.1921 -0.6614
   73SLPC    C3 6412   3.469   3.563  10.605  0.5338  0.1239 -0.0321
   73SLPC    HX 6413   3.379   3.504  10.634  0.3749  0.4055  0.0453
   73SLPC    HY 6414   3.547   3.511  10.665 -0.5706 -3.6166 -1.6431
   73SLPC   O31 6415   3.506   3.546  10.463 -0.2293  0.9057  0.2600
   73SLPC   C31 6416   3.626   3.591  10.424  0.6359 -0.0983 -0.5223
   73SLPC   O32 6417   3.702   3.652  10.499 -0.2141  0.4757 -0.3025
   73SLPC   C32 6418   3.662   3.567  10.283  0.2827 -0.0544  0.2113
   73SLPC   H2X 6419   3.697   3.462  10.270 -0.5210 -0.0915 -1.7542
   73SLPC   H2Y 6420   3.750   3.630  10.259  1.2477 -1.1014  0.9393
   73SLPC   C23 6421   3.235   4.002  10.337 -0.3757  0.1136  0.1217
   73SLPC   H3R 6422   3.315   4.064  10.382  0.2505 -2.4438  2.7453
   73SLPC   H3S 6423   3.147   4.069  10.340  1.3279  2.3889  0.2827
   73SLPC   C24 6424   3.266   3.974  10.193 -0.1918  0.2784  0.9247
   73SLPC   H4R 6425   3.182   3.924  10.140 -0.7150  0.9285  1.1456
   73SLPC   H4S 6426   3.349   3.900  10.188 -0.0813  0.4780 -0.4290
   73SLPC   C25 6427   3.315   4.106  10.122  0.0921  0.4224  0.3301
   73SLPC   H5R 6428   3.405   4.141  10.176  0.1384 -0.2476  0.6893
   73SLPC   H5S 6429   3.229   4.174  10.142 -0.0850  0.4885 -0.6269
   73SLPC   C26 6430   3.335   4.096   9.968  0.6215 -0.3343  0.3063
   73SLPC   H6R 6431   3.366   3.989   9.965 -1.7476 -1.0299 -0.3260
   73SLPC   H6S 6432   3.408   4.165   9.920 -0.3445 -0.3272 -1.1908
   73SLPC   C27 6433   3.201   4.080   9.878 -0.0326  0.5434 -0.4714
   73SLPC   H7R 6434   3.135   4.168   9.897  0.4488  0.6452  0.7644
   73SLPC   H7S 6435   3.155   3.985   9.912  0.3330  0.1047 -1.2018
   73SLPC   C28 6436   3.235   4.085   9.728  1.1914 -0.3973 -0.2055
   73SLPC   H8R 6437   3.164   4.037   9.657  0.7129 -0.0231  0.0183
   73SLPC   H8S 6438   3.332   4.033   9.711  1.9520 -0.0703  2.9404
   73SLPC   C29 6439   3.268   4.226   9.675  0.1638  0.0526 -0.4103
   73SLPC   H9R 6440   3.352   4.279   9.723 -0.5208  1.8207 -1.1411
   73SLPC  C210 6441   3.233   4.283   9.555 -0.0043 -0.3492 -0.5853
   73SLPC  H10R 6442   3.268   4.385   9.536 -1.8923  0.3880 -0.2779
   73SLPC  C211 6443   3.136   4.222   9.456 -0.6016 -0.1192 -0.3048
   73SLPC  H11R 6444   3.083   4.299   9.396  1.0620  2.9994  2.0690
   73SLPC  H11S 6445   3.055   4.175   9.515 -2.3540  1.2801 -1.5288
   73SLPC  C212 6446   3.197   4.114   9.375  0.5312  0.6022  0.3193
   73SLPC  H12R 6447   3.167   4.014   9.409 -0.6090  0.7803 -0.1382
   73SLPC  C213 6448   3.284   4.121   9.273 -0.1538 -0.0361 -1.4419
   73SLPC  H13R 6449   3.313   4.030   9.218  2.6860 -1.1148  1.6939
   73SLPC  C214 6450   3.333   4.255   9.225 -0.2870 -0.6730  0.6781
   73SLPC  H14R 6451   3.443   4.257   9.240 -0.0609  3.4605 -0.9495
   73SLPC  H14S 6452   3.293   4.343   9.278  0.9302  1.0280 -1.1415
   73SLPC  C215 6453   3.309   4.266   9.071 -0.4223 -0.0149 -0.9395
   73SLPC  H15R 6454   3.352   4.174   9.025  1.0898 -0.0748  0.5399
   73SLPC  H15S 6455   3.368   4.353   9.034  0.3239  0.2266  0.7728
   73SLPC  C216 6456   3.163   4.272   9.022 -0.1455 -0.3315 -0.1408
   73SLPC  H16R 6457   3.117   4.370   9.047  1.8739 -0.1219  3.0126
   73SLPC  H16S 6458   3.100   4.202   9.081 -0.8203 -0.5481 -1.1030
   73SLPC  C217 6459   3.152   4.238   8.876 -0.0226  0.1137 -0.3406
   73SLPC  H17R 6460   3.221   4.153   8.857 -0.5332 -0.6061  0.9981
   73SLPC  H17S 6461   3.181   4.325   8.814 -0.5116  1.2664  1.0309
   73SLPC  C218 6462   3.017   4.194   8.835  0.0717  0.0320 -0.1012
   73SLPC  H18R 6463   2.999   4.085   8.825 -0.2040  0.0144  0.5575
   73SLPC  H18S 6464   3.004   4.225   8.729  1.3024 -0.0823 -0.2925
   73SLPC  H18T 6465   2.942   4.240   8.903  0.0516 -0.7064  0.3804
   73SLPC   C33 6466   3.546   3.597  10.191  0.0324  0.0002  0.2117
   73SLPC   H3X 6467   3.496   3.689  10.230 -0.1576 -0.6042  1.4069
   73SLPC   H3Y 6468   3.470   3.518  10.203  0.0227  0.0410  0.4212
   73SLPC   C34 6469   3.603   3.607  10.045 -0.4137  0.2427  0.2690
   73SLPC   H4X 6470   3.640   3.515   9.994 -2.7798  0.6323 -2.2561
   73SLPC   H4Y 6471   3.685   3.681  10.041 -0.0847 -0.2238 -2.0832
   73SLPC   C35 6472   3.492   3.665   9.963 -0.9023  0.5218 -0.3239
   73SLPC   H5X 6473   3.483   3.771   9.993  1.9100  0.1106  2.2448
   73SLPC   H5Y 6474   3.399   3.607   9.982 -0.6347  0.2936  0.2809
   73SLPC   C36 6475   3.521   3.667   9.815  0.0529 -0.0689 -0.3939
   73SLPC   H6X 6476   3.536   3.572   9.759 -0.1640 -0.0960 -0.4075
   73SLPC   H6Y 6477   3.610   3.732   9.797 -0.7762  0.5828 -2.3684
   73SLPC   C37 6478   3.401   3.741   9.745 -0.9768  0.9797 -0.1236
   73SLPC   H7X 6479   3.407   3.849   9.771  1.2074  1.1750 -1.4022
   73SLPC   H7Y 6480   3.309   3.696   9.790 -1.4504  0.8106 -1.2382
   73SLPC   C38 6481   3.406   3.726   9.593 -0.5957 -0.4607  0.1744
   73SLPC   H8X 6482   3.398   3.618   9.566  4.4574 -0.2268 -2.9637
   73SLPC   H8Y 6483   3.506   3.759   9.560 -0.4410 -0.6978  0.4068
   73SLPC   C39 6484   3.293   3.804   9.521  0.7786  0.1513 -0.0720
   73SLPC   H9X 6485   3.337   3.905   9.503  0.4480  0.2186 -0.5243
   73SLPC   H9Y 6486   3.199   3.804   9.580  1.1676  0.3560  0.5454
   73SLPC  C310 6487   3.247   3.726   9.390 -0.7316  0.3329  0.5430
   73SLPC  H10X 6488   3.159   3.786   9.358 -1.2250 -1.3925 -1.4356
   73SLPC  H10Y 6489   3.218   3.624   9.422 -0.2791  0.6324  1.9444
   73SLPC  C311 6490   3.349   3.721   9.276 -0.1401  0.2485 -0.0634
   73SLPC  H11X 6491   3.422   3.643   9.308  1.0630  1.2734 -0.2556
   73SLPC  H11Y 6492   3.400   3.820   9.268 -0.4208  0.4554  0.6797
   73SLPC  C312 6493   3.295   3.682   9.133 -0.4353 -0.2568  0.3097
   73SLPC  H12X 6494   3.263   3.576   9.126 -1.1441  0.0707 -1.5291
   73SLPC  H12Y 6495   3.376   3.699   9.059  0.2217  0.1159  1.0979
   73SLPC  C313 6496   3.169   3.763   9.093 -0.1107 -0.4801 -0.2766
   73SLPC  H13X 6497   3.165   3.848   9.164  0.6201 -0.5244 -0.1725
   73SLPC  H13Y 6498   3.073   3.709   9.106  0.8272 -2.2166 -0.3966
   73SLPC  C314 6499   3.173   3.813   8.946 -0.3246  0.7831  1.0922
   73SLPC  H14X 6500   3.272   3.864   8.943  0.9319 -1.6231  0.8136
   73SLPC  H14Y 6501   3.094   3.889   8.927 -0.4297  0.1823 -0.9986
   73SLPC  C315 6502   3.175   3.697   8.846  0.8301 -0.5031  0.5293
   73SLPC  H15X 6503   3.219   3.599   8.875 -0.5637 -0.6846  2.0538
   73SLPC  H15Y 6504   3.237   3.717   8.756  2.5649 -0.7634  1.6335
   73SLPC  C316 6505   3.026   3.666   8.798 -0.7054  0.9258  0.5170
   73SLPC  H16X 6506   2.980   3.733   8.721 -1.7896 -2.5592 -2.0295
   73SLPC  H16Y 6507   2.961   3.666   8.888 -1.8047 -0.7895 -0.2473
   73SLPC  C317 6508   3.001   3.519   8.736  1.1530 -0.2084  0.1433
   73SLPC  H17X 6509   2.891   3.507   8.727  0.9933  0.9620  0.3999
   73SLPC  H17Y 6510   3.034   3.442   8.809  0.1735 -2.0644 -1.3231
   73SLPC  C318 6511   3.070   3.490   8.600  0.0810  0.2254 -0.5281
   73SLPC  H18X 6512   3.049   3.553   8.511 -0.2618 -1.4501 -1.6455
   73SLPC  H18Y 6513   3.060   3.382   8.579 -0.8271  0.3633 -0.8565
   73SLPC  H18Z 6514   3.176   3.515   8.620  0.3081 -0.3014 -1.0894
   74SLPC     N 6515   4.420   5.949  10.469  0.9541  0.2341 -0.6268
   74SLPC   C13 6516   4.278   5.971  10.508 -0.2723  0.3177  0.4822
   74SLPC  H13A 6517   4.257   6.061  10.565 -0.1918 -1.9290  4.2262
   74SLPC  H13B 6518   4.210   5.978  10.424 -1.3491 -1.2292  1.2168
   74SLPC  H13C 6519   4.245   5.900  10.582 -0.2155 -1.0681 -0.8099
   74SLPC   C14 6520   4.505   5.993  10.579 -0.2488 -0.0178 -0.5049
   74SLPC  H14A 6521   4.488   6.098  10.600 -1.3967  0.0900 -1.8755
   74SLPC  H14B 6522   4.486   5.928  10.663 -1.6126  0.8102 -0.1464
   74SLPC  H14C 6523   4.610   5.985  10.558  0.0347 -0.3957  0.9927
   74SLPC   C15 6524   4.446   6.030  10.338 -0.0400  0.2663 -0.0814
   74SLPC  H15A 6525   4.543   6.007  10.297 -0.2855 -3.1044  1.1403
   74SLPC  H15B 6526   4.379   5.998  10.260 -1.1614 -0.4015  1.1359
   74SLPC  H15C 6527   4.429   6.131  10.374  2.5273  0.2038  1.4389
   74SLPC   C12 6528   4.452   5.803  10.436 -0.5358  0.1374 -0.1849
   74SLPC  H12A 6529   4.552   5.805  10.396  0.3212  1.4845  1.9220
   74SLPC  H12B 6530   4.386   5.760  10.362 -0.8360 -1.0740  0.7540
   74SLPC   C11 6531   4.457   5.694  10.551  0.4097  0.4598  0.3452
   74SLPC  H11A 6532   4.453   5.596  10.500 -1.2632  1.6196 -1.8334
   74SLPC  H11B 6533   4.359   5.696  10.603  1.0326 -0.2705  1.5767
   74SLPC     P 6534   4.714   5.646  10.595 -0.3060  0.3264 -0.0067
   74SLPC   O13 6535   4.820   5.748  10.613  0.2581  0.3858  0.1967
   74SLPC   O14 6536   4.728   5.519  10.662  0.0089  0.0872 -0.8401
   74SLPC   O12 6537   4.577   5.712  10.638  0.3951  0.1182  0.1171
   74SLPC   O11 6538   4.693   5.634  10.438  0.0238  0.2788 -0.1160
   74SLPC    C1 6539   4.741   5.525  10.358 -0.1471 -0.6837 -0.1396
   74SLPC    HA 6540   4.708   5.425  10.393 -0.9608 -1.3866 -2.7416
   74SLPC    HB 6541   4.690   5.530  10.259  1.2855 -0.5032 -0.8785
   74SLPC    C2 6542   4.892   5.542  10.339 -0.2489 -0.4968 -0.4459
   74SLPC    HS 6543   4.934   5.535  10.442 -1.3227 -1.9778 -0.0849
   74SLPC   O21 6544   4.913   5.666  10.279  0.3535  0.1919 -0.2071
   74SLPC   C21 6545   5.023   5.727  10.307  0.1811 -0.2654 -0.2328
   74SLPC   O22 6546   5.109   5.694  10.389 -0.2765 -0.5471  0.3893
   74SLPC   C22 6547   5.038   5.854  10.222 -0.0860  0.3020 -0.6207
   74SLPC   H2R 6548   4.957   5.925  10.251 -1.1641 -0.9787 -0.4308
   74SLPC   H2S 6549   5.136   5.898  10.248 -0.0053 -1.7454  2.8720
   74SLPC    C3 6550   4.963   5.431  10.258  0.2423  0.3567 -0.3904
   74SLPC    HX 6551   4.961   5.336  10.315 -2.3275  0.2441 -0.6039
   74SLPC    HY 6552   5.069   5.460  10.245  0.1936  0.4374 -0.6018
   74SLPC   O31 6553   4.907   5.425  10.118  0.2193  0.2092 -1.3968
   74SLPC   C31 6554   4.820   5.333  10.094  1.0923  0.5458  0.2471
   74SLPC   O32 6555   4.784   5.253  10.175 -0.1080  0.1898 -0.5024
   74SLPC   C32 6556   4.776   5.342   9.946 -0.0918  0.6042 -0.4760
   74SLPC   H2X 6557   4.875   5.329   9.896  0.1193  0.9558 -0.1547
   74SLPC   H2Y 6558   4.723   5.439   9.930  1.2355  1.4943  0.3693
   74SLPC   C23 6559   5.028   5.821  10.078  0.2068  0.8857 -0.4390
   74SLPC   H3R 6560   5.059   5.916  10.030 -0.5626  1.0689 -0.5816
   74SLPC   H3S 6561   4.925   5.792  10.047 -0.0978  0.1599  1.1575
   74SLPC   C24 6562   5.120   5.704  10.037  0.2183 -0.9822 -0.4594
   74SLPC   H4R 6563   5.074   5.608  10.068 -1.7818 -0.0173 -0.3855
   74SLPC   H4S 6564   5.218   5.716  10.088 -0.7964  1.0936  1.1056
   74SLPC   C25 6565   5.147   5.685   9.886 -0.4595  0.2022 -0.4597
   74SLPC   H5R 6566   5.250   5.645   9.876 -0.2011 -0.0801  2.7300
   74SLPC   H5S 6567   5.144   5.778   9.825 -0.9616 -0.4849 -1.4872
   74SLPC   C26 6568   5.066   5.574   9.821  0.1935 -0.2191 -0.0209
   74SLPC   H6R 6569   4.962   5.610   9.806  1.3699  2.5036 -2.0135
   74SLPC   H6S 6570   5.060   5.482   9.884 -1.9642  0.6413  1.0948
   74SLPC   C27 6571   5.132   5.530   9.689  0.1079  0.1694  0.0018
   74SLPC   H7R 6572   5.226   5.487   9.728 -0.0003 -0.1560 -0.0952
   74SLPC   H7S 6573   5.144   5.611   9.614 -0.6531 -0.4435 -0.8103
   74SLPC   C28 6574   5.044   5.414   9.620 -0.9888 -0.0063 -0.8487
   74SLPC   H8R 6575   4.963   5.469   9.567 -2.8517 -0.7339  1.1681
   74SLPC   H8S 6576   5.004   5.351   9.702  1.3392  1.9520  1.8738
   74SLPC   C29 6577   5.126   5.337   9.524 -0.0134  0.3809 -0.1449
   74SLPC   H9R 6578   5.187   5.258   9.570  1.7870  0.1832 -2.7283
   74SLPC  C210 6579   5.141   5.362   9.387 -0.7290  0.2966  0.9848
   74SLPC  H10R 6580   5.202   5.308   9.313 -1.7394  1.4633 -0.7346
   74SLPC  C211 6581   5.065   5.471   9.305 -0.1141  0.6447 -0.0714
   74SLPC  H11R 6582   4.964   5.488   9.348  0.6519 -0.4666  2.3251
   74SLPC  H11S 6583   5.058   5.440   9.199  1.2026 -0.2052  0.0674
   74SLPC  C212 6584   5.148   5.594   9.314  0.2557 -0.3101 -0.3332
   74SLPC  H12R 6585   5.128   5.660   9.400 -0.9663 -1.9327  0.6647
   74SLPC  C213 6586   5.225   5.653   9.222  0.1035  0.7300  0.4664
   74SLPC  H13R 6587   5.277   5.747   9.246 -0.8843  1.3541  0.1923
   74SLPC  C214 6588   5.263   5.585   9.095  0.2683  0.1514 -0.0513
   74SLPC  H14R 6589   5.285   5.477   9.109 -0.3663 -0.2484 -1.9496
   74SLPC  H14S 6590   5.360   5.629   9.065  1.2304 -0.5613  1.9126
   74SLPC  C215 6591   5.164   5.603   8.983  0.1103  0.4302  0.4653
   74SLPC  H15R 6592   5.179   5.692   8.917 -0.2869 -0.2582 -0.5683
   74SLPC  H15S 6593   5.070   5.619   9.039  0.1068 -0.0100  0.5809
   74SLPC  C216 6594   5.169   5.475   8.894 -0.0951 -0.1468  0.6354
   74SLPC  H16R 6595   5.143   5.388   8.957 -0.7098 -1.4611 -1.3756
   74SLPC  H16S 6596   5.269   5.449   8.854  1.3570  3.5697  1.6584
   74SLPC  C217 6597   5.068   5.488   8.783 -0.0330  0.6616  0.4850
   74SLPC  H17R 6598   5.055   5.386   8.741  0.8860 -0.2384  2.3250
   74SLPC  H17S 6599   5.102   5.554   8.700  0.2086  0.1021  0.1402
   74SLPC  C218 6600   4.922   5.550   8.813 -0.5058  0.0283  0.0711
   74SLPC  H18R 6601   4.842   5.515   8.743 -1.8193  1.3624  0.8585
   74SLPC  H18S 6602   4.920   5.658   8.835  2.4418 -0.1677  1.4893
   74SLPC  H18T 6603   4.899   5.513   8.915  0.6485 -1.9402 -0.3572
   74SLPC   C33 6604   4.677   5.218   9.914 -0.0956  0.2970 -0.1427
   74SLPC   H3X 6605   4.596   5.204   9.989  1.2235 -0.4492  1.1666
   74SLPC   H3Y 6606   4.731   5.122   9.926  1.1764  1.1966  1.4406
   74SLPC   C34 6607   4.634   5.233   9.766 -0.1764  1.2495  0.1393
   74SLPC   H4X 6608   4.631   5.341   9.744  0.9560  0.6674 -3.0155
   74SLPC   H4Y 6609   4.535   5.191   9.738  0.7637 -0.2417 -1.0378
   74SLPC   C35 6610   4.731   5.159   9.678  0.3030 -0.1992 -0.6333
   74SLPC   H5X 6611   4.737   5.049   9.693 -0.8996  0.0542  1.9309
   74SLPC   H5Y 6612   4.838   5.186   9.694  0.2005 -0.0326 -0.2240
   74SLPC   C36 6613   4.702   5.184   9.531 -0.0840  0.2686 -0.3361
   74SLPC   H6X 6614   4.703   5.289   9.496  1.1611  0.2116 -0.4731
   74SLPC   H6Y 6615   4.602   5.144   9.503 -1.7907  0.7097  4.5208
   74SLPC   C37 6616   4.798   5.120   9.431  0.1665 -0.5355  0.0012
   74SLPC   H7X 6617   4.790   5.012   9.405  0.2981 -0.4422 -0.4292
   74SLPC   H7Y 6618   4.899   5.134   9.474 -0.8658 -1.0862  2.7156
   74SLPC   C38 6619   4.791   5.180   9.289 -0.4706  0.2305 -0.3817
   74SLPC   H8X 6620   4.833   5.282   9.296 -4.1070  1.7018  1.4033
   74SLPC   H8Y 6621   4.681   5.191   9.272 -0.0959  3.1605 -1.0277
   74SLPC   C39 6622   4.866   5.097   9.191 -0.8034  0.0714  0.0811
   74SLPC   H9X 6623   4.819   4.998   9.171  0.7264  0.0290 -3.6493
   74SLPC   H9Y 6624   4.971   5.078   9.220 -1.0823 -0.4367  0.7837
   74SLPC  C310 6625   4.852   5.158   9.050  0.6079  0.8865  0.5091
   74SLPC  H10X 6626   4.921   5.245   9.044 -0.7311  1.8728 -0.9361
   74SLPC  H10Y 6627   4.747   5.192   9.034  0.8008  0.2179 -2.4377
   74SLPC  C311 6628   4.866   5.057   8.938  0.6682 -0.0818  0.1150
   74SLPC  H11X 6629   4.768   5.005   8.936  0.4509  0.2789  0.9680
   74SLPC  H11Y 6630   4.937   4.983   8.981 -0.3880 -2.1388 -1.6002
   74SLPC  C312 6631   4.919   5.113   8.811  0.3676 -0.1402  0.1221
   74SLPC  H12X 6632   5.028   5.104   8.796  0.2595 -0.4288 -0.5026
   74SLPC  H12Y 6633   4.896   5.222   8.818  2.2398  0.2961 -0.3057
   74SLPC  C313 6634   4.847   5.053   8.688  0.0534  0.1185  0.8536
   74SLPC  H13X 6635   4.850   4.943   8.703  2.1250  0.5489  4.1330
   74SLPC  H13Y 6636   4.913   5.071   8.600 -1.5834  0.2757 -0.3788
   74SLPC  C314 6637   4.707   5.107   8.667 -0.4462  0.0119 -0.5014
   74SLPC  H14X 6638   4.650   5.125   8.761 -0.3184 -0.2457 -0.3742
   74SLPC  H14Y 6639   4.646   5.030   8.616  0.2969  0.6539 -2.3969
   74SLPC  C315 6640   4.696   5.226   8.568 -0.0296  0.4378 -0.1341
   74SLPC  H15X 6641   4.738   5.183   8.475  0.8055 -0.4080  0.6211
   74SLPC  H15Y 6642   4.766   5.305   8.605 -0.1614 -0.5425  2.3214
   74SLPC  C316 6643   4.553   5.281   8.537 -0.0657  0.6755 -0.5228
   74SLPC  H16X 6644   4.474   5.276   8.615 -1.3431 -0.0888 -1.8392
   74SLPC  H16Y 6645   4.509   5.219   8.456 -0.0287  0.8102 -0.6445
   74SLPC  C317 6646   4.560   5.425   8.482  0.7723  0.1384  0.3472
   74SLPC  H17X 6647   4.639   5.441   8.405  0.1295  0.5085 -0.2508
   74SLPC  H17Y 6648   4.597   5.490   8.564  0.0122 -0.4274  1.1492
   74SLPC  C318 6649   4.435   5.479   8.423  0.2732 -0.6194  0.5015
   74SLPC  H18X 6650   4.403   5.421   8.333  0.3445  1.2565 -0.7723
   74SLPC  H18Y 6651   4.444   5.586   8.393 -2.5426 -0.8599 -1.5055
   74SLPC  H18Z 6652   4.355   5.465   8.499 -1.2143  0.7280 -0.7568
   75SLPC     N 6653   2.752   2.143   6.118  0.1208  0.5530 -0.2517
   75SLPC   C13 6654   2.678   2.238   6.035  0.4352 -0.5893 -0.2417
   75SLPC  H13A 6655   2.581   2.199   6.008 -0.5859  0.5656  1.5869
   75SLPC  H13B 6656   2.653   2.335   6.076 -0.8816 -0.8816 -0.3323
   75SLPC  H13C 6657   2.733   2.260   5.945 -1.1425 -0.3648 -1.1649
   75SLPC   C14 6658   2.887   2.189   6.128 -0.2629 -0.3332  0.2153
   75SLPC  H14A 6659   2.903   2.282   6.180 -4.7901  0.8686 -0.3098
   75SLPC  H14B 6660   2.952   2.114   6.170 -2.2884 -2.4828 -0.3057
   75SLPC  H14C 6661   2.926   2.202   6.028  0.0214 -1.1601  0.2154
   75SLPC   C15 6662   2.737   2.007   6.068 -0.4663 -0.3871 -0.4356
   75SLPC  H15A 6663   2.634   1.975   6.076 -0.4866  0.2641  2.1532
   75SLPC  H15B 6664   2.765   2.008   5.963 -0.3306 -0.3570 -0.3995
   75SLPC  H15C 6665   2.810   1.939   6.110 -0.2399  0.6641  0.9071
   75SLPC   C12 6666   2.703   2.148   6.257  0.5402 -0.8561  0.6164
   75SLPC  H12A 6667   2.598   2.120   6.255  0.1722  0.5818 -0.7557
   75SLPC  H12B 6668   2.698   2.249   6.295 -1.5513 -0.8769  0.4977
   75SLPC   C11 6669   2.785   2.073   6.373  0.4380  0.3054 -0.1568
   75SLPC  H11A 6670   2.719   2.079   6.463 -1.5622 -0.5928 -1.5260
   75SLPC  H11B 6671   2.875   2.134   6.396  0.7339 -0.2127  0.0566
   75SLPC     P 6672   2.949   1.877   6.414 -0.4894  0.4903 -0.1893
   75SLPC   O13 6673   2.985   1.742   6.364  0.3508  0.6732  0.2142
   75SLPC   O14 6674   3.055   1.976   6.419  0.1628 -0.3325 -0.4417
   75SLPC   O12 6675   2.821   1.938   6.337  0.2334  0.3824 -0.3642
   75SLPC   O11 6676   2.887   1.842   6.558  0.1329 -0.0255  0.1847
   75SLPC    C1 6677   2.876   1.932   6.669  0.6360  0.1285  0.8202
   75SLPC    HA 6678   2.977   1.974   6.690  0.6721 -0.5263  2.0306
   75SLPC    HB 6679   2.806   2.011   6.638  0.0169  0.0801  2.0576
   75SLPC    C2 6680   2.819   1.868   6.793  0.0374  0.3251  0.1732
   75SLPC    HS 6681   2.792   1.940   6.872 -1.6363 -0.2218  0.1096
   75SLPC   O21 6682   2.910   1.772   6.841 -0.3499  0.0773 -0.5125
   75SLPC   C21 6683   2.986   1.796   6.946  0.2797  0.1331 -0.9639
   75SLPC   O22 6684   3.003   1.905   6.997 -0.2441  0.1471  0.2491
   75SLPC   C22 6685   3.070   1.670   6.979  0.2925 -0.4210  0.0583
   75SLPC   H2R 6686   3.095   1.632   6.878 -1.0209  2.5554 -1.4540
   75SLPC   H2S 6687   3.166   1.696   7.029 -0.1491 -0.2226  0.8173
   75SLPC    C3 6688   2.677   1.804   6.763  0.1821 -0.2316 -0.3518
   75SLPC    HX 6689   2.695   1.715   6.700  1.3039  0.9172 -1.6755
   75SLPC    HY 6690   2.618   1.884   6.714  1.1854  0.3487 -0.6254
   75SLPC   O31 6691   2.612   1.758   6.880 -0.4632 -0.0652  0.1776
   75SLPC   C31 6692   2.493   1.702   6.855 -0.1790 -0.1992 -0.0893
   75SLPC   O32 6693   2.413   1.733   6.771 -0.4546 -0.5995  0.3223
   75SLPC   C32 6694   2.481   1.579   6.951  0.1541 -0.2606 -0.2632
   75SLPC   H2X 6695   2.540   1.496   6.908  1.2601  1.0175 -1.2493
   75SLPC   H2Y 6696   2.371   1.559   6.946 -0.0449  0.2388  1.5070
   75SLPC   C23 6697   2.994   1.583   7.088 -0.6369  0.2615 -0.4445
   75SLPC   H3R 6698   3.048   1.486   7.085  1.9388  1.6484 -0.4127
   75SLPC   H3S 6699   2.886   1.583   7.065 -0.7811  0.3389  0.2175
   75SLPC   C24 6700   3.027   1.636   7.230  0.4815 -0.2947 -0.3998
   75SLPC   H4R 6701   2.988   1.739   7.239 -1.5983 -0.9241 -1.7975
   75SLPC   H4S 6702   3.138   1.645   7.234  0.4734  0.1002 -1.0971
   75SLPC   C25 6703   2.977   1.552   7.350 -0.5688  0.0989 -0.1961
   75SLPC   H5R 6704   3.047   1.465   7.347  1.1285  1.4338 -0.5450
   75SLPC   H5S 6705   2.876   1.523   7.315  0.8645 -0.5606 -4.0797
   75SLPC   C26 6706   2.974   1.619   7.490 -0.4790 -0.1388  0.2638
   75SLPC   H6R 6707   2.899   1.701   7.482  1.5919  1.5310 -3.8506
   75SLPC   H6S 6708   3.073   1.662   7.518 -0.8762 -0.0209  1.4744
   75SLPC   C27 6709   2.926   1.536   7.609 -0.2675  0.4615  0.1420
   75SLPC   H7R 6710   3.004   1.459   7.628  0.1839  0.9107  0.0861
   75SLPC   H7S 6711   2.831   1.484   7.581  0.6874 -0.6126 -1.1836
   75SLPC   C28 6712   2.920   1.628   7.731 -0.1855  0.4087 -0.7858
   75SLPC   H8R 6713   2.869   1.725   7.710 -0.4420  0.4552  0.0371
   75SLPC   H8S 6714   3.027   1.655   7.740 -0.0467 -0.4800  0.3300
   75SLPC   C29 6715   2.853   1.558   7.847 -0.3528 -0.2265 -0.2392
   75SLPC   H9R 6716   2.747   1.531   7.833 -1.3874  2.5137  1.8141
   75SLPC  C210 6717   2.916   1.516   7.958  0.2174  0.1340 -0.7955
   75SLPC  H10R 6718   2.863   1.463   8.038  0.4985 -0.3019 -0.8941
   75SLPC  C211 6719   3.064   1.525   7.994  0.6858  0.0011  0.1323
   75SLPC  H11R 6720   3.130   1.568   7.916  1.7607 -0.1358  0.9587
   75SLPC  H11S 6721   3.106   1.428   8.029  1.5385 -0.5529 -2.3678
   75SLPC  C212 6722   3.079   1.626   8.111 -0.2598 -0.1449  0.0068
   75SLPC  H12R 6723   3.035   1.724   8.090  1.9668  0.9973  0.5247
   75SLPC  C213 6724   3.127   1.611   8.236 -0.0432 -0.1649 -0.0948
   75SLPC  H13R 6725   3.116   1.704   8.295 -0.3110 -1.6294  2.2232
   75SLPC  C214 6726   3.174   1.483   8.293 -0.3655  0.3040  0.5613
   75SLPC  H14R 6727   3.284   1.481   8.300 -0.4128 -0.3942  1.2194
   75SLPC  H14S 6728   3.153   1.393   8.231  0.9705  1.6106 -1.8573
   75SLPC  C215 6729   3.124   1.475   8.434 -0.0451 -0.4535  0.1041
   75SLPC  H15R 6730   3.017   1.444   8.436 -0.1648 -0.0637 -0.0839
   75SLPC  H15S 6731   3.130   1.565   8.499 -2.2941  0.5509 -1.0382
   75SLPC  C216 6732   3.191   1.352   8.507  0.4066 -0.6347  0.1593
   75SLPC  H16R 6733   3.298   1.382   8.515  0.1605  1.2178 -2.4626
   75SLPC  H16S 6734   3.189   1.277   8.425 -0.6286  0.1963 -0.6091
   75SLPC  C217 6735   3.135   1.291   8.636 -0.3972 -1.0937  0.0627
   75SLPC  H17R 6736   3.099   1.376   8.698 -2.2693 -2.0900  0.4067
   75SLPC  H17S 6737   3.216   1.248   8.699  1.0340  1.0701 -0.2493
   75SLPC  C218 6738   3.019   1.191   8.621  0.2025 -0.2185 -0.5130
   75SLPC  H18R 6739   2.952   1.237   8.545  0.0965 -0.1220 -0.3625
   75SLPC  H18S 6740   2.962   1.175   8.715  1.4489 -1.1314  0.0990
   75SLPC  H18T 6741   3.057   1.093   8.585  3.7657 -0.8901  4.5094
   75SLPC   C33 6742   2.524   1.604   7.094  0.2007  0.1868 -0.3782
   75SLPC   H3X 6743   2.630   1.635   7.105 -0.7573  3.4030  0.2646
   75SLPC   H3Y 6744   2.456   1.682   7.135 -0.3649  0.0852 -1.1107
   75SLPC   C34 6745   2.495   1.481   7.184 -0.5001 -0.1277 -0.0332
   75SLPC   H4X 6746   2.566   1.406   7.143  0.3930  0.9213 -0.4282
   75SLPC   H4Y 6747   2.391   1.449   7.165 -0.1721  0.2613 -2.7660
   75SLPC   C35 6748   2.541   1.503   7.323 -0.4040  0.3984  0.6696
   75SLPC   H5X 6749   2.651   1.489   7.325 -0.5244 -0.7446 -0.5937
   75SLPC   H5Y 6750   2.506   1.414   7.380  1.1882 -0.7109 -0.0422
   75SLPC   C36 6751   2.489   1.627   7.396 -0.2294 -0.3514  0.4231
   75SLPC   H6X 6752   2.380   1.650   7.388  0.0770  1.1096  0.3754
   75SLPC   H6Y 6753   2.560   1.703   7.359 -0.4389 -1.4708 -2.4681
   75SLPC   C37 6754   2.508   1.618   7.548 -0.8470  0.5921 -0.7312
   75SLPC   H7X 6755   2.614   1.608   7.581 -0.9473  1.0033 -0.2820
   75SLPC   H7Y 6756   2.454   1.532   7.592 -1.2096  1.3152  0.2672
   75SLPC   C38 6757   2.456   1.737   7.629 -0.8315 -0.3323 -0.2316
   75SLPC   H8X 6758   2.345   1.731   7.635 -0.7273 -1.1376  0.8814
   75SLPC   H8Y 6759   2.487   1.831   7.578  0.7769 -0.3287  0.7232
   75SLPC   C39 6760   2.505   1.732   7.775 -0.3841 -0.0824 -0.0788
   75SLPC   H9X 6761   2.466   1.809   7.844 -2.6275 -0.0427 -1.3590
   75SLPC   H9Y 6762   2.616   1.739   7.767 -0.4575 -0.9937 -2.2696
   75SLPC  C310 6763   2.484   1.604   7.857  0.1582 -0.0512  0.6341
   75SLPC  H10X 6764   2.538   1.520   7.809  0.9755  0.0189  1.4271
   75SLPC  H10Y 6765   2.378   1.572   7.851  0.4475 -0.9846  0.4483
   75SLPC  C311 6766   2.524   1.628   8.000  1.0004  0.3032 -0.3624
   75SLPC  H11X 6767   2.466   1.710   8.048 -0.5233 -0.0445 -1.5329
   75SLPC  H11Y 6768   2.626   1.671   8.003  1.6437 -1.2194 -0.0147
   75SLPC  C312 6769   2.526   1.506   8.089 -0.6468  0.0296 -0.1639
   75SLPC  H12X 6770   2.611   1.441   8.060 -0.3571 -0.2415  1.2756
   75SLPC  H12Y 6771   2.431   1.448   8.095 -0.4172 -0.3348 -0.0237
   75SLPC  C313 6772   2.555   1.530   8.241 -0.0836 -0.2877  0.9114
   75SLPC  H13X 6773   2.642   1.598   8.257 -1.5228  1.5744  1.0891
   75SLPC  H13Y 6774   2.571   1.431   8.286  0.3988  0.2899  2.0193
   75SLPC  C314 6775   2.435   1.590   8.319  0.2782 -0.1735  0.2163
   75SLPC  H14X 6776   2.340   1.534   8.306  0.3612 -0.1040 -0.7381
   75SLPC  H14Y 6777   2.419   1.692   8.278  1.7797 -0.1545 -0.3490
   75SLPC  C315 6778   2.469   1.595   8.466  0.1190  0.3631 -0.2498
   75SLPC  H15X 6779   2.578   1.606   8.483 -0.2772  1.3559  1.7845
   75SLPC  H15Y 6780   2.456   1.492   8.505  1.1234 -0.0242 -0.9301
   75SLPC  C316 6781   2.389   1.692   8.550 -0.2174  0.7381 -0.0675
   75SLPC  H16X 6782   2.418   1.796   8.521  0.6285  0.3889 -0.4785
   75SLPC  H16Y 6783   2.426   1.689   8.654 -0.2973  0.5796 -0.0437
   75SLPC  C317 6784   2.243   1.670   8.562  0.8633  0.8902 -0.0069
   75SLPC  H17X 6785   2.214   1.572   8.607 -0.0836  1.2919  0.2586
   75SLPC  H17Y 6786   2.200   1.668   8.460 -1.1507  0.8957  0.8074
   75SLPC  C318 6787   2.165   1.790   8.623 -0.1609  0.2287  0.2466
   75SLPC  H18X 6788   2.172   1.877   8.555 -1.1780  0.9551  1.0676
   75SLPC  H18Y 6789   2.210   1.809   8.723 -0.4757  1.7398  0.1002
   75SLPC  H18Z 6790   2.060   1.758   8.641  0.3469 -1.1115  0.9210
   76SLPC     N 6791   4.424   0.473   6.182  0.1598  0.5252  0.2071
   76SLPC   C13 6792   4.503   0.506   6.059  0.4423  0.4393 -0.0033
   76SLPC  H13A 6793   4.450   0.468   5.973  0.4623 -1.3492  0.7550
   76SLPC  H13B 6794   4.494   0.612   6.039  0.2874  0.3732 -0.2988
   76SLPC  H13C 6795   4.599   0.458   6.048 -0.9272 -1.5420 -4.5364
   76SLPC   C14 6796   4.279   0.502   6.158 -0.7371  0.0148 -0.1714
   76SLPC  H14A 6797   4.256   0.597   6.111  0.4399  0.3523 -0.0807
   76SLPC  H14B 6798   4.240   0.427   6.090 -1.2194 -0.2655  0.4101
   76SLPC  H14C 6799   4.222   0.488   6.248  0.0875 -1.3210  0.1517
   76SLPC   C15 6800   4.477   0.563   6.292 -0.0352  0.5413  0.1330
   76SLPC  H15A 6801   4.473   0.664   6.254 -0.5088 -0.4716 -2.6761
   76SLPC  H15B 6802   4.415   0.562   6.380  0.9691  1.4879  0.8688
   76SLPC  H15C 6803   4.576   0.537   6.327  0.0071  0.6188  0.0724
   76SLPC   C12 6804   4.442   0.331   6.225 -0.4881  0.2281  0.1202
   76SLPC  H12A 6805   4.545   0.300   6.219 -0.5228 -0.2170  1.5292
   76SLPC  H12B 6806   4.408   0.274   6.140 -1.7025  2.7198 -1.1236
   76SLPC   C11 6807   4.368   0.284   6.352 -0.8457 -0.1236  0.1083
   76SLPC  H11A 6808   4.338   0.375   6.408 -1.1778 -0.5359  0.6010
   76SLPC  H11B 6809   4.423   0.217   6.422  1.6452 -1.1365 -2.7151
   76SLPC     P 6810   4.252   0.073   6.240 -0.2203  0.1764  0.3757
   76SLPC   O13 6811   4.111   0.024   6.226 -0.4414 -0.1221  0.0600
   76SLPC   O14 6812   4.329   0.080   6.113 -0.4046  0.2747  0.2171
   76SLPC   O12 6813   4.252   0.215   6.307  0.2080  0.4033  0.3432
   76SLPC   O11 6814   4.334  -0.018   6.338 -0.5244 -0.3162 -0.2793
   76SLPC    C1 6815   4.259  -0.106   6.423 -0.5653 -0.2130  0.1167
   76SLPC    HA 6816   4.193  -0.176   6.367 -1.7630  0.6406  0.4409
   76SLPC    HB 6817   4.326  -0.177   6.476 -1.3167 -1.7194 -0.9342
   76SLPC    C2 6818   4.185  -0.032   6.535 -0.5954  0.2734  0.2809
   76SLPC    HS 6819   4.112   0.028   6.477  0.0739  0.1028 -0.7483
   76SLPC   O21 6820   4.288   0.047   6.605  0.7967  0.0020  0.0977
   76SLPC   C21 6821   4.252   0.171   6.653 -0.2361  0.4467  0.3759
   76SLPC   O22 6822   4.142   0.218   6.641  0.2916  0.3648 -0.2638
   76SLPC   C22 6823   4.368   0.235   6.724  0.3460 -0.4900 -0.2293
   76SLPC   H2R 6824   4.450   0.163   6.744  0.4348 -0.7118 -1.3323
   76SLPC   H2S 6825   4.409   0.317   6.660  1.2090 -1.4757 -0.9655
   76SLPC    C3 6826   4.107  -0.125   6.633 -0.6644 -0.4541 -0.7608
   76SLPC    HX 6827   4.176  -0.199   6.680  0.4159  1.8939  1.4740
   76SLPC    HY 6828   4.035  -0.183   6.571 -0.5621 -1.3544 -0.0499
   76SLPC   O31 6829   4.041  -0.039   6.734  0.5159 -0.0954  0.0929
   76SLPC   C31 6830   4.006  -0.108   6.839 -0.5049  0.3981  0.2589
   76SLPC   O32 6831   4.001  -0.229   6.841  0.1184 -0.6404  0.2024
   76SLPC   C32 6832   3.966  -0.020   6.958  0.3867  1.1615 -0.3854
   76SLPC   H2X 6833   3.855  -0.009   6.954  0.0565 -2.0086 -1.5795
   76SLPC   H2Y 6834   4.003   0.084   6.945 -1.0892  1.5268 -1.9078
   76SLPC   C23 6835   4.316   0.294   6.855  0.1982  0.6633  0.5356
   76SLPC   H3R 6836   4.249   0.218   6.902 -0.4254  1.4144  0.8639
   76SLPC   H3S 6837   4.268   0.392   6.836 -1.4827 -0.3308 -0.4789
   76SLPC   C24 6838   4.435   0.318   6.950  0.3782  0.2512 -0.2134
   76SLPC   H4R 6839   4.497   0.402   6.911  0.0111  0.1889 -0.9313
   76SLPC   H4S 6840   4.513   0.239   6.958  0.1837  0.0266 -0.5306
   76SLPC   C25 6841   4.380   0.357   7.086 -0.7677 -0.7270  0.5208
   76SLPC   H5R 6842   4.307   0.277   7.110 -0.7612 -0.5693  1.0735
   76SLPC   H5S 6843   4.324   0.452   7.077  1.7673  0.9665  1.9136
   76SLPC   C26 6844   4.484   0.348   7.195 -0.0390  0.3730  0.2984
   76SLPC   H6R 6845   4.572   0.412   7.174 -1.4091  1.8926 -0.9192
   76SLPC   H6S 6846   4.522   0.243   7.195 -1.7908 -0.2969 -1.8640
   76SLPC   C27 6847   4.432   0.394   7.331 -0.1878  0.3356  0.8990
   76SLPC   H7R 6848   4.359   0.314   7.355  2.0645 -1.9338  0.4677
   76SLPC   H7S 6849   4.395   0.497   7.311 -0.0113  0.1261 -0.5829
   76SLPC   C28 6850   4.536   0.390   7.449 -0.6452  0.5979 -0.5966
   76SLPC   H8R 6851   4.579   0.291   7.476 -0.3999  0.1306 -2.6255
   76SLPC   H8S 6852   4.612   0.455   7.402  0.1178  0.0486 -0.1357
   76SLPC   C29 6853   4.485   0.460   7.582 -0.0746  0.5957  0.6809
   76SLPC   H9R 6854   4.455   0.565   7.570  2.9009  1.3561 -0.4135
   76SLPC  C210 6855   4.456   0.395   7.698 -0.1601 -0.9012 -0.2482
   76SLPC  H10R 6856   4.426   0.461   7.782 -1.8475 -0.4113 -1.2136
   76SLPC  C211 6857   4.477   0.260   7.755  0.3909 -0.6589  0.2387
   76SLPC  H11R 6858   4.525   0.268   7.855  1.1261 -1.5241 -0.0400
   76SLPC  H11S 6859   4.556   0.219   7.689  0.7486 -1.8091  1.3666
   76SLPC  C212 6860   4.355   0.164   7.760  0.3572  0.6675  0.5357
   76SLPC  H12R 6861   4.353   0.082   7.687 -0.3997  2.5786 -1.6305
   76SLPC  C213 6862   4.265   0.164   7.865  0.0312  0.4757 -0.0230
   76SLPC  H13R 6863   4.191   0.083   7.868  1.4278 -0.8520 -0.4489
   76SLPC  C214 6864   4.272   0.256   7.986  0.3371 -0.4354  0.4175
   76SLPC  H14R 6865   4.172   0.301   8.006  1.1561  1.2776  0.7645
   76SLPC  H14S 6866   4.337   0.342   7.959  1.5824 -1.7660 -0.8653
   76SLPC  C215 6867   4.338   0.187   8.104  0.0796 -0.5255 -0.2082
   76SLPC  H15R 6868   4.446   0.184   8.079  0.0745 -1.6477 -0.1242
   76SLPC  H15S 6869   4.307   0.082   8.118 -0.7377 -0.2958 -0.2497
   76SLPC  C216 6870   4.340   0.276   8.227  0.1421 -0.0713  0.2283
   76SLPC  H16R 6871   4.236   0.289   8.265 -0.1992 -1.9812  0.0180
   76SLPC  H16S 6872   4.383   0.378   8.229 -0.1547  0.0997 -1.2640
   76SLPC  C217 6873   4.409   0.219   8.354 -1.2700 -0.5585 -0.0363
   76SLPC  H17R 6874   4.397   0.109   8.353  4.3150 -1.3182 -1.5546
   76SLPC  H17S 6875   4.364   0.266   8.443  2.0339  3.6519 -0.4086
   76SLPC  C218 6876   4.559   0.244   8.363 -0.2120 -0.4045 -0.1108
   76SLPC  H18R 6877   4.582   0.342   8.409 -1.4624 -0.7837  1.3950
   76SLPC  H18S 6878   4.592   0.244   8.257  0.0704  0.8111 -0.0205
   76SLPC  H18T 6879   4.613   0.159   8.409  0.6863  1.2027  1.8600
   76SLPC   C33 6880   4.002  -0.070   7.099 -0.5944  0.0675  0.0414
   76SLPC   H3X 6881   4.106  -0.108   7.102 -0.3696  0.6928  0.2660
   76SLPC   H3Y 6882   3.939  -0.152   7.139 -1.2384 -0.2425 -1.5395
   76SLPC   C34 6883   4.016   0.048   7.202 -0.4523 -0.1975 -0.3251
   76SLPC   H4X 6884   3.912   0.087   7.212  0.9074  3.2014  1.1352
   76SLPC   H4Y 6885   4.083   0.131   7.170 -0.3230  0.0258  0.5313
   76SLPC   C35 6886   4.076  -0.003   7.335  0.7540 -0.6637  0.5195
   76SLPC   H5X 6887   4.176  -0.050   7.328  0.4121 -1.6491  1.9403
   76SLPC   H5Y 6888   4.006  -0.077   7.380  0.3580  0.2924  1.5012
   76SLPC   C36 6889   4.088   0.104   7.444 -0.1289 -0.1660 -0.5215
   76SLPC   H6X 6890   4.166   0.177   7.415 -1.0386  1.1866  0.3802
   76SLPC   H6Y 6891   4.122   0.066   7.542 -0.3839 -2.7400 -1.3947
   76SLPC   C37 6892   3.952   0.179   7.468 -0.3368 -0.2209 -0.2305
   76SLPC   H7X 6893   3.871   0.113   7.509 -0.2341  0.1123  0.5156
   76SLPC   H7Y 6894   3.908   0.217   7.373  2.3004  0.2919 -1.2766
   76SLPC   C38 6895   3.966   0.303   7.561 -0.8021  0.3710 -0.3698
   76SLPC   H8X 6896   4.024   0.372   7.495 -1.2736 -0.3752 -1.5744
   76SLPC   H8Y 6897   4.016   0.266   7.653 -2.2306 -0.5676  0.0425
   76SLPC   C39 6898   3.841   0.380   7.599  1.0789 -0.2966  0.3587
   76SLPC   H9X 6899   3.777   0.307   7.653 -0.4040  0.8524  0.1938
   76SLPC   H9Y 6900   3.785   0.400   7.505 -0.6966  1.2107  1.6753
   76SLPC  C310 6901   3.886   0.498   7.685  0.0784  0.1659 -0.2182
   76SLPC  H10X 6902   3.796   0.561   7.706 -0.1053 -1.0056  2.8085
   76SLPC  H10Y 6903   3.964   0.564   7.641  1.0579 -1.5859 -1.1236
   76SLPC  C311 6904   3.935   0.463   7.827 -0.3736 -0.1910  0.2129
   76SLPC  H11X 6905   4.034   0.413   7.834  0.4914  1.7869  3.6695
   76SLPC  H11Y 6906   3.866   0.385   7.866  1.1355 -1.7602 -0.2029
   76SLPC  C312 6907   3.932   0.575   7.934  0.1539  0.0710 -0.2825
   76SLPC  H12X 6908   3.882   0.546   8.028 -0.2121 -1.9301 -1.0792
   76SLPC  H12Y 6909   3.869   0.662   7.905  0.1536  0.1701  0.0084
   76SLPC  C313 6910   4.064   0.625   7.976 -0.2567  0.4122  0.4634
   76SLPC  H13X 6911   4.122   0.649   7.885  1.4240 -1.7704  0.9306
   76SLPC  H13Y 6912   4.119   0.543   8.028 -0.5163 -0.5498 -0.7596
   76SLPC  C314 6913   4.065   0.750   8.064 -0.3745 -0.2698 -0.2650
   76SLPC  H14X 6914   4.049   0.840   8.000  0.4353  0.5454  0.6604
   76SLPC  H14Y 6915   4.165   0.761   8.110 -0.0336 -2.5978 -0.4028
   76SLPC  C315 6916   3.952   0.758   8.161  0.1204  0.1670 -0.3433
   76SLPC  H15X 6917   3.969   0.666   8.222 -3.3737 -0.9277 -0.8981
   76SLPC  H15Y 6918   3.852   0.775   8.116 -1.2393  0.7720  2.7876
   76SLPC  C316 6919   3.970   0.886   8.253  0.0275  0.6432 -0.0849
   76SLPC  H16X 6920   3.896   0.963   8.222 -0.9865 -0.5547 -0.7081
   76SLPC  H16Y 6921   4.074   0.918   8.234 -0.6803  3.2546  0.2093
   76SLPC  C317 6922   3.939   0.858   8.405  1.0310  0.7828 -0.1059
   76SLPC  H17X 6923   3.961   0.950   8.464  1.3340 -1.7199  3.8064
   76SLPC  H17Y 6924   3.997   0.768   8.430  0.9235  1.4512  2.6942
   76SLPC  C318 6925   3.794   0.811   8.415 -0.0348 -0.0580 -0.5430
   76SLPC  H18X 6926   3.718   0.882   8.377  1.2349  1.3823 -0.4651
   76SLPC  H18Y 6927   3.778   0.787   8.522 -3.2497 -2.5226 -1.5241
   76SLPC  H18Z 6928   3.782   0.711   8.368  1.9932 -0.1784 -0.8512
   77SLPC     N 6929   0.789   6.625   6.055  0.5727  0.1031 -0.7834
   77SLPC   C13 6930   0.834   6.508   5.976  0.4626 -0.1183 -1.0970
   77SLPC  H13A 6931   0.746   6.451   5.948 -0.1004  0.3147 -0.2395
   77SLPC  H13B 6932   0.880   6.526   5.880 -0.4243 -2.4215 -2.0042
   77SLPC  H13C 6933   0.905   6.450   6.032 -1.2750 -0.3005  0.9810
   77SLPC   C14 6934   0.685   6.680   5.968  0.2186  0.1133 -0.4600
   77SLPC  H14A 6935   0.613   6.601   5.956  1.1417 -1.1065  1.6966
   77SLPC  H14B 6936   0.634   6.759   6.022 -1.2112  0.2838 -2.0101
   77SLPC  H14C 6937   0.729   6.708   5.874  0.4023 -0.2251 -0.4750
   77SLPC   C15 6938   0.901   6.717   6.089  0.1866 -0.2497 -0.2438
   77SLPC  H15A 6939   0.976   6.660   6.142  0.3952  0.5467  0.3247
   77SLPC  H15B 6940   0.949   6.771   6.009 -1.8866  2.1762  0.1205
   77SLPC  H15C 6941   0.863   6.787   6.161 -1.0613 -0.4089 -0.7260
   77SLPC   C12 6942   0.737   6.586   6.191 -0.8896  0.1506 -0.2812
   77SLPC  H12A 6943   0.814   6.535   6.246 -2.2857  0.7485  2.3312
   77SLPC  H12B 6944   0.663   6.507   6.186 -1.9798  1.1160  0.2594
   77SLPC   C11 6945   0.676   6.698   6.283 -0.0802 -1.1495 -0.6735
   77SLPC  H11A 6946   0.612   6.639   6.352 -1.1343 -0.8963 -1.4276
   77SLPC  H11B 6947   0.606   6.766   6.229 -3.5197 -3.0727  1.1865
   77SLPC     P 6948   0.873   6.717   6.460 -0.3998 -0.2061  0.5492
   77SLPC   O13 6949   0.937   6.595   6.411 -0.0331 -0.1750 -0.1380
   77SLPC   O14 6950   0.964   6.812   6.522  0.4288 -0.0070 -0.0359
   77SLPC   O12 6951   0.785   6.779   6.343  1.0293  0.2750 -0.5558
   77SLPC   O11 6952   0.773   6.672   6.570 -0.5968  0.5575  0.0118
   77SLPC    C1 6953   0.663   6.755   6.600  0.1446  0.2804  0.4284
   77SLPC    HA 6954   0.684   6.864   6.590 -0.4963  0.3560 -0.1418
   77SLPC    HB 6955   0.573   6.726   6.543 -0.5355 -0.4042  1.8408
   77SLPC    C2 6956   0.621   6.729   6.746 -0.8979 -0.5369  0.0234
   77SLPC    HS 6957   0.535   6.794   6.774 -0.2518  0.7222 -0.8772
   77SLPC   O21 6958   0.734   6.760   6.826 -0.6534 -0.2739  0.6172
   77SLPC   C21 6959   0.775   6.882   6.844  0.3827 -0.1203  1.0343
   77SLPC   O22 6960   0.731   6.984   6.795  0.6737 -0.4096  0.2507
   77SLPC   C22 6961   0.894   6.890   6.938  0.4086 -0.4974  0.0402
   77SLPC   H2R 6962   0.982   6.919   6.875 -0.1352  1.7818  0.2781
   77SLPC   H2S 6963   0.858   6.968   7.009 -0.1258 -1.5570  0.9330
   77SLPC    C3 6964   0.573   6.579   6.754  0.6188  0.1042 -0.4451
   77SLPC    HX 6965   0.652   6.517   6.707 -0.3566 -1.5178  0.0029
   77SLPC    HY 6966   0.484   6.583   6.688  0.3581 -1.3862 -0.2177
   77SLPC   O31 6967   0.533   6.537   6.886 -0.2102  0.9900  0.5838
   77SLPC   C31 6968   0.635   6.506   6.967  0.4672 -0.8657 -0.4007
   77SLPC   O32 6969   0.749   6.476   6.926  0.4860 -0.2980 -0.4498
   77SLPC   C32 6970   0.589   6.521   7.113 -0.4610  0.6153  0.0188
   77SLPC   H2X 6971   0.530   6.427   7.123  1.9944 -1.0139 -0.2485
   77SLPC   H2Y 6972   0.520   6.608   7.119 -3.1222 -1.4726  0.6171
   77SLPC   C23 6973   0.947   6.772   7.035 -0.1443 -0.3714 -0.6175
   77SLPC   H3R 6974   0.932   6.678   6.978  0.7136 -1.9323  1.6542
   77SLPC   H3S 6975   0.883   6.772   7.126  1.8916 -0.9669  0.8579
   77SLPC   C24 6976   1.092   6.787   7.063 -0.3590 -0.2066  0.2251
   77SLPC   H4R 6977   1.117   6.894   7.082 -3.1352  0.2743  1.4069
   77SLPC   H4S 6978   1.135   6.754   6.966  1.7797 -1.0777  1.4291
   77SLPC   C25 6979   1.136   6.700   7.177 -0.1905  0.0599  0.2251
   77SLPC   H5R 6980   1.245   6.719   7.186 -0.2055  0.2243  0.0572
   77SLPC   H5S 6981   1.137   6.590   7.158 -0.1625  0.5334 -2.7617
   77SLPC   C26 6982   1.072   6.746   7.307 -0.1706 -0.0585  0.1493
   77SLPC   H6R 6983   1.119   6.686   7.388  0.4886 -1.8592 -1.5133
   77SLPC   H6S 6984   0.963   6.724   7.318 -0.5127  2.2465  1.7344
   77SLPC   C27 6985   1.081   6.898   7.330 -1.1409  0.4623 -0.3262
   77SLPC   H7R 6986   1.018   6.959   7.262 -1.2342 -1.1969 -1.7446
   77SLPC   H7S 6987   1.187   6.931   7.318 -1.3292  0.9949 -0.5422
   77SLPC   C28 6988   1.040   6.940   7.476 -0.8750 -0.7217  0.7868
   77SLPC   H8R 6989   1.045   7.051   7.479 -0.1216 -0.7373  0.3080
   77SLPC   H8S 6990   1.124   6.892   7.530 -0.2922 -2.0945 -1.2689
   77SLPC   C29 6991   0.901   6.889   7.515  0.2361  0.3732 -0.0627
   77SLPC   H9R 6992   0.833   6.862   7.433  1.3498 -1.2478 -0.4692
   77SLPC  C210 6993   0.846   6.859   7.638  0.2096 -0.4291 -0.3915
   77SLPC  H10R 6994   0.741   6.829   7.640 -0.6199  2.4306  1.8809
   77SLPC  C211 6995   0.935   6.871   7.758  0.5818 -0.0156  0.0070
   77SLPC  H11R 6996   0.962   6.978   7.769  0.7096 -0.2040  1.6554
   77SLPC  H11S 6997   1.028   6.813   7.735  1.7324  0.5622  3.0476
   77SLPC  C212 6998   0.878   6.826   7.892 -0.3821  0.0121  0.1826
   77SLPC  H12R 6999   0.899   6.720   7.917  0.3385 -0.2686 -1.5410
   77SLPC  C213 7000   0.808   6.893   7.978  0.1220 -0.3769 -0.8118
   77SLPC  H13R 7001   0.789   6.846   8.076  1.5382 -2.7079 -1.5974
   77SLPC  C214 7002   0.780   7.038   7.979 -0.3050  0.1497 -0.1748
   77SLPC  H14R 7003   0.699   7.057   7.906  1.0288  0.1389 -1.6793
   77SLPC  H14S 7004   0.871   7.095   7.950 -1.7559  1.7044 -1.6891
   77SLPC  C215 7005   0.732   7.103   8.117 -0.0437 -0.0479  0.1549
   77SLPC  H15R 7006   0.672   7.024   8.168 -0.5534  1.5177  2.0555
   77SLPC  H15S 7007   0.667   7.188   8.091  0.3502  0.1469 -0.1946
   77SLPC  C216 7008   0.856   7.138   8.212 -0.3854 -1.4078 -0.0919
   77SLPC  H16R 7009   0.929   7.183   8.141 -1.4646 -1.6854 -1.4143
   77SLPC  H16S 7010   0.907   7.044   8.242  2.2300 -0.0275 -0.1293
   77SLPC  C217 7011   0.830   7.217   8.338  0.2254 -0.2108  0.0925
   77SLPC  H17R 7012   0.750   7.169   8.399 -0.4144 -2.9687 -2.8303
   77SLPC  H17S 7013   0.777   7.305   8.295  0.2090 -0.8942 -1.2853
   77SLPC  C218 7014   0.955   7.243   8.424  1.2105  0.0881  0.0919
   77SLPC  H18R 7015   0.936   7.325   8.496  0.2901  1.3850 -1.5802
   77SLPC  H18S 7016   1.039   7.280   8.361 -0.0884  1.2840 -0.9837
   77SLPC  H18T 7017   0.989   7.153   8.480  1.1908 -1.1918 -1.9105
   77SLPC   C33 7018   0.690   6.538   7.214  0.6065 -0.1393  0.5991
   77SLPC   H3X 7019   0.756   6.625   7.193  1.0448 -0.0284  2.3412
   77SLPC   H3Y 7020   0.758   6.450   7.205  0.6052 -0.2673  1.7354
   77SLPC   C34 7021   0.626   6.562   7.353  0.8003  0.3701  0.8241
   77SLPC   H4X 7022   0.524   6.520   7.360  1.1892 -0.6325  0.5046
   77SLPC   H4Y 7023   0.635   6.671   7.375  1.0865  0.2058  1.5411
   77SLPC   C35 7024   0.694   6.487   7.465 -0.2433 -0.1335  0.2248
   77SLPC   H5X 7025   0.794   6.527   7.491 -1.7576  3.9848 -0.0592
   77SLPC   H5Y 7026   0.699   6.381   7.431 -0.8026 -0.0207 -0.2156
   77SLPC   C36 7027   0.609   6.504   7.596 -0.0914 -0.0447 -0.1890
   77SLPC   H6X 7028   0.501   6.487   7.576 -0.4186  0.5613  1.0312
   77SLPC   H6Y 7029   0.608   6.606   7.640 -1.5126 -0.3945  0.6202
   77SLPC   C37 7030   0.656   6.414   7.714 -0.1767 -0.2916 -0.4518
   77SLPC   H7X 7031   0.693   6.316   7.675 -0.6014 -0.9178  0.6832
   77SLPC   H7Y 7032   0.578   6.401   7.792  1.1781  1.5194  1.2397
   77SLPC   C38 7033   0.776   6.493   7.791  0.2160 -0.3094  0.2996
   77SLPC   H8X 7034   0.727   6.554   7.869  0.0545 -0.2574  0.1593
   77SLPC   H8Y 7035   0.829   6.562   7.722 -2.0092  0.3074 -0.8494
   77SLPC   C39 7036   0.885   6.396   7.850  0.2105  0.1238 -0.4589
   77SLPC   H9X 7037   0.977   6.450   7.882 -0.1299  0.5570 -0.2064
   77SLPC   H9Y 7038   0.913   6.319   7.775  0.1436 -1.3256  0.9812
   77SLPC  C310 7039   0.835   6.336   7.981 -0.0605  0.6230  0.6266
   77SLPC  H10X 7040   0.732   6.300   7.957 -0.1179  1.6679 -0.6977
   77SLPC  H10Y 7041   0.825   6.421   8.051  2.2472  1.3053  0.1491
   77SLPC  C311 7042   0.939   6.243   8.041  0.7013  0.6568 -0.1303
   77SLPC  H11X 7043   1.036   6.297   8.040  0.0893  1.7758  0.2577
   77SLPC  H11Y 7044   0.947   6.150   7.981  2.4657  0.7741 -0.1016
   77SLPC  C312 7045   0.898   6.185   8.176 -0.4451 -0.0524 -0.5785
   77SLPC  H12X 7046   0.797   6.139   8.164 -1.0176  1.4879 -1.8107
   77SLPC  H12Y 7047   0.899   6.269   8.249  2.1257  0.2860 -0.9327
   77SLPC  C313 7048   0.980   6.064   8.223  0.1330  0.4889  0.8698
   77SLPC  H13X 7049   0.955   5.983   8.151  2.4767  0.3119  0.2141
   77SLPC  H13Y 7050   0.941   6.034   8.323 -0.7303 -0.6311  0.2178
   77SLPC  C314 7051   1.129   6.089   8.228  0.1724 -0.8540 -0.1170
   77SLPC  H14X 7052   1.164   6.127   8.130  0.4945  0.2899  0.4424
   77SLPC  H14Y 7053   1.166   5.984   8.236  1.0449 -0.3022  3.8698
   77SLPC  C315 7054   1.178   6.179   8.338  0.6506  0.5291  0.4828
   77SLPC  H15X 7055   1.127   6.136   8.426  0.8112 -0.3946  0.1337
   77SLPC  H15Y 7056   1.148   6.282   8.309  1.4385  0.1952 -1.6259
   77SLPC  C316 7057   1.331   6.180   8.356  0.5218 -0.5038 -0.5700
   77SLPC  H16X 7058   1.375   6.213   8.260  0.2946  0.2491 -0.4169
   77SLPC  H16Y 7059   1.359   6.075   8.378 -0.0579 -0.3579  0.9618
   77SLPC  C317 7060   1.389   6.268   8.467  0.6293 -0.2772  0.4863
   77SLPC  H17X 7061   1.347   6.234   8.564 -0.7649 -1.3275 -0.4510
   77SLPC  H17Y 7062   1.369   6.376   8.455  1.2272 -0.2147  0.0492
   77SLPC  C318 7063   1.540   6.255   8.463  0.0079 -0.3078 -0.6993
   77SLPC  H18X 7064   1.561   6.270   8.355 -2.0357  0.7044 -0.9861
   77SLPC  H18Y 7065   1.578   6.156   8.494  2.1037 -0.0812 -2.3852
   77SLPC  H18Z 7066   1.587   6.334   8.526 -0.0208 -1.0179  0.2206
   78SLPC     N 7067   2.017   0.837   6.312  0.0529  0.0327  0.2860
   78SLPC   C13 7068   1.889   0.906   6.269  0.8376 -0.7084  0.6960
   78SLPC  H13A 7069   1.812   0.830   6.274 -0.5218  0.4750 -1.3684
   78SLPC  H13B 7070   1.856   0.990   6.328  1.6469 -0.1938  0.4149
   78SLPC  H13C 7071   1.901   0.940   6.167  0.9328 -0.7231  0.7018
   78SLPC   C14 7072   2.038   0.704   6.245 -0.0510  0.4135  0.2527
   78SLPC  H14A 7073   2.013   0.705   6.140  1.1381  2.1198 -0.0389
   78SLPC  H14B 7074   2.141   0.674   6.257  0.1144  1.0837  0.5824
   78SLPC  H14C 7075   1.991   0.623   6.298  0.8368 -1.7325 -2.1847
   78SLPC   C15 7076   2.027   0.815   6.464  0.1690 -0.2082 -0.3759
   78SLPC  H15A 7077   2.103   0.740   6.479 -0.8291 -1.0611  0.4260
   78SLPC  H15B 7078   2.055   0.904   6.519 -0.6840 -1.4308  2.0930
   78SLPC  H15C 7079   1.932   0.780   6.502  0.1370  0.4253  0.1429
   78SLPC   C12 7080   2.127   0.933   6.274  0.3991 -0.3170  0.2412
   78SLPC  H12A 7081   2.096   1.028   6.314 -0.2755 -0.7530  0.7469
   78SLPC  H12B 7082   2.141   0.939   6.167  0.0301 -2.4688  0.0425
   78SLPC   C11 7083   2.274   0.901   6.308 -0.1649 -0.3469 -0.5520
   78SLPC  H11A 7084   2.287   0.900   6.418 -2.6441 -1.2524 -0.2387
   78SLPC  H11B 7085   2.336   0.986   6.272  1.9492 -1.5271  0.2710
   78SLPC     P 7086   2.466   0.727   6.275 -0.2781  0.0307 -0.1934
   78SLPC   O13 7087   2.501   0.614   6.184  0.6840  0.3239  0.0140
   78SLPC   O14 7088   2.548   0.850   6.287 -0.5620 -0.3540  0.2185
   78SLPC   O12 7089   2.321   0.776   6.247  0.1685  0.3364  0.0270
   78SLPC   O11 7090   2.460   0.671   6.424  0.0337 -0.1859 -0.0097
   78SLPC    C1 7091   2.544   0.726   6.523  0.0134 -0.0322  0.1666
   78SLPC    HA 7092   2.550   0.837   6.512  1.3915 -0.1108  0.0879
   78SLPC    HB 7093   2.500   0.708   6.624  0.4748  0.7059  0.5083
   78SLPC    C2 7094   2.684   0.652   6.548  0.1283  0.3706  0.7354
   78SLPC    HS 7095   2.736   0.652   6.449  1.6652  0.6238  1.5283
   78SLPC   O21 7096   2.651   0.511   6.589  0.3270 -0.2904 -0.2866
   78SLPC   C21 7097   2.753   0.432   6.578  0.4322  0.0656 -0.2242
   78SLPC   O22 7098   2.858   0.463   6.522  0.4894 -0.4788 -0.1226
   78SLPC   C22 7099   2.725   0.289   6.639  0.1230  0.0515 -1.0514
   78SLPC   H2R 7100   2.615   0.282   6.656  0.1616 -0.2115 -0.9080
   78SLPC   H2S 7101   2.753   0.205   6.572  0.3592 -2.4927  2.0948
   78SLPC    C3 7102   2.774   0.728   6.650 -0.0233 -0.2699  0.5579
   78SLPC    HX 7103   2.780   0.835   6.620  0.3934 -0.9068 -1.7291
   78SLPC    HY 7104   2.874   0.680   6.646 -0.2792 -0.7525  0.0097
   78SLPC   O31 7105   2.720   0.700   6.783 -0.3166 -0.7612 -0.6723
   78SLPC   C31 7106   2.649   0.795   6.844  0.2092 -0.1740  0.5535
   78SLPC   O32 7107   2.636   0.908   6.810 -0.3821 -0.4723 -0.4242
   78SLPC   C32 7108   2.581   0.722   6.963  0.4994  0.2499  0.3695
   78SLPC   H2X 7109   2.617   0.617   6.965 -2.1003 -0.7661 -2.0834
   78SLPC   H2Y 7110   2.472   0.725   6.944  0.2790 -1.5965  1.2700
   78SLPC   C23 7111   2.779   0.249   6.781 -0.0941 -0.8051 -0.1694
   78SLPC   H3R 7112   2.889   0.236   6.765  0.1007 -2.9232  2.4887
   78SLPC   H3S 7113   2.731   0.152   6.803 -0.7995 -0.5055 -0.3857
   78SLPC   C24 7114   2.757   0.359   6.887  0.2245 -0.4788  0.2987
   78SLPC   H4R 7115   2.651   0.382   6.910  0.2715 -0.8282  0.8762
   78SLPC   H4S 7116   2.807   0.444   6.837  1.1665 -2.9785 -3.2477
   78SLPC   C25 7117   2.832   0.324   7.016  0.3848 -0.8313 -0.1793
   78SLPC   H5R 7118   2.940   0.305   6.994  0.5102 -1.2848  0.8177
   78SLPC   H5S 7119   2.794   0.222   7.038 -2.0244  0.3626  1.3486
   78SLPC   C26 7120   2.826   0.428   7.128 -0.5508 -0.5728  0.3848
   78SLPC   H6R 7121   2.726   0.423   7.177  0.0695 -0.1132  1.7074
   78SLPC   H6S 7122   2.842   0.529   7.085  1.2923 -0.1127  2.0707
   78SLPC   C27 7123   2.927   0.408   7.243 -0.3479 -0.3319 -0.4297
   78SLPC   H7R 7124   2.935   0.503   7.301 -0.9331  1.0011 -2.4833
   78SLPC   H7S 7125   3.026   0.385   7.198  1.7513  1.7581  2.8619
   78SLPC   C28 7126   2.895   0.292   7.347 -0.4352  0.0975 -0.2337
   78SLPC   H8R 7127   2.871   0.199   7.293  1.9245 -0.5889 -0.1652
   78SLPC   H8S 7128   2.800   0.310   7.402  0.8799  0.5018  1.9824
   78SLPC   C29 7129   3.021   0.278   7.439 -0.4748  0.2858  0.9636
   78SLPC   H9R 7130   3.087   0.200   7.397 -1.3287 -0.3125  0.7128
   78SLPC  C210 7131   3.034   0.348   7.562 -0.3807  0.3225 -0.2687
   78SLPC  H10R 7132   3.129   0.336   7.617 -0.2614 -0.3229 -0.6084
   78SLPC  C211 7133   2.936   0.439   7.622 -0.3677  0.1174  0.2059
   78SLPC  H11R 7134   2.852   0.455   7.551 -0.2035 -2.5359 -0.6203
   78SLPC  H11S 7135   2.976   0.538   7.655 -2.1335  0.7266  0.5805
   78SLPC  C212 7136   2.865   0.367   7.729  0.1967  0.1762  0.1373
   78SLPC  H12R 7137   2.785   0.309   7.680  1.5891  1.4802 -3.8920
   78SLPC  C213 7138   2.892   0.352   7.865 -0.3760  0.4134  0.3511
   78SLPC  H13R 7139   2.820   0.288   7.916 -0.8397 -0.4759 -1.3643
   78SLPC  C214 7140   3.008   0.403   7.949  0.2974  0.3514  1.4787
   78SLPC  H14R 7141   3.018   0.512   7.964 -2.1749  0.6801  1.0228
   78SLPC  H14S 7142   3.106   0.362   7.917 -0.1647  0.2360  0.1854
   78SLPC  C215 7143   2.995   0.356   8.095  0.2924  0.3948  0.0736
   78SLPC  H15R 7144   3.095   0.362   8.143  0.7334  0.3630 -0.8265
   78SLPC  H15S 7145   2.968   0.249   8.103  1.5510 -0.0325 -1.1777
   78SLPC  C216 7146   2.898   0.446   8.176 -0.2717  0.1444  0.5046
   78SLPC  H16R 7147   2.890   0.423   8.284  3.1043  0.6724  0.9253
   78SLPC  H16S 7148   2.794   0.419   8.146  0.3927 -2.8060  0.7911
   78SLPC  C217 7149   2.923   0.604   8.175 -0.6538 -1.2346 -0.1732
   78SLPC  H17R 7150   2.913   0.649   8.074 -0.4374  0.9418  0.7570
   78SLPC  H17S 7151   3.026   0.618   8.214 -0.9506 -2.7820  1.2290
   78SLPC  C218 7152   2.832   0.680   8.272 -0.6085  0.1968  0.7999
   78SLPC  H18R 7153   2.808   0.629   8.368  0.5848  0.0576  1.0336
   78SLPC  H18S 7154   2.735   0.704   8.225 -0.5496 -1.2709 -0.0844
   78SLPC  H18T 7155   2.865   0.786   8.271 -0.8053  0.2633 -0.8017
   78SLPC   C33 7156   2.618   0.791   7.099  0.3360 -0.3068  1.3112
   78SLPC   H3X 7157   2.581   0.895   7.109 -1.6181 -0.6734 -1.7049
   78SLPC   H3Y 7158   2.727   0.786   7.124  1.0415  0.4778 -1.4459
   78SLPC   C34 7159   2.559   0.717   7.220  0.0914 -0.2924  0.4000
   78SLPC   H4X 7160   2.614   0.622   7.207  1.6118  0.7199 -0.6945
   78SLPC   H4Y 7161   2.450   0.701   7.206 -0.3517  0.0394  3.1298
   78SLPC   C35 7162   2.588   0.797   7.348 -0.2384 -0.0492  0.8227
   78SLPC   H5X 7163   2.515   0.872   7.384  0.3740  0.6466  0.6094
   78SLPC   H5Y 7164   2.692   0.836   7.339 -0.7843  1.2099 -0.2200
   78SLPC   C36 7165   2.596   0.688   7.459  0.0130  0.1290  0.1947
   78SLPC   H6X 7166   2.673   0.614   7.430  1.5356  2.4241 -1.8548
   78SLPC   H6Y 7167   2.496   0.638   7.456 -0.1652  0.4030  1.3836
   78SLPC   C37 7168   2.625   0.731   7.599 -0.4247 -0.1434  0.0908
   78SLPC   H7X 7169   2.573   0.827   7.616  2.2782  1.3157  0.4731
   78SLPC   H7Y 7170   2.734   0.755   7.603 -0.5975  0.4270  1.7556
   78SLPC   C38 7171   2.585   0.634   7.706 -0.4563  0.1764 -0.1831
   78SLPC   H8X 7172   2.619   0.529   7.696 -1.2113 -0.0405 -0.5065
   78SLPC   H8Y 7173   2.475   0.644   7.724 -0.9367  0.6704 -3.1876
   78SLPC   C39 7174   2.642   0.689   7.834  0.3056 -0.7778 -0.0179
   78SLPC   H9X 7175   2.604   0.793   7.844 -2.6766 -1.8519  0.4438
   78SLPC   H9Y 7176   2.752   0.681   7.827  0.1056 -2.0959 -2.1221
   78SLPC  C310 7177   2.600   0.611   7.956  0.3430 -0.4707  0.4862
   78SLPC  H10X 7178   2.665   0.641   8.041  2.2360  1.1408 -1.4911
   78SLPC  H10Y 7179   2.624   0.505   7.936  1.0774 -0.6095  1.9950
   78SLPC  C311 7180   2.454   0.631   7.989  0.6530  0.9790  0.1266
   78SLPC  H11X 7181   2.404   0.591   7.898  0.3041 -0.1409  0.7981
   78SLPC  H11Y 7182   2.436   0.740   7.974 -2.8777  0.6150  1.4020
   78SLPC  C312 7183   2.403   0.567   8.121  0.3247  0.0337  0.5765
   78SLPC  H12X 7184   2.292   0.576   8.128  0.1654 -0.7964 -0.6098
   78SLPC  H12Y 7185   2.451   0.613   8.210 -0.4956 -2.4178  2.3269
   78SLPC  C313 7186   2.427   0.411   8.130 -0.0238  0.1939 -0.5296
   78SLPC  H13X 7187   2.523   0.385   8.080 -1.1383 -2.7823 -1.2301
   78SLPC  H13Y 7188   2.352   0.367   8.061  0.7004  0.1348 -1.2869
   78SLPC  C314 7189   2.418   0.347   8.268 -0.2498  0.1365 -0.5227
   78SLPC  H14X 7190   2.395   0.239   8.258 -0.6074  0.1804 -0.1641
   78SLPC  H14Y 7191   2.330   0.394   8.317 -1.1060 -1.1061 -0.8296
   78SLPC  C315 7192   2.547   0.347   8.355 -0.9758  0.4010  0.4819
   78SLPC  H15X 7193   2.583   0.451   8.368 -0.0350  0.3412 -1.3567
   78SLPC  H15Y 7194   2.622   0.290   8.295  0.5822  1.7702  1.0640
   78SLPC  C316 7195   2.515   0.289   8.490  0.3109  0.4414 -0.1291
   78SLPC  H16X 7196   2.460   0.194   8.472  0.8089  0.0334  0.5058
   78SLPC  H16Y 7197   2.449   0.352   8.554  0.7971  0.8426 -0.0172
   78SLPC  C317 7198   2.642   0.257   8.578 -0.2017  0.0088  0.4899
   78SLPC  H17X 7199   2.696   0.355   8.579 -0.7375  0.3638 -1.7038
   78SLPC  H17Y 7200   2.692   0.171   8.529 -0.0055 -0.0935  0.8731
   78SLPC  C318 7201   2.600   0.218   8.721 -0.7976 -0.7064 -0.2805
   78SLPC  H18X 7202   2.688   0.221   8.788 -1.2172 -0.3401  0.2580
   78SLPC  H18Y 7203   2.561   0.115   8.733  2.8509 -2.2006 -0.4979
   78SLPC  H18Z 7204   2.512   0.283   8.742 -2.7228 -2.9137 -1.2827
   79SLPC     N 7205   0.758   2.530   6.337  0.9212  0.1943 -0.2677
   79SLPC   C13 7206   0.644   2.560   6.245 -0.1280  0.1719  0.3197
   79SLPC  H13A 7207   0.648   2.494   6.160  3.4694 -2.2424  2.2168
   79SLPC  H13B 7208   0.544   2.563   6.286  0.3613 -1.0524  1.6502
   79SLPC  H13C 7209   0.651   2.663   6.213  0.6526 -0.4331 -1.5029
   79SLPC   C14 7210   0.879   2.556   6.263 -0.0189  0.2638 -0.1910
   79SLPC  H14A 7211   0.888   2.507   6.167 -0.3889  0.6579 -0.4241
   79SLPC  H14B 7212   0.887   2.663   6.254 -3.6021  0.3871 -3.0838
   79SLPC  H14C 7213   0.970   2.514   6.305 -0.8613  0.2321  1.6667
   79SLPC   C15 7214   0.758   2.378   6.368 -0.1731 -0.4661  0.5784
   79SLPC  H15A 7215   0.665   2.349   6.416  0.2279 -0.6294  1.2610
   79SLPC  H15B 7216   0.773   2.312   6.284  0.0630 -2.1063  1.8811
   79SLPC  H15C 7217   0.841   2.357   6.434  0.6623  0.4684 -0.1626
   79SLPC   C12 7218   0.739   2.606   6.468 -0.1408  0.3174 -0.0600
   79SLPC  H12A 7219   0.749   2.713   6.453 -1.8174  0.8240  2.1027
   79SLPC  H12B 7220   0.831   2.592   6.522  0.1978  1.1451 -0.4041
   79SLPC   C11 7221   0.624   2.582   6.570  0.0006  0.1410  0.3888
   79SLPC  H11A 7222   0.647   2.645   6.659 -2.6958 -1.6869  2.4520
   79SLPC  H11B 7223   0.633   2.476   6.600  1.1777  0.6257  1.8484
   79SLPC     P 7224   0.454   2.744   6.495 -0.0659 -0.5076 -0.2281
   79SLPC   O13 7225   0.550   2.819   6.409  0.3513 -0.2229 -0.1942
   79SLPC   O14 7226   0.313   2.740   6.450 -0.6489 -0.0128 -0.3253
   79SLPC   O12 7227   0.500   2.601   6.514  0.1614 -0.3060 -0.0293
   79SLPC   O11 7228   0.463   2.811   6.634 -0.0851  0.2888 -0.3242
   79SLPC    C1 7229   0.397   2.746   6.752  0.0716 -0.0796  0.3916
   79SLPC    HA 7230   0.340   2.656   6.719 -0.0495  0.3383 -0.5467
   79SLPC    HB 7231   0.470   2.704   6.825 -1.2355 -1.2377  1.0710
   79SLPC    C2 7232   0.314   2.849   6.819 -0.1977 -0.2363  0.3648
   79SLPC    HS 7233   0.258   2.902   6.739  1.9486  1.4465 -0.0367
   79SLPC   O21 7234   0.398   2.938   6.897  0.0951  0.1683 -0.1514
   79SLPC   C21 7235   0.341   3.055   6.915  0.7408  0.1018 -0.1562
   79SLPC   O22 7236   0.230   3.089   6.872 -0.4828 -0.5070  0.5131
   79SLPC   C22 7237   0.442   3.150   6.976 -0.2968 -0.4545  0.7211
   79SLPC   H2R 7238   0.530   3.092   7.010  0.3506 -0.3465 -0.7327
   79SLPC   H2S 7239   0.468   3.220   6.893 -0.9894 -0.4074  0.5437
   79SLPC    C3 7240   0.217   2.785   6.922  0.1842 -0.7942  0.1430
   79SLPC    HX 7241   0.156   2.856   6.981  2.6387  1.4416  0.0687
   79SLPC    HY 7242   0.280   2.730   6.995  0.5016 -0.9561 -0.2510
   79SLPC   O31 7243   0.130   2.685   6.860  0.1260 -0.1686 -0.3629
   79SLPC   C31 7244   0.006   2.714   6.842  0.8007  0.6903 -0.2776
   79SLPC   O32 7245  -0.045   2.825   6.857  0.0153 -0.6462  0.1980
   79SLPC   C32 7246  -0.070   2.588   6.790  0.8795 -0.3079  0.3229
   79SLPC   H2X 7247   0.001   2.509   6.758 -1.6456 -1.5398 -2.5307
   79SLPC   H2Y 7248  -0.126   2.608   6.695 -1.2222 -2.3052  1.0970
   79SLPC   C23 7249   0.383   3.251   7.076  0.1998  0.3706 -0.1426
   79SLPC   H3R 7250   0.307   3.316   7.027  0.9176 -0.0388 -1.8499
   79SLPC   H3S 7251   0.454   3.326   7.115 -0.0452  0.6340 -0.2050
   79SLPC   C24 7252   0.343   3.171   7.204 -0.2860  1.0733  0.0803
   79SLPC   H4R 7253   0.434   3.110   7.221  0.3143  2.4788  2.1831
   79SLPC   H4S 7254   0.263   3.101   7.174 -0.5525  1.1724  0.5543
   79SLPC   C25 7255   0.309   3.249   7.333 -0.6779  0.4441  0.4692
   79SLPC   H5R 7256   0.202   3.277   7.334 -0.3481  1.8439 -0.7535
   79SLPC   H5S 7257   0.371   3.342   7.339 -1.5172  1.0571 -0.2029
   79SLPC   C26 7258   0.347   3.171   7.463 -0.6389 -0.6850  0.6047
   79SLPC   H6R 7259   0.448   3.126   7.451 -0.3732  0.3094 -1.1026
   79SLPC   H6S 7260   0.275   3.087   7.476 -2.4027  0.5231 -1.1362
   79SLPC   C27 7261   0.335   3.255   7.589  0.3488 -0.0069  0.0301
   79SLPC   H7R 7262   0.227   3.283   7.591  0.2644 -0.1294 -1.8717
   79SLPC   H7S 7263   0.385   3.354   7.583 -5.6290  3.2791  0.7002
   79SLPC   C28 7264   0.365   3.180   7.713  0.2192  0.4674 -0.5151
   79SLPC   H8R 7265   0.475   3.179   7.730 -0.0784 -1.5402  1.6215
   79SLPC   H8S 7266   0.337   3.074   7.697  0.9154  0.4872 -1.9410
   79SLPC   C29 7267   0.302   3.234   7.836 -0.7478  0.6848  0.2937
   79SLPC   H9R 7268   0.289   3.157   7.913 -0.8949  1.5574  1.1432
   79SLPC  C210 7269   0.246   3.349   7.861  0.3074 -0.1196  0.0064
   79SLPC  H10R 7270   0.215   3.365   7.966  1.4302 -0.2789  0.3671
   79SLPC  C211 7271   0.242   3.482   7.780  0.3810 -0.3160 -0.1005
   79SLPC  H11R 7272   0.220   3.460   7.673  2.0417  3.3421 -1.2763
   79SLPC  H11S 7273   0.345   3.524   7.776  0.0977  0.8029  3.0927
   79SLPC  C212 7274   0.151   3.588   7.836 -0.3125  0.3286 -0.0791
   79SLPC  H12R 7275   0.067   3.616   7.772 -1.3712 -0.4775  0.9319
   79SLPC  C213 7276   0.174   3.661   7.950 -0.0069  0.4028 -0.2097
   79SLPC  H13R 7277   0.091   3.721   7.989  1.3997  1.1756  1.6827
   79SLPC  C214 7278   0.295   3.647   8.035 -0.0407 -0.4228 -0.4820
   79SLPC  H14R 7279   0.378   3.580   8.003  2.7915  0.9597  3.5937
   79SLPC  H14S 7280   0.261   3.597   8.129 -1.7114 -0.6028 -1.1733
   79SLPC  C215 7281   0.350   3.783   8.085 -0.1254  0.5259 -0.2324
   79SLPC  H15R 7282   0.423   3.761   8.165  4.0743  2.1842 -3.3645
   79SLPC  H15S 7283   0.264   3.842   8.123  0.6598  1.1323  0.6204
   79SLPC  C216 7284   0.428   3.868   7.984 -0.7540 -0.3607  0.0833
   79SLPC  H16R 7285   0.457   3.971   8.013  0.2359 -0.6204  0.0627
   79SLPC  H16S 7286   0.369   3.880   7.891  1.3562  0.6197 -1.1618
   79SLPC  C217 7287   0.555   3.795   7.933 -0.2034  0.5269 -0.5318
   79SLPC  H17R 7288   0.527   3.695   7.893 -1.3378  0.9731 -0.8850
   79SLPC  H17S 7289   0.619   3.768   8.019  0.6248  3.0682 -0.3020
   79SLPC  C218 7290   0.628   3.869   7.817  0.6023 -0.5874 -0.3043
   79SLPC  H18R 7291   0.646   3.972   7.854  0.1287 -1.3642  2.1720
   79SLPC  H18S 7292   0.565   3.862   7.726  1.5972  0.1207 -1.0665
   79SLPC  H18T 7293   0.727   3.825   7.792  0.6806 -2.2783  2.7985
   79SLPC   C33 7294  -0.178   2.543   6.886 -0.2109  0.2517  0.1090
   79SLPC   H3X 7295  -0.260   2.503   6.823  0.9042 -1.6383 -0.1658
   79SLPC   H3Y 7296  -0.220   2.623   6.951  2.7421  0.9383  1.2434
   79SLPC   C34 7297  -0.136   2.428   6.985 -0.5113  0.6341  0.1618
   79SLPC   H4X 7298  -0.103   2.345   6.920  0.2805  0.9816  0.1138
   79SLPC   H4Y 7299  -0.225   2.386   7.037  0.3458 -0.5062  0.7370
   79SLPC   C35 7300  -0.027   2.490   7.073  0.1825 -0.4048  0.5016
   79SLPC   H5X 7301  -0.076   2.580   7.115  0.5631  0.0243  0.0234
   79SLPC   H5Y 7302   0.064   2.512   7.014 -0.3610 -0.4114 -0.3545
   79SLPC   C36 7303   0.020   2.402   7.191  0.0294  0.9452 -0.3625
   79SLPC   H6X 7304   0.041   2.305   7.141  2.1294  1.3414 -0.2721
   79SLPC   H6Y 7305  -0.071   2.385   7.252  0.7651 -0.8488  0.2654
   79SLPC   C37 7306   0.136   2.448   7.271  0.5750  0.4756  0.1542
   79SLPC   H7X 7307   0.221   2.478   7.207 -0.5392  3.2663 -0.1393
   79SLPC   H7Y 7308   0.164   2.366   7.339  0.4337  0.8142  0.6282
   79SLPC   C38 7309   0.123   2.575   7.363  0.3615 -0.2854  0.1108
   79SLPC   H8X 7310   0.046   2.553   7.440  0.1474  0.3673  0.0861
   79SLPC   H8Y 7311   0.075   2.652   7.299 -2.6519 -0.5145  2.0314
   79SLPC   C39 7312   0.255   2.615   7.428 -0.5724 -0.1966 -0.5489
   79SLPC   H9X 7313   0.333   2.629   7.350  0.1173  1.9945  0.4855
   79SLPC   H9Y 7314   0.298   2.540   7.498  0.5671 -0.4074 -1.4580
   79SLPC  C310 7315   0.233   2.748   7.503  0.0051  0.4619 -0.1917
   79SLPC  H10X 7316   0.162   2.814   7.449  0.7747  0.9118 -0.6750
   79SLPC  H10Y 7317   0.330   2.801   7.519 -0.1188  1.1549 -1.6757
   79SLPC  C311 7318   0.153   2.727   7.636  0.4276  0.8548 -0.5577
   79SLPC  H11X 7319   0.212   2.661   7.703 -0.5388  2.3580  1.8473
   79SLPC  H11Y 7320   0.058   2.678   7.605 -0.9111  2.1775  1.3553
   79SLPC  C312 7321   0.105   2.856   7.705  0.5581  0.2622  0.3915
   79SLPC  H12X 7322   0.036   2.915   7.641  0.2935 -0.8064 -0.3201
   79SLPC  H12Y 7323   0.186   2.930   7.724  1.8421 -1.3237  1.2878
   79SLPC  C313 7324   0.022   2.813   7.828 -0.1327 -0.3191  0.2819
   79SLPC  H13X 7325   0.078   2.738   7.888 -1.7800 -0.2404  1.9558
   79SLPC  H13Y 7326  -0.078   2.769   7.807  0.5588 -1.4208 -0.7930
   79SLPC  C314 7327   0.000   2.936   7.915  0.3188  0.3937  0.1117
   79SLPC  H14X 7328  -0.069   3.008   7.867  0.1486  0.4839  0.4912
   79SLPC  H14Y 7329   0.097   2.987   7.935 -0.8014  0.6959  5.7915
   79SLPC  C315 7330  -0.072   2.900   8.046  0.2808  0.7968  0.6991
   79SLPC  H15X 7331   0.001   2.852   8.114 -0.2310 -1.0798 -0.0650
   79SLPC  H15Y 7332  -0.156   2.835   8.015  1.1996  0.2767 -0.7600
   79SLPC  C316 7333  -0.133   3.031   8.106 -0.0042  0.0355  0.2510
   79SLPC  H16X 7334  -0.224   3.053   8.047 -0.4271 -1.7520  0.2186
   79SLPC  H16Y 7335  -0.057   3.111   8.087  0.1442 -0.7222 -2.5632
   79SLPC  C317 7336  -0.168   3.006   8.258  0.4019 -0.2361 -0.2439
   79SLPC  H17X 7337  -0.076   2.989   8.317 -0.1793  0.3542  0.8604
   79SLPC  H17Y 7338  -0.238   2.921   8.274  0.4724  0.0860  1.8319
   79SLPC  C318 7339  -0.238   3.130   8.307 -0.0247  0.6010 -0.3449
   79SLPC  H18X 7340  -0.244   3.128   8.418  4.1877  0.7736 -0.0373
   79SLPC  H18Y 7341  -0.337   3.130   8.257 -0.0601 -2.3483 -0.3825
   79SLPC  H18Z 7342  -0.175   3.217   8.278  2.0273 -1.7570 -3.2207
   80SLPC     N 7343   0.702   0.371   6.467  0.7252 -0.7074  0.4094
   80SLPC   C13 7344   0.568   0.344   6.515 -0.3731 -0.1775 -0.0244
   80SLPC  H13A 7345   0.493   0.357   6.438  2.3052 -0.5017 -2.7785
   80SLPC  H13B 7346   0.550   0.241   6.542 -1.0960  0.3953  1.7957
   80SLPC  H13C 7347   0.540   0.406   6.599  1.5263  0.8356 -0.1319
   80SLPC   C14 7348   0.699   0.513   6.427 -0.1441  0.2375 -0.1613
   80SLPC  H14A 7349   0.796   0.548   6.394  0.8759 -1.1069  1.3362
   80SLPC  H14B 7350   0.620   0.521   6.354 -0.3273  0.1219  0.0227
   80SLPC  H14C 7351   0.679   0.577   6.512  0.8881  3.5100 -2.2730
   80SLPC   C15 7352   0.725   0.288   6.348  0.0948 -0.3687 -0.2830
   80SLPC  H15A 7353   0.814   0.322   6.296 -1.0371 -1.4336 -3.0320
   80SLPC  H15B 7354   0.735   0.182   6.367 -0.1352 -0.3356  0.0152
   80SLPC  H15C 7355   0.648   0.312   6.277  2.1928  1.9191 -1.8786
   80SLPC   C12 7356   0.806   0.355   6.581 -0.5999  0.3191  0.0902
   80SLPC  H12A 7357   0.792   0.259   6.629  1.2148 -0.3475 -0.6622
   80SLPC  H12B 7358   0.798   0.432   6.657  1.4637  1.8978 -1.2304
   80SLPC   C11 7359   0.957   0.355   6.548  0.7244 -0.7117 -0.0056
   80SLPC  H11A 7360   0.982   0.279   6.470  0.9105 -0.2895 -0.3590
   80SLPC  H11B 7361   1.013   0.322   6.638 -0.4752 -0.4343  0.8555
   80SLPC     P 7362   1.072   0.530   6.394 -0.3228  0.3357 -0.3454
   80SLPC   O13 7363   1.016   0.463   6.277 -0.2181 -0.0244 -0.2144
   80SLPC   O14 7364   1.070   0.677   6.392 -0.4580  0.0381 -0.2400
   80SLPC   O12 7365   0.989   0.490   6.522  0.2956 -0.0321 -0.1757
   80SLPC   O11 7366   1.217   0.480   6.422  0.3008  0.2263  0.0806
   80SLPC    C1 7367   1.319   0.560   6.477 -0.7293  0.0261 -0.1088
   80SLPC    HA 7368   1.416   0.514   6.447 -1.9227 -1.7349 -1.3798
   80SLPC    HB 7369   1.323   0.659   6.426  3.0199 -0.6768 -1.3178
   80SLPC    C2 7370   1.312   0.583   6.630  0.3973  0.2435 -0.8122
   80SLPC    HS 7371   1.248   0.499   6.666 -0.9243  0.7971 -1.7923
   80SLPC   O21 7372   1.252   0.712   6.649  0.3905  0.7105 -0.4190
   80SLPC   C21 7373   1.192   0.717   6.770  0.3289 -0.3231  0.0835
   80SLPC   O22 7374   1.168   0.619   6.840 -0.8375  0.1367 -0.3253
   80SLPC   C22 7375   1.140   0.860   6.797  0.2910  1.2267 -0.3133
   80SLPC   H2R 7376   1.218   0.936   6.775  1.1395  0.9028  1.4769
   80SLPC   H2S 7377   1.065   0.890   6.721  0.7215 -0.6200 -1.5060
   80SLPC    C3 7378   1.454   0.577   6.696  0.4893  0.0410 -0.4561
   80SLPC    HX 7379   1.518   0.648   6.639 -1.3268  1.9897 -0.1709
   80SLPC    HY 7380   1.499   0.477   6.679  0.1119 -0.3390  0.7263
   80SLPC   O31 7381   1.462   0.609   6.834  0.0937  0.2630 -0.0714
   80SLPC   C31 7382   1.445   0.508   6.916  0.0280 -0.0334 -0.3175
   80SLPC   O32 7383   1.424   0.392   6.885 -0.0956 -0.8927 -0.0075
   80SLPC   C32 7384   1.454   0.561   7.056 -0.1040  0.4965 -1.2121
   80SLPC   H2X 7385   1.437   0.671   7.056 -1.3339  0.3279  0.6704
   80SLPC   H2Y 7386   1.555   0.532   7.091 -1.9209 -3.7438  0.8264
   80SLPC   C23 7387   1.085   0.878   6.939 -0.2737  0.2694 -1.4445
   80SLPC   H3R 7388   1.012   0.800   6.967  0.1224  1.1296  2.2750
   80SLPC   H3S 7389   1.031   0.975   6.934  0.8703  1.2101  2.6243
   80SLPC   C24 7390   1.197   0.877   7.040 -0.4813  0.9931 -0.3188
   80SLPC   H4R 7391   1.284   0.942   7.016  0.1620 -0.5091 -2.1246
   80SLPC   H4S 7392   1.239   0.775   7.047  0.6428  1.4813  0.1338
   80SLPC   C25 7393   1.152   0.922   7.182  0.0230 -0.0125 -0.7769
   80SLPC   H5R 7394   1.103   1.019   7.157  0.3873  0.0161 -1.4097
   80SLPC   H5S 7395   1.239   0.938   7.249 -0.2614 -1.6112 -0.0049
   80SLPC   C26 7396   1.060   0.819   7.250  0.1798 -0.0029  0.1047
   80SLPC   H6R 7397   1.106   0.721   7.223 -1.1399 -1.1330  1.8104
   80SLPC   H6S 7398   0.963   0.821   7.196 -0.4130  0.3224  1.1582
   80SLPC   C27 7399   1.043   0.822   7.402 -0.6836  0.2685 -0.2234
   80SLPC   H7R 7400   1.130   0.780   7.458 -0.7735  1.0232  0.4858
   80SLPC   H7S 7401   0.961   0.752   7.429 -0.3106 -0.3801 -0.7530
   80SLPC   C28 7402   0.997   0.957   7.458  0.4352 -0.2271 -0.0705
   80SLPC   H8R 7403   1.074   1.037   7.454  0.7218 -0.5483 -1.3603
   80SLPC   H8S 7404   0.976   0.941   7.566  0.0989 -0.7730 -0.2130
   80SLPC   C29 7405   0.860   1.009   7.400  0.6793  0.2624 -0.1944
   80SLPC   H9R 7406   0.834   0.997   7.294  2.0298 -0.2265 -0.4886
   80SLPC  C210 7407   0.781   1.082   7.482  0.6175 -0.5955 -0.2295
   80SLPC  H10R 7408   0.691   1.124   7.434  0.3392  0.8581  1.5376
   80SLPC  C211 7409   0.793   1.101   7.633 -0.3506 -0.6526 -0.8469
   80SLPC  H11R 7410   0.885   1.157   7.660 -1.7022  0.5250  1.4140
   80SLPC  H11S 7411   0.814   1.006   7.686  2.3666 -0.4857 -1.5196
   80SLPC  C212 7412   0.679   1.171   7.703  0.1817 -0.1639 -0.2626
   80SLPC  H12R 7413   0.587   1.195   7.647  0.5425 -1.9998 -1.6988
   80SLPC  C213 7414   0.684   1.205   7.831 -0.8612 -0.4822 -1.5658
   80SLPC  H13R 7415   0.597   1.259   7.871  0.4263 -0.8309  1.8651
   80SLPC  C214 7416   0.799   1.180   7.929  0.0518  0.3159  0.0567
   80SLPC  H14R 7417   0.889   1.170   7.865 -0.3111  2.3333 -0.7882
   80SLPC  H14S 7418   0.787   1.082   7.981 -1.6772 -0.2416 -1.3546
   80SLPC  C215 7419   0.804   1.292   8.033  1.2752  0.0152  0.3861
   80SLPC  H15R 7420   0.708   1.312   8.085  0.9066  3.1209 -1.3388
   80SLPC  H15S 7421   0.832   1.379   7.970 -0.5524 -0.1353 -0.6829
   80SLPC  C216 7422   0.917   1.269   8.137  0.0690  0.2712  0.0368
   80SLPC  H16R 7423   1.008   1.315   8.093  0.4847  1.0671  1.6693
   80SLPC  H16S 7424   0.933   1.159   8.141 -2.3449 -0.0704  1.8608
   80SLPC  C217 7425   0.882   1.337   8.276  0.1935 -0.1422  0.2414
   80SLPC  H17R 7426   0.794   1.272   8.297 -1.1585  1.2356 -1.0818
   80SLPC  H17S 7427   0.829   1.434   8.266 -2.4779 -1.4407  1.3008
   80SLPC  C218 7428   0.985   1.337   8.385 -0.0985  0.5125 -0.0138
   80SLPC  H18R 7429   1.068   1.407   8.362  0.7604  0.1225  1.7870
   80SLPC  H18S 7430   1.029   1.237   8.407 -2.0494 -0.8510 -2.1475
   80SLPC  H18T 7431   0.944   1.378   8.480 -1.8613 -0.3036 -0.3893
   80SLPC   C33 7432   1.352   0.496   7.155 -0.5101 -0.2212 -0.5930
   80SLPC   H3X 7433   1.379   0.388   7.160 -0.3356 -0.1929 -0.8939
   80SLPC   H3Y 7434   1.251   0.518   7.115  0.1106 -0.4018 -2.2998
   80SLPC   C34 7435   1.370   0.553   7.298  0.2690  0.3029 -0.3780
   80SLPC   H4X 7436   1.375   0.663   7.286 -1.0600  0.2647 -1.4501
   80SLPC   H4Y 7437   1.472   0.525   7.331 -0.3529 -0.5020  0.9048
   80SLPC   C35 7438   1.260   0.512   7.403  0.9766 -0.0256  0.0062
   80SLPC   H5X 7439   1.250   0.402   7.412 -0.0938  0.1016  0.4857
   80SLPC   H5Y 7440   1.166   0.551   7.357  0.3458 -0.0665  1.2286
   80SLPC   C36 7441   1.267   0.592   7.536 -0.0925 -0.0597  0.4858
   80SLPC   H6X 7442   1.290   0.699   7.517  0.2018  0.2164  2.3307
   80SLPC   H6Y 7443   1.362   0.557   7.581  1.0063  1.1994 -0.7896
   80SLPC   C37 7444   1.148   0.586   7.620  0.4157  0.0650  1.0299
   80SLPC   H7X 7445   1.112   0.483   7.638  2.8190 -0.7594  1.2852
   80SLPC   H7Y 7446   1.059   0.631   7.571  0.0582  0.4570  2.0187
   80SLPC   C38 7447   1.174   0.653   7.755  0.0431  0.0953  0.3950
   80SLPC   H8X 7448   1.241   0.737   7.728  2.0519 -0.5985  3.0112
   80SLPC   H8Y 7449   1.235   0.585   7.818 -2.4337 -2.6630 -0.0145
   80SLPC   C39 7450   1.041   0.688   7.823 -0.6250 -0.2570  0.8081
   80SLPC   H9X 7451   0.985   0.593   7.838 -0.7809 -0.3987 -0.6651
   80SLPC   H9Y 7452   0.991   0.772   7.770  0.2550  0.3593  0.9391
   80SLPC  C310 7453   1.070   0.743   7.964  0.6261 -0.8018  0.1561
   80SLPC  H10X 7454   1.145   0.825   7.967 -2.9437  2.6143  1.6147
   80SLPC  H10Y 7455   1.111   0.661   8.027 -0.9983 -1.9479 -0.2420
   80SLPC  C311 7456   0.947   0.780   8.049 -0.1977  0.5481  0.4477
   80SLPC  H11X 7457   0.885   0.688   8.057 -1.8753  1.6327  0.0161
   80SLPC  H11Y 7458   0.891   0.864   8.003 -0.4104 -0.4165 -1.1034
   80SLPC  C312 7459   0.988   0.825   8.187 -0.2593 -0.1268  0.0155
   80SLPC  H12X 7460   1.057   0.911   8.179  1.6526 -1.6928 -0.9564
   80SLPC  H12Y 7461   1.050   0.747   8.237  1.0036  1.3633  0.8226
   80SLPC  C313 7462   0.868   0.880   8.277 -0.3142 -0.2451 -0.3938
   80SLPC  H13X 7463   0.799   0.796   8.299  0.4747 -0.7217  0.2677
   80SLPC  H13Y 7464   0.818   0.955   8.212  0.5159 -0.4407 -1.2750
   80SLPC  C314 7465   0.906   0.947   8.410 -0.1818 -0.0274  0.7140
   80SLPC  H14X 7466   0.880   1.054   8.414  0.8934  0.2767 -0.0645
   80SLPC  H14Y 7467   1.017   0.956   8.410 -0.1401  0.1388 -2.3870
   80SLPC  C315 7468   0.871   0.863   8.535  0.2507  0.3329  0.1742
   80SLPC  H15X 7469   0.880   0.757   8.501  0.6655  0.3894  0.1124
   80SLPC  H15Y 7470   0.767   0.878   8.571  0.2297  0.4602  0.0612
   80SLPC  C316 7471   0.973   0.883   8.648 -0.1876 -1.1005 -0.4126
   80SLPC  H16X 7472   1.072   0.860   8.604  0.6874 -2.4551  2.1847
   80SLPC  H16Y 7473   0.948   0.802   8.719 -1.1174 -2.0098 -1.7524
   80SLPC  C317 7474   0.940   1.016   8.714  0.0890  0.0007 -1.0430
   80SLPC  H17X 7475   0.838   1.027   8.755  0.7601 -0.4763  0.8324
   80SLPC  H17Y 7476   0.961   1.100   8.644  3.5683  1.0749  1.1174
   80SLPC  C318 7477   1.037   1.050   8.827  0.3251  0.2300 -0.4450
   80SLPC  H18X 7478   1.054   0.974   8.906  0.4567  3.1919  2.4903
   80SLPC  H18Y 7479   0.998   1.139   8.881  1.7257 -0.4941  1.8376
   80SLPC  H18Z 7480   1.134   1.076   8.779 -1.2904  1.2024 -3.2959
   81SAPS     N 7481   2.428   2.249  10.908 -0.8176 -1.0638 -0.2866
   81SAPS   HN1 7482   2.344   2.309  10.898 -0.0353  0.1616  0.4394
   81SAPS   HN2 7483   2.518   2.301  10.910 -0.0157 -2.3317 -1.8710
   81SAPS   HN3 7484   2.440   2.180  10.831  0.7642  0.0462 -1.0641
   81SAPS   C12 7485   2.419   2.184  11.043 -0.4911 -0.1679 -0.2149
   81SAPS  H12A 7486   2.495   2.107  11.045  0.1169  0.3337 -2.6988
   81SAPS   C13 7487   2.460   2.293  11.154 -0.1614 -0.4838  0.2195
   81SAPS  O13A 7488   2.482   2.412  11.132  0.7329  0.0730  0.0798
   81SAPS  O13B 7489   2.450   2.250  11.268  0.2040 -0.0877 -0.3572
   81SAPS   C11 7490   2.275   2.126  11.067 -0.2839 -0.2884 -0.1223
   81SAPS  H11A 7491   2.217   2.219  11.087 -0.4855 -0.1587 -1.2720
   81SAPS  H11B 7492   2.286   2.064  11.158 -0.6214 -1.4078 -0.8419
   81SAPS     P 7493   2.097   1.968  10.977 -0.1021  0.1358 -0.2264
   81SAPS   O13 7494   2.145   1.831  10.968 -0.4315 -0.1451  0.1886
   81SAPS   O14 7495   2.023   2.003  11.106 -0.7476 -0.3928  0.3964
   81SAPS   O12 7496   2.228   2.059  10.949 -0.6100  0.4473  0.2551
   81SAPS   O11 7497   1.994   1.993  10.855 -0.1290 -0.2031 -0.5426
   81SAPS    C1 7498   2.032   2.017  10.721  0.1433 -0.2007  0.0668
   81SAPS    HA 7499   2.134   2.061  10.709  0.3989 -0.9821 -0.7075
   81SAPS    HB 7500   2.023   1.920  10.668 -1.2221  0.3992 -0.8313
   81SAPS    C2 7501   1.934   2.111  10.648  0.5947 -0.5546 -0.0383
   81SAPS    HS 7502   1.833   2.067  10.662 -0.1796  0.5972 -1.7807
   81SAPS   O21 7503   1.972   2.122  10.502 -0.3054 -0.1478 -0.2866
   81SAPS   C21 7504   1.922   2.025  10.426  0.3695  0.1768 -0.1635
   81SAPS   O22 7505   1.859   1.929  10.464 -0.4236  0.3532 -0.0390
   81SAPS   C22 7506   1.964   2.055  10.282  0.0772  0.4158  0.1379
   81SAPS   H2R 7507   1.945   2.160  10.251  0.0153  0.3876  0.0804
   81SAPS   H2S 7508   2.074   2.041  10.275  0.0440 -0.2744  0.8950
   81SAPS    C3 7509   1.933   2.255  10.703 -0.4687 -0.0927  0.0324
   81SAPS    HX 7510   2.037   2.296  10.702  1.0898 -3.7877  1.0887
   81SAPS    HY 7511   1.901   2.239  10.808 -2.8925 -0.5465 -0.7406
   81SAPS   O31 7512   1.830   2.322  10.619 -0.5025 -0.3004  0.4603
   81SAPS   C31 7513   1.873   2.399  10.515 -0.1193  0.3396  0.6712
   81SAPS   O32 7514   1.991   2.418  10.501 -0.3328 -0.3167  0.5068
   81SAPS   C32 7515   1.752   2.440  10.433  1.0649 -0.1332  0.5144
   81SAPS   H2X 7516   1.666   2.467  10.498  0.4787  0.6444 -0.5761
   81SAPS   H2Y 7517   1.730   2.352  10.369 -1.8093  0.9935 -0.1313
   81SAPS   C23 7518   1.904   1.957  10.182 -0.0592 -0.2680 -0.5833
   81SAPS   H3R 7519   1.794   1.952  10.192 -0.1728  1.3798 -0.8448
   81SAPS   H3S 7520   1.937   1.855  10.210 -0.7325  0.4786  3.1841
   81SAPS   C24 7521   1.945   1.994  10.039  0.7896 -0.0079  0.4119
   81SAPS   H4R 7522   1.904   1.913   9.976 -2.7106  2.6609 -0.9384
   81SAPS   H4S 7523   2.056   1.995  10.039  0.8065 -1.1446 -0.4764
   81SAPS   C25 7524   1.894   2.122   9.980 -0.0639  0.4226 -0.2716
   81SAPS   H5R 7525   1.866   2.200  10.052 -0.4296 -0.8186  0.9394
   81SAPS   C26 7526   1.859   2.149   9.852 -0.6643 -0.4119  0.0172
   81SAPS   H6R 7527   1.827   2.252   9.830 -0.7757 -0.3972  0.2505
   81SAPS   C27 7528   1.881   2.049   9.735  0.5740 -0.1943 -0.6581
   81SAPS   H7R 7529   1.794   1.979   9.739  1.9681 -2.1058 -2.7526
   81SAPS   H7S 7530   1.972   1.986   9.736  0.5732 -0.1782  1.3959
   81SAPS   C28 7531   1.878   2.113   9.598  0.7167  0.2561 -0.4774
   81SAPS   H8R 7532   1.912   2.217   9.583 -2.4716  1.4000 -0.2400
   81SAPS   C29 7533   1.829   2.053   9.486 -0.1508 -0.3664 -0.5738
   81SAPS   H9R 7534   1.838   2.102   9.387  1.0041  2.3603  0.8220
   81SAPS  C210 7535   1.773   1.915   9.486  0.3415 -0.3380 -0.0493
   81SAPS  H10R 7536   1.677   1.928   9.541  0.9574  3.0352  0.3434
   81SAPS  H10S 7537   1.834   1.853   9.555  0.7409 -0.5075 -0.5570
   81SAPS  C211 7538   1.768   1.825   9.364  0.1567  0.4920 -0.2961
   81SAPS  H11R 7539   1.821   1.729   9.364  2.0746  1.5203 -0.1014
   81SAPS  C212 7540   1.701   1.856   9.255  0.2072 -0.0707 -0.3120
   81SAPS  H12R 7541   1.712   1.784   9.173 -0.8885  0.5557 -1.0184
   81SAPS  C213 7542   1.610   1.970   9.221  0.3076  0.1311  0.4037
   81SAPS  H13R 7543   1.678   2.043   9.172  2.0124  0.3181  2.9901
   81SAPS  H13S 7544   1.569   2.022   9.311 -0.3286  0.2182  0.0692
   81SAPS  C214 7545   1.501   1.933   9.126 -0.2381 -0.6921  0.1101
   81SAPS  H14R 7546   1.413   1.882   9.168 -1.3240  0.2452 -0.9852
   81SAPS  C215 7547   1.503   1.938   8.991  0.0706 -0.2638  0.2503
   81SAPS  H15R 7548   1.406   1.915   8.944 -0.0155 -0.9534  0.7625
   81SAPS  C216 7549   1.607   2.000   8.901 -0.3283 -0.5286  0.0092
   81SAPS  H16R 7550   1.671   2.075   8.953 -1.8980  1.4601 -0.8611
   81SAPS  H16S 7551   1.552   2.072   8.837 -2.0164 -0.6289  1.3265
   81SAPS  C217 7552   1.682   1.905   8.815 -0.4846  0.4964 -0.7856
   81SAPS  H17R 7553   1.611   1.853   8.746  1.5407 -2.8777 -0.4578
   81SAPS  H17S 7554   1.736   1.828   8.875  0.9910 -0.3453 -3.1150
   81SAPS  C218 7555   1.791   1.973   8.723 -0.5012  0.1025 -0.9768
   81SAPS  H18R 7556   1.889   1.961   8.776 -0.3933 -2.2703 -1.6587
   81SAPS  H18S 7557   1.764   2.080   8.730 -0.0267  0.1907 -0.4596
   81SAPS  C219 7558   1.803   1.925   8.580  0.6068  0.0055  0.0419
   81SAPS  H19R 7559   1.795   1.814   8.579  2.4616 -0.1405  0.4225
   81SAPS  H19S 7560   1.906   1.941   8.544  1.5252 -0.0576  2.5415
   81SAPS  C220 7561   1.707   1.987   8.486 -0.2370  0.2071 -0.4806
   81SAPS  H20R 7562   1.721   2.097   8.491  0.4913  0.2305 -2.7686
   81SAPS  H20S 7563   1.601   1.969   8.516  0.6897 -2.3524  1.4673
   81SAPS  H20T 7564   1.714   1.947   8.383 -1.5252  1.2154 -0.9629
   81SAPS   C33 7565   1.764   2.566  10.344 -0.1869  0.2616 -0.0885
   81SAPS   H3X 7566   1.854   2.552  10.280  2.3929  0.8721  3.2874
   81SAPS   H3Y 7567   1.766   2.665  10.394  0.4522  0.3987 -0.3770
   81SAPS   C34 7568   1.634   2.583  10.251 -0.2968  0.3657  0.9689
   81SAPS   H4X 7569   1.555   2.608  10.326 -1.3238  0.1930 -0.0409
   81SAPS   H4Y 7570   1.610   2.490  10.196  1.5926 -0.8245  2.0798
   81SAPS   C35 7571   1.646   2.701  10.158 -0.0600  0.1765 -0.5490
   81SAPS   H5X 7572   1.699   2.788  10.201 -0.4956 -0.0078  0.3652
   81SAPS   H5Y 7573   1.552   2.754  10.133  0.4199  1.9124  1.2446
   81SAPS   C36 7574   1.711   2.655  10.027  0.6241  0.3598 -0.1111
   81SAPS   H6X 7575   1.791   2.580  10.040  0.1496 -0.5616 -2.1799
   81SAPS   H6Y 7576   1.761   2.746   9.986 -0.1700  0.8847  0.0615
   81SAPS   C37 7577   1.628   2.603   9.906 -0.0658  0.2240  0.0942
   81SAPS   H7X 7578   1.538   2.666   9.889  0.3018  1.6358  3.0416
   81SAPS   H7Y 7579   1.597   2.498   9.924  1.0324 -0.1473 -0.1473
   81SAPS   C38 7580   1.722   2.623   9.784  0.7646  0.0086 -0.0292
   81SAPS   H8X 7581   1.817   2.570   9.810  0.0569 -0.8070  0.9425
   81SAPS   H8Y 7582   1.735   2.733   9.771  0.1924  0.2341  1.2674
   81SAPS   C39 7583   1.667   2.566   9.655 -0.7192  0.3347  1.0193
   81SAPS   H9X 7584   1.568   2.610   9.630 -1.4641 -2.0356 -0.3597
   81SAPS   H9Y 7585   1.659   2.455   9.664 -1.5689  0.2619 -0.3844
   81SAPS  C310 7586   1.756   2.586   9.528 -0.5636 -0.4690 -0.1815
   81SAPS  H10X 7587   1.864   2.580   9.553 -0.5655  1.7284  0.3799
   81SAPS  H10Y 7588   1.742   2.685   9.480 -1.6340 -0.0056  1.0468
   81SAPS  C311 7589   1.731   2.484   9.413 -0.6663 -0.9587 -0.6867
   81SAPS  H11X 7590   1.714   2.387   9.465 -0.0359 -0.2778  0.8217
   81SAPS  H11Y 7591   1.813   2.475   9.339  1.2824 -1.7239  1.5146
   81SAPS  C312 7592   1.603   2.506   9.328  0.1994 -0.4049  0.8139
   81SAPS  H12X 7593   1.620   2.594   9.262  1.7779 -0.3874  1.2103
   81SAPS  H12Y 7594   1.515   2.530   9.391 -0.1991 -1.0987  0.5298
   81SAPS  C313 7595   1.564   2.386   9.245 -0.1251  0.2115  0.3373
   81SAPS  H13X 7596   1.537   2.301   9.311 -0.1740  1.1973  1.6136
   81SAPS  H13Y 7597   1.656   2.363   9.187  0.2431 -0.2031  1.0755
   81SAPS  C314 7598   1.447   2.420   9.145 -0.1446 -0.1231  0.0787
   81SAPS  H14X 7599   1.448   2.521   9.098 -1.2563 -1.0497 -1.9850
   81SAPS  H14Y 7600   1.349   2.427   9.198  0.1781  2.1513  0.4589
   81SAPS  C315 7601   1.443   2.326   9.028 -0.1875  0.1802 -0.0187
   81SAPS  H15X 7602   1.445   2.221   9.064 -1.3194  0.9097  2.2589
   81SAPS  H15Y 7603   1.536   2.342   8.969 -1.5046 -1.5961 -2.6981
   81SAPS  C316 7604   1.335   2.364   8.922  0.7389 -1.1553  0.3802
   81SAPS  H16X 7605   1.357   2.472   8.907 -1.2896 -0.8215 -0.2659
   81SAPS  H16Y 7606   1.232   2.371   8.963  0.5755 -1.1191 -0.0327
   81SAPS  C317 7607   1.332   2.277   8.798  0.5843  0.3622  0.2521
   81SAPS  H17X 7608   1.352   2.172   8.829 -0.9681 -0.9969 -3.0752
   81SAPS  H17Y 7609   1.408   2.312   8.725  1.2950 -1.4538  0.1083
   81SAPS  C318 7610   1.186   2.286   8.738  0.3276  0.3422  0.3260
   81SAPS  H18X 7611   1.115   2.256   8.817 -0.1659 -0.8794 -0.5792
   81SAPS  H18Y 7612   1.171   2.211   8.658 -0.7195  1.1222 -0.2257
   81SAPS  H18Z 7613   1.146   2.388   8.717  0.3503  0.0720 -1.0806
   82SAPS     N 7614   0.238   1.030  11.067 -0.8932 -0.2073 -0.7632
   82SAPS   HN1 7615   0.136   1.031  11.049 -0.9492  3.8147 -0.6177
   82SAPS   HN2 7616   0.285   1.027  10.974 -2.2386  2.7688 -1.5795
   82SAPS   HN3 7617   0.268   0.939  11.109  1.6268  0.4178 -1.1236
   82SAPS   C12 7618   0.299   1.138  11.140  0.1000 -0.4073  0.1375
   82SAPS  H12A 7619   0.226   1.167  11.213 -1.0287 -1.1538 -0.6635
   82SAPS   C13 7620   0.426   1.090  11.226 -0.3969 -0.1079 -0.1925
   82SAPS  O13A 7621   0.458   0.969  11.231  0.0167  0.2433  0.2448
   82SAPS  O13B 7622   0.484   1.172  11.297 -0.0130  0.2388 -0.3687
   82SAPS   C11 7623   0.335   1.254  11.036  0.0084  0.4254  0.1377
   82SAPS  H11A 7624   0.407   1.206  10.966  1.1940 -0.7853  2.1323
   82SAPS  H11B 7625   0.390   1.339  11.081  0.6316  0.2586 -0.2994
   82SAPS     P 7626   0.218   1.410  10.857 -0.1031  0.2931 -0.3239
   82SAPS   O13 7627   0.078   1.426  10.802  0.0488  0.3093 -0.1081
   82SAPS   O14 7628   0.286   1.534  10.907  0.2353  0.1184 -0.1492
   82SAPS   O12 7629   0.212   1.303  10.974  0.0217  0.5371  0.2412
   82SAPS   O11 7630   0.305   1.338  10.747 -0.2417  0.3929 -0.1260
   82SAPS    C1 7631   0.447   1.364  10.733 -0.2452  0.0526  0.1434
   82SAPS    HA 7632   0.498   1.407  10.822  1.2586 -1.3118 -0.0361
   82SAPS    HB 7633   0.504   1.273  10.703  0.6614  0.8766 -0.6774
   82SAPS    C2 7634   0.456   1.457  10.605 -0.1239 -0.3323 -0.3359
   82SAPS    HS 7635   0.413   1.555  10.636  1.3940 -0.4247  2.2258
   82SAPS   O21 7636   0.392   1.390  10.494  0.0276 -0.2134 -0.3467
   82SAPS   C21 7637   0.326   1.464  10.417  0.1187 -1.0679  0.3247
   82SAPS   O22 7638   0.297   1.582  10.435  0.2879 -0.1665  0.2906
   82SAPS   C22 7639   0.286   1.376  10.296 -0.3012  0.0950 -0.0957
   82SAPS   H2R 7640   0.369   1.383  10.223  1.3876  1.5229  1.8903
   82SAPS   H2S 7641   0.268   1.271  10.329 -0.2447  0.1839  0.2180
   82SAPS    C3 7642   0.608   1.499  10.585  0.2190 -0.6568 -0.0734
   82SAPS    HX 7643   0.662   1.410  10.546  0.7785  0.5888 -2.2121
   82SAPS    HY 7644   0.661   1.534  10.676  0.6044 -1.3463 -0.0317
   82SAPS   O31 7645   0.615   1.589  10.472  0.4890 -0.0389 -0.3450
   82SAPS   C31 7646   0.623   1.719  10.503  0.6608 -0.2085  1.0266
   82SAPS   O32 7647   0.635   1.766  10.614  0.2854 -0.5461  0.2512
   82SAPS   C32 7648   0.609   1.790  10.362 -0.0718 -0.3945  0.3109
   82SAPS   H2X 7649   0.513   1.755  10.320  0.8704 -0.3429 -1.9090
   82SAPS   H2Y 7650   0.696   1.758  10.302  1.9680 -0.8583  3.3765
   82SAPS   C23 7651   0.157   1.427  10.232  0.2214 -0.4565  0.4763
   82SAPS   H3R 7652   0.184   1.495  10.148  0.8823  2.3688  2.8772
   82SAPS   H3S 7653   0.104   1.502  10.295  0.1935 -0.8764  0.9553
   82SAPS   C24 7654   0.052   1.319  10.194 -0.2964  0.0864  0.0943
   82SAPS   H4R 7655  -0.040   1.364  10.152 -0.9385 -1.0175  0.2994
   82SAPS   H4S 7656   0.035   1.274  10.295 -0.8718  0.8640  0.3469
   82SAPS   C25 7657   0.103   1.212  10.105  0.6435  0.5879  0.1874
   82SAPS   H5R 7658   0.182   1.150  10.150 -1.4215 -2.0444  0.2914
   82SAPS   C26 7659   0.074   1.181   9.974  0.3924 -0.0437 -0.0908
   82SAPS   H6R 7660   0.114   1.091   9.924 -1.3819 -0.4729 -0.7643
   82SAPS   C27 7661  -0.019   1.256   9.885 -0.6634  0.1880 -0.5247
   82SAPS   H7R 7662  -0.116   1.268   9.939 -0.7433  3.8204 -1.3275
   82SAPS   H7S 7663  -0.044   1.187   9.802  0.0302 -2.0305  1.0766
   82SAPS   C28 7664   0.022   1.392   9.839  0.2209 -0.7119 -0.1221
   82SAPS   H8R 7665   0.095   1.454   9.892  1.1881 -0.2130 -1.9907
   82SAPS   C29 7666  -0.053   1.458   9.749  0.6139 -0.0229  0.5441
   82SAPS   H9R 7667  -0.013   1.550   9.703  0.7131 -0.7738 -0.8997
   82SAPS  C210 7668  -0.165   1.391   9.679  0.5948 -0.2180 -0.7436
   82SAPS  H10R 7669  -0.210   1.307   9.736  0.0554  1.3751  1.2121
   82SAPS  H10S 7670  -0.127   1.344   9.586  0.3826  1.3265 -1.6310
   82SAPS  C211 7671  -0.285   1.487   9.642  0.2271 -0.7399  0.6413
   82SAPS  H11R 7672  -0.283   1.580   9.700  1.5453 -0.0745 -0.4504
   82SAPS  C212 7673  -0.367   1.463   9.530  0.1166  0.2240 -0.3721
   82SAPS  H12R 7674  -0.457   1.524   9.537 -0.3510 -0.6403  1.7226
   82SAPS  C213 7675  -0.364   1.345   9.436  0.1714 -0.4162 -0.5843
   82SAPS  H13R 7676  -0.443   1.275   9.468 -0.1013 -0.4305 -1.2773
   82SAPS  H13S 7677  -0.273   1.282   9.442 -1.2357 -2.4918 -0.6168
   82SAPS  C214 7678  -0.386   1.375   9.294  0.0060 -0.4434  0.9501
   82SAPS  H14R 7679  -0.484   1.421   9.274  0.0262 -0.8221 -0.0464
   82SAPS  C215 7680  -0.295   1.359   9.197  0.5551  0.4820  0.2549
   82SAPS  H15R 7681  -0.334   1.396   9.101  0.6660  3.7594  1.3917
   82SAPS  C216 7682  -0.152   1.307   9.199 -0.0771  0.4163 -0.5593
   82SAPS  H16R 7683  -0.160   1.205   9.155  0.2755  0.8019 -1.5128
   82SAPS  H16S 7684  -0.114   1.300   9.303  0.1343  0.7218 -0.6177
   82SAPS  C217 7685  -0.037   1.386   9.133 -0.3613 -0.1099  0.6984
   82SAPS  H17R 7686   0.064   1.349   9.160  0.2386  0.4875 -0.7127
   82SAPS  H17S 7687  -0.049   1.493   9.163 -1.7720 -0.0299 -0.1001
   82SAPS  C218 7688  -0.045   1.368   8.977 -1.1275  0.1589 -0.5262
   82SAPS  H18R 7689  -0.144   1.405   8.941 -0.9299  1.4965  0.2555
   82SAPS  H18S 7690  -0.046   1.260   8.954  0.7226 -0.3259  1.5084
   82SAPS  C219 7691   0.056   1.451   8.900 -0.1684  0.1415 -0.3629
   82SAPS  H19R 7692   0.044   1.557   8.931  1.2136  0.3959 -0.6377
   82SAPS  H19S 7693   0.040   1.435   8.792  4.3977  1.8271 -1.4281
   82SAPS  C220 7694   0.203   1.414   8.926 -0.3466  0.4422  0.1720
   82SAPS  H20R 7695   0.277   1.483   8.881 -1.6055  0.3968 -2.0941
   82SAPS  H20S 7696   0.212   1.311   8.887 -2.0024  0.7706 -1.1906
   82SAPS  H20T 7697   0.214   1.408   9.036 -1.0020  0.0919  0.2221
   82SAPS   C33 7698   0.627   1.943  10.366  0.0918 -0.3595 -0.2979
   82SAPS   H3X 7699   0.735   1.963  10.384  0.3235  0.3339 -2.3208
   82SAPS   H3Y 7700   0.578   1.993  10.452  0.7088 -0.2040 -0.0308
   82SAPS   C34 7701   0.592   2.016  10.237 -0.3786 -0.1884  0.2573
   82SAPS   H4X 7702   0.631   2.120  10.233 -0.8854 -0.0788 -4.1257
   82SAPS   H4Y 7703   0.485   2.021  10.210  0.0024 -1.1030 -1.4650
   82SAPS   C35 7704   0.666   1.963  10.108  0.2515 -0.3318  0.0678
   82SAPS   H5X 7705   0.616   1.869  10.076 -2.1359  0.2452  1.8753
   82SAPS   H5Y 7706   0.766   1.929  10.141  0.1348 -1.9908 -1.2720
   82SAPS   C36 7707   0.706   2.062   9.996 -0.0513  0.2615 -0.8440
   82SAPS   H6X 7708   0.744   2.157  10.040 -2.7697  0.5429  1.0388
   82SAPS   H6Y 7709   0.619   2.089   9.932  0.4347 -0.1044 -1.6673
   82SAPS   C37 7710   0.812   2.008   9.914 -0.2621  0.0926 -0.1459
   82SAPS   H7X 7711   0.892   1.975   9.985 -2.0751  1.3072  2.5341
   82SAPS   H7Y 7712   0.853   2.088   9.849  0.0315  0.0351 -0.0342
   82SAPS   C38 7713   0.765   1.894   9.825 -0.4216 -0.1242  0.3902
   82SAPS   H8X 7714   0.661   1.917   9.795  0.0214  0.8887 -0.4072
   82SAPS   H8Y 7715   0.756   1.803   9.888  0.2235 -0.3123  0.2198
   82SAPS   C39 7716   0.850   1.865   9.704 -0.1584 -0.5170  0.7197
   82SAPS   H9X 7717   0.958   1.841   9.715  0.4753  0.8738 -2.1872
   82SAPS   H9Y 7718   0.855   1.957   9.643  1.0210 -1.0156  0.0471
   82SAPS  C310 7719   0.788   1.753   9.617  0.0266  0.4424 -0.2902
   82SAPS  H10X 7720   0.693   1.799   9.582  0.8396  1.1862 -1.5175
   82SAPS  H10Y 7721   0.767   1.662   9.679 -1.3350  0.3774 -0.8210
   82SAPS  C311 7722   0.862   1.711   9.485 -0.6346  0.0088  0.5325
   82SAPS  H11X 7723   0.972   1.694   9.499 -0.3050  0.1839 -1.7590
   82SAPS  H11Y 7724   0.852   1.797   9.416  0.7276 -1.5052 -1.6106
   82SAPS  C312 7725   0.796   1.596   9.402 -0.1764 -1.0566 -0.0198
   82SAPS  H12X 7726   0.694   1.631   9.374  1.4744  3.2307 -1.0001
   82SAPS  H12Y 7727   0.781   1.506   9.466  0.6619 -0.8135  0.5276
   82SAPS  C313 7728   0.862   1.574   9.265 -0.1193  0.1490 -0.5257
   82SAPS  H13X 7729   0.967   1.539   9.279 -0.0462  0.0370 -1.3346
   82SAPS  H13Y 7730   0.879   1.673   9.218  0.2533 -0.4764 -1.7158
   82SAPS  C314 7731   0.783   1.478   9.173  0.3799  0.4246 -0.7957
   82SAPS  H14X 7732   0.675   1.486   9.197  0.7824 -0.7874  1.6044
   82SAPS  H14Y 7733   0.803   1.371   9.197  2.3256  0.7690 -0.7400
   82SAPS  C315 7734   0.793   1.517   9.029  0.1120  0.2951  0.1054
   82SAPS  H15X 7735   0.792   1.626   9.008 -3.5151  0.2278 -0.3961
   82SAPS  H15Y 7736   0.705   1.470   8.982 -1.0483  0.1583  2.3642
   82SAPS  C316 7737   0.934   1.480   8.975 -0.1991  0.3248  0.6290
   82SAPS  H16X 7738   0.967   1.390   9.032 -0.6941  0.5183  1.2284
   82SAPS  H16Y 7739   1.008   1.557   9.006  1.8754 -1.5463  0.4520
   82SAPS  C317 7740   0.923   1.461   8.824  0.0366  0.1107  0.2562
   82SAPS  H17X 7741   0.904   1.563   8.785 -1.4462 -0.2564  0.0085
   82SAPS  H17Y 7742   0.834   1.396   8.814 -0.3426  0.6763 -0.0829
   82SAPS  C318 7743   1.046   1.416   8.749 -0.1806  0.1109 -0.8119
   82SAPS  H18X 7744   1.109   1.355   8.817 -0.0913 -1.4169 -2.2346
   82SAPS  H18Y 7745   1.109   1.500   8.711  1.0703 -0.3885  0.1443
   82SAPS  H18Z 7746   1.030   1.354   8.659 -1.1509 -1.6922  0.5732
   83SAPS     N 7747   1.546   2.931  11.237 -0.0036 -0.0909  0.2518
   83SAPS   HN1 7748   1.588   2.917  11.331  1.3625 -0.1053 -0.3396
   83SAPS   HN2 7749   1.446   2.909  11.255  0.0696 -0.5768  0.0688
   83SAPS   HN3 7750   1.596   2.870  11.169  2.5439  0.4913  1.5527
   83SAPS   C12 7751   1.549   3.081  11.213 -0.0686 -0.2595  0.8421
   83SAPS  H12A 7752   1.529   3.096  11.108 -2.4180 -0.4978  1.2285
   83SAPS   C13 7753   1.448   3.171  11.291 -0.3847 -0.9286  0.4252
   83SAPS  O13A 7754   1.381   3.126  11.389 -0.3555 -0.1054 -0.0972
   83SAPS  O13B 7755   1.453   3.299  11.260 -0.8075  0.2043 -0.5085
   83SAPS   C11 7756   1.690   3.138  11.240 -0.1838  0.1208  0.3396
   83SAPS  H11A 7757   1.708   3.138  11.349 -0.1446 -0.6482  0.3383
   83SAPS  H11B 7758   1.684   3.242  11.201  0.5480  1.0164  2.5780
   83SAPS     P 7759   1.930   3.137  11.142  0.2683 -0.4872 -0.4622
   83SAPS   O13 7760   1.921   3.282  11.167  0.2614 -0.3046  0.6048
   83SAPS   O14 7761   2.038   3.073  11.214  0.0841  0.1714 -0.2126
   83SAPS   O12 7762   1.793   3.070  11.175  0.0868  0.9450  0.8726
   83SAPS   O11 7763   1.946   3.123  10.984 -0.0764  0.2583  0.1094
   83SAPS    C1 7764   1.836   3.192  10.902 -0.0862  0.0313 -0.6093
   83SAPS    HA 7765   1.757   3.116  10.884 -0.8568  0.5568  0.5013
   83SAPS    HB 7766   1.779   3.273  10.952  0.8961  1.1022 -1.1967
   83SAPS    C2 7767   1.886   3.256  10.769  0.0657 -0.3259 -0.3704
   83SAPS    HS 7768   1.805   3.289  10.701  1.0616 -0.4188 -1.6042
   83SAPS   O21 7769   1.973   3.156  10.710 -0.0094  0.4778 -0.0082
   83SAPS   C21 7770   1.917   3.069  10.633  0.5628  1.4106  0.0826
   83SAPS   O22 7771   1.794   3.057  10.616  0.3493 -0.2795  0.0252
   83SAPS   C22 7772   2.013   2.971  10.571  0.6176 -0.3268 -0.0618
   83SAPS   H2R 7773   2.112   3.023  10.579  0.5416 -0.2797  0.6231
   83SAPS   H2S 7774   2.024   2.884  10.639 -0.1844  0.4737  1.1150
   83SAPS    C3 7775   1.970   3.377  10.800 -0.2515  0.4476 -0.2243
   83SAPS    HX 7776   2.053   3.362  10.872  1.3886 -0.2190 -2.2148
   83SAPS    HY 7777   1.906   3.457  10.843 -0.1284  0.5956 -0.3184
   83SAPS   O31 7778   2.027   3.438  10.684  0.8456  0.6372 -0.0119
   83SAPS   C31 7779   2.140   3.399  10.636 -0.0668  0.1735  0.3016
   83SAPS   O32 7780   2.209   3.306  10.685  0.0934 -0.3803 -0.4709
   83SAPS   C32 7781   2.170   3.470  10.504  0.1747  0.0577 -0.5149
   83SAPS   H2X 7782   2.234   3.560  10.516 -1.1853  1.6097 -4.1780
   83SAPS   H2Y 7783   2.083   3.524  10.460  0.5686 -0.6417 -2.2020
   83SAPS   C23 7784   1.980   2.907  10.434  0.2829 -0.2148 -0.4638
   83SAPS   H3R 7785   1.891   2.841  10.445 -1.5350  2.2344  0.0319
   83SAPS   H3S 7786   2.064   2.838  10.413  0.9634  0.0961  1.2124
   83SAPS   C24 7787   1.969   3.003  10.315  0.1440 -0.1997  0.3275
   83SAPS   H4R 7788   2.047   3.082  10.313  2.1368 -2.0518  2.3293
   83SAPS   H4S 7789   1.876   3.056  10.347  0.4864 -0.3570  1.6092
   83SAPS   C25 7790   1.964   2.921  10.192 -0.5303  0.3712  0.1341
   83SAPS   H5R 7791   1.918   2.824  10.216 -2.6655  1.4730  0.6041
   83SAPS   C26 7792   2.005   2.957  10.068 -0.8138  0.1425  0.4122
   83SAPS   H6R 7793   1.991   2.888   9.983 -0.5271 -1.7202  1.8546
   83SAPS   C27 7794   2.057   3.089  10.030  1.0382  0.6364  0.1738
   83SAPS   H7R 7795   2.066   3.167  10.109 -0.6523  0.6257  0.3961
   83SAPS   H7S 7796   1.986   3.124   9.952 -0.6477  1.3496  1.9881
   83SAPS   C28 7797   2.198   3.075   9.980 -0.2992 -0.1330 -0.6027
   83SAPS   H8R 7798   2.275   3.031  10.044 -0.5893 -0.5598 -0.5440
   83SAPS   C29 7799   2.246   3.118   9.864  0.1392 -0.1724 -0.1207
   83SAPS   H9R 7800   2.352   3.109   9.836  0.2414 -0.3722  0.3274
   83SAPS  C210 7801   2.168   3.198   9.766  0.0648  0.4071 -0.1582
   83SAPS  H10R 7802   2.176   3.307   9.788 -1.2568  0.1009  1.9052
   83SAPS  H10S 7803   2.058   3.182   9.772  0.2709 -1.4174 -0.7508
   83SAPS  C211 7804   2.201   3.176   9.619 -0.2359 -0.2759 -0.6494
   83SAPS  H11R 7805   2.213   3.270   9.564  0.0377 -1.3254 -2.4368
   83SAPS  C212 7806   2.177   3.067   9.548  0.4073  0.3562 -0.1614
   83SAPS  H12R 7807   2.204   3.056   9.442 -0.4752  0.1829 -0.3719
   83SAPS  C213 7808   2.124   2.938   9.606  0.4351 -0.2569 -0.2186
   83SAPS  H13R 7809   2.154   2.921   9.711 -0.9656  0.6585  0.3361
   83SAPS  H13S 7810   2.179   2.860   9.548 -0.2749 -0.9612  0.0509
   83SAPS  C214 7811   1.969   2.931   9.586  0.1594 -0.5547 -0.0382
   83SAPS  H14R 7812   1.903   2.974   9.663 -0.7466  0.7974 -1.5357
   83SAPS  C215 7813   1.910   2.884   9.473  0.1760  0.0815 -0.5446
   83SAPS  H15R 7814   1.801   2.893   9.472  0.1685 -0.0130 -1.4732
   83SAPS  C216 7815   1.977   2.826   9.351 -0.2482 -0.6089 -0.6422
   83SAPS  H16R 7816   1.968   2.715   9.345  2.6663 -1.3113  4.7722
   83SAPS  H16S 7817   2.085   2.849   9.366 -0.7215  0.3139  1.5854
   83SAPS  C217 7818   1.921   2.877   9.213  0.2143 -0.7257  0.2002
   83SAPS  H17R 7819   1.999   2.857   9.136 -0.9590  0.1835 -1.2633
   83SAPS  H17S 7820   1.913   2.988   9.208 -0.5472 -0.8054 -0.6652
   83SAPS  C218 7821   1.788   2.814   9.185  0.0096 -0.2230  0.4227
   83SAPS  H18R 7822   1.711   2.859   9.252 -1.5153 -1.4221 -0.5101
   83SAPS  H18S 7823   1.786   2.703   9.194 -2.7068 -0.2743 -0.5449
   83SAPS  C219 7824   1.751   2.834   9.038  0.5204 -0.0129  0.6306
   83SAPS  H19R 7825   1.825   2.777   8.978  1.7164  1.1254  0.9836
   83SAPS  H19S 7826   1.763   2.944   9.028 -0.7457  0.2632  1.9432
   83SAPS  C220 7827   1.611   2.789   9.014  0.6410  0.4852 -0.1582
   83SAPS  H20R 7828   1.537   2.841   9.078 -0.5404 -1.2307 -0.0967
   83SAPS  H20S 7829   1.592   2.680   9.023 -0.2009  0.4747 -1.9229
   83SAPS  H20T 7830   1.573   2.819   8.914 -2.1699 -0.2351  0.6551
   83SAPS   C33 7831   2.226   3.369  10.401 -0.1795  0.2200  0.0964
   83SAPS   H3X 7832   2.151   3.295  10.365 -0.4123  0.6185 -0.2462
   83SAPS   H3Y 7833   2.316   3.320  10.444  0.7182  2.4221  0.7918
   83SAPS   C34 7834   2.262   3.456  10.282 -0.2450  0.3925 -0.2827
   83SAPS   H4X 7835   2.173   3.512  10.247 -0.5749  0.4809  0.6837
   83SAPS   H4Y 7836   2.274   3.383  10.199 -0.6049 -0.2154  0.1984
   83SAPS   C35 7837   2.384   3.549  10.298  0.6610 -0.2188 -0.2020
   83SAPS   H5X 7838   2.459   3.492  10.356 -1.3551 -0.1055  2.6264
   83SAPS   H5Y 7839   2.346   3.630  10.364  1.9525 -1.4504  2.1047
   83SAPS   C36 7840   2.440   3.606  10.163 -0.4308  0.0934  0.6360
   83SAPS   H6X 7841   2.505   3.693  10.187 -3.6315  2.5967  0.5955
   83SAPS   H6Y 7842   2.357   3.660  10.112 -0.1026 -0.7108 -0.7566
   83SAPS   C37 7843   2.523   3.507  10.078  0.0284  0.0861  0.1612
   83SAPS   H7X 7844   2.465   3.413  10.068 -1.2487  1.0867 -2.1362
   83SAPS   H7Y 7845   2.612   3.476  10.137  1.0056  1.2934 -0.6570
   83SAPS   C38 7846   2.563   3.563   9.937  0.2889  0.7818  0.1505
   83SAPS   H8X 7847   2.638   3.491   9.897 -0.4601  0.1083 -0.0667
   83SAPS   H8Y 7848   2.605   3.665   9.938 -2.3665  1.9125 -0.0584
   83SAPS   C39 7849   2.446   3.560   9.832  0.0907 -0.7822  0.6150
   83SAPS   H9X 7850   2.362   3.624   9.867 -0.9938 -0.4382 -2.4718
   83SAPS   H9Y 7851   2.420   3.452   9.831  0.1415 -0.8192  2.3381
   83SAPS  C310 7852   2.488   3.600   9.686  0.0214 -0.1330 -0.1997
   83SAPS  H10X 7853   2.582   3.553   9.651 -0.7935 -1.2878 -0.8710
   83SAPS  H10Y 7854   2.493   3.710   9.699 -0.4051 -0.4021  2.4892
   83SAPS  C311 7855   2.371   3.557   9.587  0.4997  0.3332  0.3729
   83SAPS  H11X 7856   2.275   3.606   9.618  0.3032  0.0447  0.2204
   83SAPS  H11Y 7857   2.353   3.449   9.599 -0.8815  0.2550 -2.0061
   83SAPS  C312 7858   2.399   3.597   9.440 -0.9513  0.1344 -0.0363
   83SAPS  H12X 7859   2.493   3.542   9.416 -0.2210  0.7706  1.3099
   83SAPS  H12Y 7860   2.442   3.699   9.440  0.2072 -0.3215  1.6768
   83SAPS  C313 7861   2.275   3.564   9.344 -0.3185  0.0942 -0.4903
   83SAPS  H13X 7862   2.196   3.642   9.353 -1.7532 -1.2295 -1.3076
   83SAPS  H13Y 7863   2.235   3.466   9.378 -0.2186 -0.1781 -1.1430
   83SAPS  C314 7864   2.315   3.556   9.190  0.1603  0.5335  0.2459
   83SAPS  H14X 7865   2.396   3.481   9.183 -0.3942 -0.2088  1.5258
   83SAPS  H14Y 7866   2.345   3.655   9.149 -2.0693  1.4050  0.6564
   83SAPS  C315 7867   2.198   3.505   9.102 -0.6299  0.6096 -0.2247
   83SAPS  H15X 7868   2.141   3.419   9.142  1.8911 -0.7825  0.4898
   83SAPS  H15Y 7869   2.247   3.476   9.006 -1.7416 -0.8191 -0.3784
   83SAPS  C316 7870   2.097   3.614   9.064 -0.0464  0.4731 -0.2886
   83SAPS  H16X 7871   2.151   3.688   9.001  0.2780  0.2860 -0.2340
   83SAPS  H16Y 7872   2.051   3.652   9.157 -0.5381  1.3845 -0.8986
   83SAPS  C317 7873   1.986   3.557   8.965 -0.0182 -0.4081 -0.4091
   83SAPS  H17X 7874   1.931   3.474   9.015 -0.0893  0.1825  0.5144
   83SAPS  H17Y 7875   2.048   3.517   8.882 -1.0590 -0.6690 -1.0692
   83SAPS  C318 7876   1.892   3.663   8.909  0.0785 -0.3706  0.1328
   83SAPS  H18X 7877   1.841   3.730   8.982  0.0229 -0.7551  0.4504
   83SAPS  H18Y 7878   1.814   3.614   8.847  0.1319  0.4607 -0.6062
   83SAPS  H18Z 7879   1.954   3.733   8.848  0.8231 -0.9348  0.2430
   84SAPS     N 7880   3.816   2.560  10.718  0.2526 -0.1609  0.0277
   84SAPS   HN1 7881   3.899   2.606  10.678 -0.8007 -0.5236 -2.6342
   84SAPS   HN2 7882   3.834   2.479  10.781 -1.2972 -0.5321  0.0295
   84SAPS   HN3 7883   3.753   2.523  10.644  1.2819  2.2789 -2.1107
   84SAPS   C12 7884   3.746   2.659  10.807  0.2482 -0.1314 -0.6579
   84SAPS  H12A 7885   3.707   2.606  10.893  1.0789  1.8157  0.9405
   84SAPS   C13 7886   3.835   2.772  10.866  0.2051  1.4176  0.8488
   84SAPS  O13A 7887   3.959   2.751  10.864  0.1669 -0.0123 -0.5986
   84SAPS  O13B 7888   3.792   2.861  10.941 -0.0178  0.0330  0.2200
   84SAPS   C11 7889   3.630   2.722  10.729 -0.2330  0.4508 -0.1833
   84SAPS  H11A 7890   3.678   2.779  10.646 -0.4866  0.2290 -0.4824
   84SAPS  H11B 7891   3.568   2.791  10.791  0.5322 -0.7066  1.8959
   84SAPS     P 7892   3.403   2.567  10.738 -0.1587 -0.1218  0.1462
   84SAPS   O13 7893   3.409   2.564  10.886 -0.2903 -0.1894 -0.3549
   84SAPS   O14 7894   3.296   2.645  10.671  0.3141  0.2337 -0.2275
   84SAPS   O12 7895   3.545   2.620  10.678  0.1735  0.1797 -0.0366
   84SAPS   O11 7896   3.389   2.416  10.695  0.5627 -0.1439 -0.2970
   84SAPS    C1 7897   3.497   2.336  10.652  0.1555 -0.3695  0.4592
   84SAPS    HA 7898   3.598   2.377  10.676  0.4239 -0.7419 -0.0107
   84SAPS    HB 7899   3.501   2.238  10.704  2.1892 -1.4692 -1.6712
   84SAPS    C2 7900   3.479   2.297  10.501 -0.1844 -0.3297  0.5167
   84SAPS    HS 7901   3.570   2.243  10.469 -0.6546 -0.5376 -0.4815
   84SAPS   O21 7902   3.469   2.416  10.421 -0.4592 -0.1678 -0.0484
   84SAPS   C21 7903   3.574   2.498  10.415  0.1658 -0.0317  0.0403
   84SAPS   O22 7904   3.682   2.475  10.470  0.3493 -0.8095 -0.2264
   84SAPS   C22 7905   3.546   2.619  10.322  0.7996  0.1135 -0.1075
   84SAPS   H2R 7906   3.557   2.703  10.393 -0.4783  1.0814 -1.0337
   84SAPS   H2S 7907   3.636   2.615  10.258  1.9757 -0.2158  1.5196
   84SAPS    C3 7908   3.354   2.213  10.477  0.6911 -0.2173  0.3265
   84SAPS    HX 7909   3.283   2.256  10.550  1.1026  3.6582 -1.4311
   84SAPS    HY 7910   3.367   2.108  10.510 -1.4029 -1.1970 -1.8280
   84SAPS   O31 7911   3.304   2.203  10.340 -0.5524  0.1207  0.3246
   84SAPS   C31 7912   3.219   2.298  10.302 -0.0632 -0.7970 -0.2761
   84SAPS   O32 7913   3.170   2.382  10.375 -0.1523  0.2497 -0.3185
   84SAPS   C32 7914   3.163   2.257  10.167  0.7154  0.1170 -0.7687
   84SAPS   H2X 7915   3.113   2.346  10.123 -1.8178 -1.5577 -1.3975
   84SAPS   H2Y 7916   3.084   2.179  10.177  0.5023  0.2641 -1.2914
   84SAPS   C23 7917   3.407   2.613  10.260 -0.1114  0.4326 -0.0044
   84SAPS   H3R 7918   3.328   2.596  10.335 -0.1896  0.9354  0.0253
   84SAPS   H3S 7919   3.399   2.531  10.185 -1.3856 -0.5114  1.1486
   84SAPS   C24 7920   3.367   2.745  10.186  0.1459  1.0478 -0.6414
   84SAPS   H4R 7921   3.362   2.820  10.268 -0.8313  0.4744 -0.1673
   84SAPS   H4S 7922   3.263   2.735  10.150 -0.6248  2.1464  1.2179
   84SAPS   C25 7923   3.466   2.775  10.074  0.5730 -0.7450  0.1188
   84SAPS   H5R 7924   3.536   2.857  10.096  1.8747 -1.0400 -2.7643
   84SAPS   C26 7925   3.479   2.717   9.956 -0.1183 -0.0355 -0.4706
   84SAPS   H6R 7926   3.564   2.744   9.893 -0.6206  0.5211 -0.9134
   84SAPS   C27 7927   3.407   2.601   9.898  0.0048 -0.3966 -0.0957
   84SAPS   H7R 7928   3.402   2.519   9.972 -1.0936 -1.7839 -1.6796
   84SAPS   H7S 7929   3.471   2.561   9.816  2.1797  0.6977  1.0253
   84SAPS   C28 7930   3.264   2.633   9.850 -0.3041 -0.2212  0.1479
   84SAPS   H8R 7931   3.190   2.589   9.918 -2.0289  2.7539  0.3103
   84SAPS   C29 7932   3.225   2.703   9.748 -0.1580  0.4587  0.2284
   84SAPS   H9R 7933   3.118   2.712   9.727 -0.4552 -1.8920  0.5551
   84SAPS  C210 7934   3.313   2.769   9.639  0.1272 -1.0205  0.3232
   84SAPS  H10R 7935   3.412   2.795   9.682  0.1894 -2.5474  1.1231
   84SAPS  H10S 7936   3.267   2.865   9.607  3.0676 -0.0230 -1.1442
   84SAPS  C211 7937   3.347   2.674   9.530 -0.0666  0.4058  0.2214
   84SAPS  H11R 7938   3.384   2.581   9.575 -2.2959  0.4523  2.2682
   84SAPS  C212 7939   3.337   2.698   9.400  0.0064 -0.6351  0.8510
   84SAPS  H12R 7940   3.350   2.611   9.335 -2.3560  0.3740 -1.0454
   84SAPS  C213 7941   3.296   2.826   9.340  0.1814  0.6387 -0.5806
   84SAPS  H13R 7942   3.391   2.864   9.297  0.3948 -1.0666 -1.6718
   84SAPS  H13S 7943   3.252   2.906   9.403  2.2496  0.0631  1.6409
   84SAPS  C214 7944   3.192   2.811   9.234 -0.3104 -0.1454  0.7031
   84SAPS  H14R 7945   3.091   2.796   9.276 -1.6721  0.7197 -2.1317
   84SAPS  C215 7946   3.206   2.783   9.102  0.4744 -0.2232 -0.1991
   84SAPS  H15R 7947   3.121   2.781   9.032 -0.9791  0.7088  1.5180
   84SAPS  C216 7948   3.331   2.772   9.021 -0.2284 -0.3841 -0.2774
   84SAPS  H16R 7949   3.409   2.723   9.082 -1.8443 -2.5174  0.1265
   84SAPS  H16S 7950   3.378   2.862   8.977 -0.6047 -0.6891 -1.3083
   84SAPS  C217 7951   3.313   2.663   8.915  0.0248  1.5654 -0.0061
   84SAPS  H17R 7952   3.224   2.678   8.850  1.8348  1.4873 -2.6200
   84SAPS  H17S 7953   3.297   2.568   8.969  2.6958  0.8412 -0.4099
   84SAPS  C218 7954   3.440   2.652   8.829  0.7146  0.0751 -0.8503
   84SAPS  H18R 7955   3.521   2.633   8.903 -1.9223  0.8180  2.3422
   84SAPS  H18S 7956   3.480   2.747   8.787 -0.4634  1.8941  2.0312
   84SAPS  C219 7957   3.454   2.540   8.732 -0.2759  0.0834 -0.6985
   84SAPS  H19R 7958   3.364   2.546   8.667 -1.6464 -0.3631  1.1096
   84SAPS  H19S 7959   3.471   2.439   8.774  3.0691  1.5630  1.7104
   84SAPS  C220 7960   3.581   2.562   8.644  0.2311 -0.3538  0.3268
   84SAPS  H20R 7961   3.587   2.645   8.572 -0.8994 -2.6953 -2.5723
   84SAPS  H20S 7962   3.589   2.467   8.587 -1.3044 -0.7788  0.7916
   84SAPS  H20T 7963   3.669   2.588   8.706  1.2408  1.9635 -2.0118
   84SAPS   C33 7964   3.264   2.206  10.065 -0.0714 -0.2191  0.4759
   84SAPS   H3X 7965   3.315   2.122  10.116  0.5093  0.6932  1.4328
   84SAPS   H3Y 7966   3.339   2.286  10.051 -1.7087  0.9779 -1.6200
   84SAPS   C34 7967   3.210   2.182   9.921  0.6194  0.5435 -0.5862
   84SAPS   H4X 7968   3.179   2.273   9.865 -0.1630  1.3392  1.1152
   84SAPS   H4Y 7969   3.120   2.117   9.917 -0.4353  1.9651 -0.1683
   84SAPS   C35 7970   3.326   2.125   9.837 -0.2236 -0.3218  0.3455
   84SAPS   H5X 7971   3.338   2.017   9.864  0.3931 -1.1453 -3.0203
   84SAPS   H5Y 7972   3.422   2.176   9.857 -1.2922  1.3816  1.1962
   84SAPS   C36 7973   3.304   2.139   9.684  0.3222 -0.0452 -0.5233
   84SAPS   H6X 7974   3.198   2.137   9.651  0.5942  0.7133 -1.4487
   84SAPS   H6Y 7975   3.367   2.058   9.642 -0.7092 -1.3392  0.3906
   84SAPS   C37 7976   3.360   2.268   9.629 -0.4209 -0.1206 -0.3376
   84SAPS   H7X 7977   3.464   2.269   9.667 -0.5989 -1.0258  0.1865
   84SAPS   H7Y 7978   3.298   2.349   9.672  0.3759  0.0920  0.4214
   84SAPS   C38 7979   3.358   2.281   9.472  0.0994  0.2428  0.1354
   84SAPS   H8X 7980   3.419   2.200   9.426 -0.4800 -0.2616  0.2470
   84SAPS   H8Y 7981   3.404   2.382   9.466  0.2546  0.1931  0.4597
   84SAPS   C39 7982   3.220   2.268   9.407  0.1177  0.5500  0.3716
   84SAPS   H9X 7983   3.149   2.342   9.449 -0.9708  0.2070 -0.8244
   84SAPS   H9Y 7984   3.184   2.164   9.424 -1.2825  0.9578 -0.0318
   84SAPS  C310 7985   3.227   2.272   9.252  0.0013 -0.9693 -0.1000
   84SAPS  H10X 7986   3.261   2.177   9.206  2.7253  0.6236 -1.4927
   84SAPS  H10Y 7987   3.310   2.344   9.232 -0.0248 -1.3691 -1.7650
   84SAPS  C311 7988   3.109   2.320   9.165  0.4962  0.1831  0.3237
   84SAPS  H11X 7989   3.079   2.426   9.182 -3.2125 -0.6502 -0.6009
   84SAPS  H11Y 7990   3.021   2.258   9.193 -1.0785  0.6094 -3.3695
   84SAPS  C312 7991   3.129   2.317   9.008  0.1354  0.3448 -0.5167
   84SAPS  H12X 7992   3.225   2.369   8.987  1.0922 -0.4431  1.7788
   84SAPS  H12Y 7993   3.043   2.364   8.957 -0.2949  0.2546  0.1238
   84SAPS  C313 7994   3.141   2.169   8.955  0.4304  1.1259  0.6235
   84SAPS  H13X 7995   3.037   2.130   8.962  0.4797  0.3724 -2.2471
   84SAPS  H13Y 7996   3.216   2.102   9.002  1.5008  0.7576 -1.5415
   84SAPS  C314 7997   3.165   2.158   8.801 -0.3008 -1.2160  0.0024
   84SAPS  H14X 7998   3.255   2.216   8.771  0.3768 -1.9237  0.6325
   84SAPS  H14Y 7999   3.072   2.190   8.751 -1.4531 -2.7764  1.0695
   84SAPS  C315 8000   3.189   2.017   8.749  0.1768  0.0163 -0.4236
   84SAPS  H15X 8001   3.089   1.971   8.758  0.6766 -0.8315  0.7852
   84SAPS  H15Y 8002   3.255   1.963   8.819 -2.2864 -0.1596  1.8216
   84SAPS  C316 8003   3.240   2.013   8.599  0.1427  0.1591  0.5660
   84SAPS  H16X 8004   3.339   2.063   8.600 -0.2467  1.0755 -1.7436
   84SAPS  H16Y 8005   3.165   2.071   8.542 -1.8232 -2.1780  0.6712
   84SAPS  C317 8006   3.264   1.877   8.537 -0.2313 -0.7567  1.0116
   84SAPS  H17X 8007   3.166   1.825   8.539 -1.0981  0.7539 -0.2409
   84SAPS  H17Y 8008   3.335   1.809   8.589 -1.2644 -1.9692  0.8417
   84SAPS  C318 8009   3.324   1.890   8.392  0.0965  0.0073 -0.2976
   84SAPS  H18X 8010   3.428   1.929   8.397 -0.6780  2.1864 -0.6182
   84SAPS  H18Y 8011   3.263   1.959   8.331  0.1706  0.7798  0.4896
   84SAPS  H18Z 8012   3.322   1.784   8.358 -2.4401  0.4451 -1.5673
   85SAPS     N 8013   0.668   4.622  10.755 -0.2170  0.2838  0.3932
   85SAPS   HN1 8014   0.601   4.680  10.699 -0.4441 -0.6713 -0.3521
   85SAPS   HN2 8015   0.742   4.690  10.779 -0.3119  0.1935  0.9431
   85SAPS   HN3 8016   0.703   4.546  10.693 -0.8304 -0.0029  0.3885
   85SAPS   C12 8017   0.599   4.582  10.873  0.0844 -0.2520 -0.8301
   85SAPS  H12A 8018   0.676   4.579  10.950 -0.9812  0.7465  0.2829
   85SAPS   C13 8019   0.492   4.685  10.910  0.1310  0.6796  0.5810
   85SAPS  O13A 8020   0.446   4.749  10.814 -0.5211  0.3852 -0.0589
   85SAPS  O13B 8021   0.429   4.670  11.023 -0.3855 -0.0750 -0.3990
   85SAPS   C11 8022   0.531   4.439  10.860  0.4785  0.4489 -0.1534
   85SAPS  H11A 8023   0.445   4.441  10.790  0.4945  1.8975 -0.1447
   85SAPS  H11B 8024   0.492   4.414  10.960 -2.7774 -1.4629 -1.8022
   85SAPS     P 8025   0.650   4.214  10.899 -0.1355 -0.2760 -0.2284
   85SAPS   O13 8026   0.672   4.251  11.043 -0.5829 -0.1010  0.2364
   85SAPS   O14 8027   0.543   4.115  10.868 -0.2412 -0.5349 -0.8845
   85SAPS   O12 8028   0.627   4.341  10.811  0.6553  0.7441 -0.2309
   85SAPS   O11 8029   0.780   4.147  10.849 -0.3290 -0.2646 -0.6708
   85SAPS    C1 8030   0.892   4.217  10.790 -0.1176  0.0515 -0.1842
   85SAPS    HA 8031   0.869   4.325  10.802 -2.7874 -0.7426  2.3833
   85SAPS    HB 8032   0.987   4.212  10.848 -0.1966  0.9555  0.0374
   85SAPS    C2 8033   0.917   4.190  10.640 -0.8932  0.3390 -0.5103
   85SAPS    HS 8034   0.994   4.263  10.607 -0.2730 -0.3655 -0.6142
   85SAPS   O21 8035   0.803   4.207  10.558  0.0726  0.5738  0.7960
   85SAPS   C21 8036   0.751   4.328  10.550  0.5094  0.4072 -0.6840
   85SAPS   O22 8037   0.794   4.426  10.603 -0.4719 -0.0908 -0.4655
   85SAPS   C22 8038   0.623   4.316  10.461 -0.4858 -0.5040 -1.2320
   85SAPS   H2R 8039   0.538   4.284  10.525 -0.9450 -0.1522 -1.6629
   85SAPS   H2S 8040   0.605   4.417  10.420  1.3475 -0.6912 -2.5776
   85SAPS    C3 8041   0.955   4.038  10.634  0.1819 -0.2035  0.4550
   85SAPS    HX 8042   0.873   3.990  10.693  1.2611  0.5647  2.6087
   85SAPS    HY 8043   1.045   4.021  10.696  0.3584 -0.5693  0.1065
   85SAPS   O31 8044   0.971   3.979  10.499  0.4247 -0.0309  0.4117
   85SAPS   C31 8045   0.875   3.914  10.457  0.8092  0.3171  0.0019
   85SAPS   O32 8046   0.766   3.889  10.511  0.0966 -0.7380 -0.0902
   85SAPS   C32 8047   0.903   3.850  10.316  0.3078  0.0972  0.4642
   85SAPS   H2X 8048   0.808   3.823  10.266  1.0190 -0.3136 -0.6874
   85SAPS   H2Y 8049   0.953   3.753  10.335 -2.5596 -1.2578  1.3346
   85SAPS   C23 8050   0.645   4.214  10.344 -0.6900  0.3168  0.1570
   85SAPS   H3R 8051   0.543   4.196  10.304 -1.2494 -0.8066  2.0082
   85SAPS   H3S 8052   0.696   4.120  10.373 -0.9360 -0.0541 -0.6121
   85SAPS   C24 8053   0.724   4.288  10.229  0.0785 -0.7388 -0.1415
   85SAPS   H4R 8054   0.829   4.297  10.264 -0.1312 -2.2210  0.9489
   85SAPS   H4S 8055   0.702   4.396  10.230 -0.8294 -0.9241  0.5916
   85SAPS   C25 8056   0.730   4.233  10.087  0.5643  0.3406  0.0191
   85SAPS   H5R 8057   0.806   4.155  10.068  0.3141 -0.0038  0.4143
   85SAPS   C26 8058   0.659   4.275   9.975  0.7686  0.6003 -0.1620
   85SAPS   H6R 8059   0.659   4.200   9.895  0.0989  0.6759 -0.2365
   85SAPS   C27 8060   0.567   4.385   9.961 -0.8650 -0.8970 -0.5781
   85SAPS   H7R 8061   0.576   4.436   9.863 -1.4815 -0.7367 -0.5565
   85SAPS   H7S 8062   0.600   4.466  10.030 -0.3028 -1.0822 -0.6304
   85SAPS   C28 8063   0.426   4.348   9.990 -0.1098 -0.5823  0.0586
   85SAPS   H8R 8064   0.392   4.371  10.092 -2.5995 -0.8725 -0.6854
   85SAPS   C29 8065   0.337   4.310   9.889  0.5678  0.3542  0.3173
   85SAPS   H9R 8066   0.236   4.305   9.931  0.2743  0.0559 -0.4198
   85SAPS  C210 8067   0.354   4.295   9.743 -0.5255  0.1768  0.4953
   85SAPS  H10R 8068   0.352   4.190   9.708  0.5821  0.4844 -0.5385
   85SAPS  H10S 8069   0.457   4.325   9.712 -1.0580 -0.4323 -1.9196
   85SAPS  C211 8070   0.250   4.359   9.656 -0.0493  0.4081 -0.3288
   85SAPS  H11R 8071   0.257   4.466   9.635 -4.9883  0.6877 -1.1470
   85SAPS  C212 8072   0.145   4.293   9.611 -0.6750 -0.2121 -0.5960
   85SAPS  H12R 8073   0.077   4.353   9.548 -2.2432  1.7697  2.8644
   85SAPS  C213 8074   0.119   4.144   9.609 -0.0070 -0.1088 -0.6012
   85SAPS  H13R 8075   0.161   4.090   9.696 -1.4436 -0.1923  0.0571
   85SAPS  H13S 8076   0.165   4.116   9.511 -0.5766 -1.0069 -0.6196
   85SAPS  C214 8077  -0.025   4.113   9.630 -0.3475  0.9186 -0.4043
   85SAPS  H14R 8078  -0.065   4.183   9.705 -0.2694  0.5050  0.0289
   85SAPS  C215 8079  -0.103   4.019   9.574 -0.0990  0.1197  0.7483
   85SAPS  H15R 8080  -0.210   4.016   9.600 -0.2364  1.0234  0.3000
   85SAPS  C216 8081  -0.061   3.916   9.473  0.0548  0.0893 -0.2065
   85SAPS  H16R 8082  -0.079   3.822   9.530 -2.2167  1.1286  0.8450
   85SAPS  H16S 8083   0.046   3.920   9.444  0.1981 -2.3936 -0.1056
   85SAPS  C217 8084  -0.141   3.900   9.341  0.3468  0.2191  0.6313
   85SAPS  H17R 8085  -0.248   3.919   9.363  0.2431  0.0528  0.2737
   85SAPS  H17S 8086  -0.125   3.796   9.303  0.8199 -0.0985  1.6957
   85SAPS  C218 8087  -0.109   3.996   9.226 -0.1889 -0.9448  0.4831
   85SAPS  H18R 8088  -0.149   4.095   9.257  1.7828 -0.7469  2.5752
   85SAPS  H18S 8089  -0.169   3.966   9.138  1.1524 -1.4594 -0.2750
   85SAPS  C219 8090   0.040   4.024   9.196 -0.7731  0.6304 -0.2282
   85SAPS  H19R 8091   0.090   3.926   9.177 -1.6042  0.5505 -2.0886
   85SAPS  H19S 8092   0.092   4.073   9.282 -1.8469  0.5671  0.4575
   85SAPS  C220 8093   0.067   4.115   9.077  0.0259 -0.5133  0.1703
   85SAPS  H20R 8094   0.064   4.053   8.985  0.1287  0.0107 -0.1885
   85SAPS  H20S 8095   0.173   4.149   9.081  0.6015 -2.4612  2.6237
   85SAPS  H20T 8096   0.006   4.209   9.074 -0.2180 -0.6281  1.2120
   85SAPS   C33 8097   0.998   3.943  10.226  0.0175 -0.6017  0.1994
   85SAPS   H3X 8098   1.098   3.946  10.274 -0.0641 -1.7609  0.4432
   85SAPS   H3Y 8099   0.959   4.047  10.221 -2.1136 -1.3345  1.1038
   85SAPS   C34 8100   1.010   3.900  10.077  0.3300 -0.4198  0.4931
   85SAPS   H4X 8101   0.903   3.890  10.051 -0.2816  0.8909  2.4018
   85SAPS   H4Y 8102   1.056   3.800  10.062 -1.3684 -0.9335 -1.5152
   85SAPS   C35 8103   1.078   4.012   9.988  0.5852  0.6284 -0.1609
   85SAPS   H5X 8104   1.186   4.003  10.014 -0.0750 -0.1925  2.4684
   85SAPS   H5Y 8105   1.045   4.108  10.033 -1.0174 -0.7834  1.7359
   85SAPS   C36 8106   1.061   4.002   9.828  0.7579  0.4106 -0.1928
   85SAPS   H6X 8107   1.031   3.896   9.810  1.9141  0.0452 -0.0105
   85SAPS   H6Y 8108   1.153   4.026   9.770 -0.6967  0.0041 -2.7357
   85SAPS   C37 8109   0.958   4.103   9.775  0.2448 -0.2215 -0.8484
   85SAPS   H7X 8110   1.005   4.202   9.789  1.6717 -0.7350 -1.9433
   85SAPS   H7Y 8111   0.866   4.099   9.838 -1.9565  0.9891 -3.8508
   85SAPS   C38 8112   0.929   4.092   9.623 -0.2859  0.3423 -0.3127
   85SAPS   H8X 8113   0.928   3.983   9.604 -2.1297  0.1441  0.8236
   85SAPS   H8Y 8114   1.019   4.136   9.573 -0.0613  0.7973  0.4868
   85SAPS   C39 8115   0.796   4.167   9.587 -0.0861 -0.6508 -0.1841
   85SAPS   H9X 8116   0.816   4.274   9.607 -0.8386 -0.4954 -0.2545
   85SAPS   H9Y 8117   0.735   4.165   9.680  0.6914  1.8254  0.4159
   85SAPS  C310 8118   0.730   4.156   9.444 -0.8548 -0.0782  0.0613
   85SAPS  H10X 8119   0.723   4.047   9.422  0.5187 -0.2299  0.3117
   85SAPS  H10Y 8120   0.784   4.210   9.364 -0.3166  3.3071  2.5599
   85SAPS  C311 8121   0.589   4.211   9.426 -0.1803 -0.1640 -0.1524
   85SAPS  H11X 8122   0.588   4.322   9.423  0.9059 -0.1160  0.8945
   85SAPS  H11Y 8123   0.526   4.171   9.508  2.3372 -2.2109  0.8667
   85SAPS  C312 8124   0.512   4.147   9.308 -0.0791 -0.6733  0.0183
   85SAPS  H12X 8125   0.415   4.201   9.299 -0.4599 -1.7101 -2.6381
   85SAPS  H12Y 8126   0.502   4.037   9.324 -0.5126 -0.5481  0.6512
   85SAPS  C313 8127   0.590   4.162   9.175 -0.1121  0.1942  0.3835
   85SAPS  H13X 8128   0.681   4.098   9.172  0.9171  1.5950  0.9652
   85SAPS  H13Y 8129   0.634   4.264   9.171 -0.3670  0.5523  4.2357
   85SAPS  C314 8130   0.502   4.159   9.053  0.1043  0.4919  0.1924
   85SAPS  H14X 8131   0.422   4.235   9.063  1.0273  1.2458  2.0662
   85SAPS  H14Y 8132   0.448   4.062   9.051  0.5246  0.2399  0.8285
   85SAPS  C315 8133   0.581   4.177   8.924  0.5504  1.6466  0.7180
   85SAPS  H15X 8134   0.679   4.126   8.937  0.1559  0.6503 -0.1227
   85SAPS  H15Y 8135   0.604   4.285   8.910  1.3050  1.2748 -1.0258
   85SAPS  C316 8136   0.519   4.121   8.796  0.1880 -0.3477 -0.2125
   85SAPS  H16X 8137   0.419   4.167   8.785 -1.0870 -3.3842 -1.7971
   85SAPS  H16Y 8138   0.486   4.018   8.822 -0.6502  0.0542  0.3222
   85SAPS  C317 8139   0.622   4.132   8.687  0.4467 -0.6477  0.4073
   85SAPS  H17X 8140   0.600   4.047   8.619 -2.0002  0.2404  0.0350
   85SAPS  H17Y 8141   0.728   4.135   8.720  0.8517  2.4101 -0.9687
   85SAPS  C318 8142   0.608   4.264   8.606  0.9853 -0.6216 -0.4164
   85SAPS  H18X 8143   0.702   4.296   8.555 -0.7677  0.2572 -3.1876
   85SAPS  H18Y 8144   0.561   4.343   8.667 -1.8778 -2.3821 -0.2541
   85SAPS  H18Z 8145   0.534   4.253   8.524 -0.0810  0.7027  0.3565
   86SAPS     N 8146   2.021   4.356  11.069 -0.1624  0.1175 -0.1316
   86SAPS   HN1 8147   1.922   4.385  11.085 -0.1814 -0.4457  0.7864
   86SAPS   HN2 8148   2.052   4.360  10.970  0.2714 -0.2117 -0.0080
   86SAPS   HN3 8149   2.026   4.257  11.101  0.1194 -0.4367 -1.8472
   86SAPS   C12 8150   2.110   4.436  11.157  0.5539 -0.4490 -0.1339
   86SAPS  H12A 8151   2.088   4.541  11.144  0.9685 -0.3145  0.2531
   86SAPS   C13 8152   2.080   4.411  11.307  0.9199  0.9335  0.1214
   86SAPS  O13A 8153   1.998   4.328  11.343  0.3602 -0.3503 -0.5653
   86SAPS  O13B 8154   2.159   4.463  11.386 -0.4520  0.1464 -0.1789
   86SAPS   C11 8155   2.255   4.385  11.114 -0.3065 -0.0922 -0.9178
   86SAPS  H11A 8156   2.263   4.278  11.143  0.3150 -0.1494 -1.2866
   86SAPS  H11B 8157   2.333   4.432  11.178 -1.3533 -1.0664  1.1156
   86SAPS     P 8158   2.339   4.526  10.913  0.1420  0.3691 -0.3306
   86SAPS   O13 8159   2.225   4.614  10.872  0.3268 -0.2266 -0.2575
   86SAPS   O14 8160   2.435   4.590  11.006 -0.1637  0.2126 -0.1433
   86SAPS   O12 8161   2.276   4.398  10.971 -0.1612 -0.1696  0.0088
   86SAPS   O11 8162   2.425   4.470  10.783  0.1025 -0.6466 -0.0968
   86SAPS    C1 8163   2.531   4.551  10.740  0.5645 -0.4988  0.0820
   86SAPS    HA 8164   2.496   4.651  10.707  0.4927 -0.5598 -0.0244
   86SAPS    HB 8165   2.609   4.563  10.818 -1.8684 -0.2491  2.5768
   86SAPS    C2 8166   2.612   4.485  10.621  0.1869  0.7389 -0.6245
   86SAPS    HS 8167   2.669   4.566  10.571  2.0814  0.3004  0.7795
   86SAPS   O21 8168   2.530   4.413  10.532 -0.2356  0.3528  0.0429
   86SAPS   C21 8169   2.459   4.493  10.457 -0.4381 -0.5009 -1.0267
   86SAPS   O22 8170   2.459   4.617  10.457 -0.7107  0.2069  0.9228
   86SAPS   C22 8171   2.382   4.413  10.363  0.1362 -0.6305 -0.2093
   86SAPS   H2R 8172   2.446   4.334  10.319  0.1473  0.1791 -1.6849
   86SAPS   H2S 8173   2.296   4.370  10.418  0.6535  0.2999  1.3477
   86SAPS    C3 8174   2.711   4.393  10.691  0.3815  0.1046 -0.1223
   86SAPS    HX 8175   2.669   4.338  10.778 -0.4133  0.4529 -0.2765
   86SAPS    HY 8176   2.788   4.465  10.725 -1.1098  1.6776  0.0090
   86SAPS   O31 8177   2.771   4.297  10.601 -0.1553 -0.9094 -0.1260
   86SAPS   C31 8178   2.871   4.347  10.529 -0.3193 -0.6741 -0.3724
   86SAPS   O32 8179   2.920   4.459  10.547 -0.2073 -0.3605 -0.3132
   86SAPS   C32 8180   2.900   4.255  10.407 -0.0865 -0.0409 -0.4904
   86SAPS   H2X 8181   2.798   4.221  10.377  0.8290 -2.2896 -1.1444
   86SAPS   H2Y 8182   2.953   4.166  10.446  0.2011 -0.0303 -0.8538
   86SAPS   C23 8183   2.339   4.503  10.245  0.1421 -0.1342  0.1066
   86SAPS   H3R 8184   2.310   4.606  10.273 -1.1801 -0.4097 -0.2310
   86SAPS   H3S 8185   2.249   4.451  10.206  0.3526  2.7838 -4.5869
   86SAPS   C24 8186   2.445   4.503  10.126 -0.2077 -0.4433  0.3157
   86SAPS   H4R 8187   2.445   4.400  10.085 -0.6464 -0.2143 -0.2832
   86SAPS   H4S 8188   2.544   4.523  10.170  1.8119 -3.5921 -2.5363
   86SAPS   C25 8189   2.402   4.605  10.018  0.4858  0.8226 -0.3797
   86SAPS   H5R 8190   2.325   4.567   9.948  0.4978  2.2232 -1.1703
   86SAPS   C26 8191   2.456   4.731   9.997  0.6412  0.1342  0.1148
   86SAPS   H6R 8192   2.429   4.797   9.913  2.5952  0.1426 -0.5125
   86SAPS   C27 8193   2.566   4.792  10.072 -0.1944 -0.4104 -0.1864
   86SAPS   H7R 8194   2.663   4.757  10.029  0.2703 -0.4674  0.8868
   86SAPS   H7S 8195   2.566   4.756  10.177  1.2668 -0.8477 -0.3239
   86SAPS   C28 8196   2.585   4.940  10.072  0.5933 -0.3823 -0.0338
   86SAPS   H8R 8197   2.559   4.981  10.171 -2.6456 -1.5022 -0.3726
   86SAPS   C29 8198   2.604   5.029   9.960  0.0982 -0.1826 -0.6485
   86SAPS   H9R 8199   2.633   5.134   9.979  1.4064 -0.6535  0.0607
   86SAPS  C210 8200   2.622   4.991   9.818  0.5178  0.1480 -0.0872
   86SAPS  H10R 8201   2.602   4.884   9.796 -0.6758  0.2629  0.3967
   86SAPS  H10S 8202   2.728   5.017   9.796  0.6653 -0.8642 -0.6085
   86SAPS  C211 8203   2.541   5.083   9.731  0.5548 -0.3262  0.1624
   86SAPS  H11R 8204   2.483   5.164   9.777  0.3525 -0.6647  0.5032
   86SAPS  C212 8205   2.531   5.067   9.596  0.9838  0.3271  0.1761
   86SAPS  H12R 8206   2.466   5.136   9.541  2.3866  1.6007  0.0612
   86SAPS  C213 8207   2.598   4.951   9.521 -0.1934  0.3891 -0.0137
   86SAPS  H13R 8208   2.689   4.934   9.583 -0.4606  1.5405  0.7011
   86SAPS  H13S 8209   2.643   4.996   9.430 -0.7872  0.7254 -0.1400
   86SAPS  C214 8210   2.504   4.831   9.503  0.0802  0.0451 -0.2181
   86SAPS  H14R 8211   2.459   4.799   9.598  1.9842  0.2132  0.7713
   86SAPS  C215 8212   2.459   4.775   9.384 -0.7414  1.0091 -0.4396
   86SAPS  H15R 8213   2.374   4.706   9.384 -1.7141  2.1901 -0.1079
   86SAPS  C216 8214   2.500   4.815   9.237  1.1548 -0.1998  0.0416
   86SAPS  H16R 8215   2.562   4.735   9.192  0.0015  0.0438 -2.0877
   86SAPS  H16S 8216   2.561   4.907   9.228 -1.2992  1.3206 -1.8201
   86SAPS  C217 8217   2.377   4.848   9.145 -0.2363 -0.2352  0.6834
   86SAPS  H17R 8218   2.332   4.939   9.192 -0.9359  1.0022 -2.2566
   86SAPS  H17S 8219   2.301   4.767   9.144  2.0826 -2.4628 -0.0925
   86SAPS  C218 8220   2.398   4.891   9.003  0.4545 -0.1122 -0.2125
   86SAPS  H18R 8221   2.442   4.804   8.951 -0.7271 -0.7153 -0.2299
   86SAPS  H18S 8222   2.456   4.985   8.997 -1.1585  0.9462  0.4404
   86SAPS  C219 8223   2.269   4.937   8.930 -0.6683 -0.6919  0.2993
   86SAPS  H19R 8224   2.215   4.840   8.917  1.4159 -1.7849 -0.5416
   86SAPS  H19S 8225   2.295   4.972   8.828 -3.1646 -1.4231 -0.6102
   86SAPS  C220 8226   2.180   5.034   9.006  0.2343  0.4819 -0.4736
   86SAPS  H20R 8227   2.086   5.043   8.947 -2.3758 -1.2620  3.1853
   86SAPS  H20S 8228   2.227   5.132   9.027  0.3737  0.1634  0.7311
   86SAPS  H20T 8229   2.141   4.988   9.099  0.7400 -1.5430 -1.2433
   86SAPS   C33 8230   2.976   4.317  10.292  0.3873  1.0864  0.6038
   86SAPS   H3X 8231   3.014   4.236  10.227  0.1185  1.2417  0.2559
   86SAPS   H3Y 8232   3.068   4.367  10.331 -0.0102  1.2757  1.3177
   86SAPS   C34 8233   2.897   4.417  10.194  0.1476  0.0797 -0.4583
   86SAPS   H4X 8234   2.858   4.502  10.253  2.4255 -0.5382  2.0274
   86SAPS   H4Y 8235   2.811   4.363  10.147  0.1021  0.0368 -0.3277
   86SAPS   C35 8236   2.995   4.491  10.099 -0.0048  0.5167  0.2200
   86SAPS   H5X 8237   3.034   4.400  10.049 -0.7977 -0.0247  0.5746
   86SAPS   H5Y 8238   3.083   4.544  10.142 -1.1684  2.1270  0.6586
   86SAPS   C36 8239   2.932   4.586   9.995  0.4180  0.0176  0.3040
   86SAPS   H6X 8240   2.904   4.672  10.059 -0.7067 -1.0851  1.3337
   86SAPS   H6Y 8241   2.835   4.554   9.954  0.2399  2.2694 -1.1013
   86SAPS   C37 8242   3.017   4.625   9.870  0.0083 -0.0671  0.2636
   86SAPS   H7X 8243   3.058   4.533   9.825 -2.3992 -1.9193  1.7521
   86SAPS   H7Y 8244   3.111   4.675   9.903  0.5340  0.6759 -2.3009
   86SAPS   C38 8245   2.947   4.707   9.767 -0.1075 -0.4912  0.0004
   86SAPS   H8X 8246   2.888   4.776   9.831 -1.8047 -2.2151  0.3239
   86SAPS   H8Y 8247   2.877   4.648   9.705 -1.8104  0.4653  0.9774
   86SAPS   C39 8248   3.050   4.786   9.691 -0.2234 -0.3582 -0.1613
   86SAPS   H9X 8249   3.129   4.830   9.755 -0.0725 -1.7641  0.6464
   86SAPS   H9Y 8250   3.000   4.870   9.639 -0.4477  1.7591  3.2992
   86SAPS  C310 8251   3.123   4.698   9.589 -0.0086  0.7048 -0.2600
   86SAPS  H10X 8252   3.170   4.621   9.653  0.4801 -1.4069 -3.0681
   86SAPS  H10Y 8253   3.202   4.757   9.539  1.5325 -1.3021 -0.2650
   86SAPS  C311 8254   3.031   4.635   9.492 -0.6754  0.4324 -0.8009
   86SAPS  H11X 8255   2.952   4.704   9.456  0.6737  1.7626 -1.2860
   86SAPS  H11Y 8256   2.981   4.551   9.546 -1.2662  0.3798 -1.4363
   86SAPS  C312 8257   3.093   4.577   9.360 -0.0635  0.5433  0.1618
   86SAPS  H12X 8258   3.013   4.520   9.308 -0.2897  0.1012  0.9936
   86SAPS  H12Y 8259   3.172   4.503   9.384 -0.2302 -0.4223 -2.1006
   86SAPS  C313 8260   3.145   4.684   9.264  0.4256 -0.7182 -0.3753
   86SAPS  H13X 8261   3.232   4.746   9.296  0.3881 -0.6224 -0.4592
   86SAPS  H13Y 8262   3.061   4.756   9.249  0.7076 -0.2813  0.1365
   86SAPS  C314 8263   3.181   4.613   9.133 -0.1399 -0.6677 -0.8297
   86SAPS  H14X 8264   3.091   4.571   9.084 -0.3784  1.5170 -2.3431
   86SAPS  H14Y 8265   3.253   4.529   9.147  0.2293 -0.1312  0.5626
   86SAPS  C315 8266   3.223   4.716   9.022 -0.5577 -0.2865  0.3819
   86SAPS  H15X 8267   3.304   4.777   9.069 -0.4021  0.8370 -1.2995
   86SAPS  H15Y 8268   3.138   4.788   9.015  1.0161  1.4556 -1.5171
   86SAPS  C316 8269   3.239   4.657   8.887 -0.0759 -0.4530 -0.1805
   86SAPS  H16X 8270   3.133   4.626   8.873 -0.7880  0.9728  1.7678
   86SAPS  H16Y 8271   3.291   4.559   8.891  1.3300  0.2986  0.2178
   86SAPS  C317 8272   3.300   4.742   8.774 -0.2945  0.7477 -0.1507
   86SAPS  H17X 8273   3.298   4.679   8.683  0.6342 -1.0323  1.0155
   86SAPS  H17Y 8274   3.409   4.757   8.788 -0.2016 -0.6766  0.7715
   86SAPS  C318 8275   3.227   4.877   8.752  0.2954  0.9394  0.3428
   86SAPS  H18X 8276   3.121   4.847   8.743  0.4140  0.5829  0.1331
   86SAPS  H18Y 8277   3.245   4.949   8.669 -0.1296  1.6001  0.8123
   86SAPS  H18Z 8278   3.238   4.935   8.846  0.9524 -0.4863  1.1561
   87SAPS     N 8279   2.552   5.696  11.090  0.1578 -0.4890  0.1635
   87SAPS   HN1 8280   2.604   5.695  11.181 -1.1246  0.2606  0.9186
   87SAPS   HN2 8281   2.458   5.733  11.115 -0.4562  0.1302 -2.8942
   87SAPS   HN3 8282   2.544   5.599  11.052 -0.7344  0.1682 -1.3398
   87SAPS   C12 8283   2.626   5.788  10.999 -0.2095 -0.2340 -0.3983
   87SAPS  H12A 8284   2.621   5.886  11.043 -1.3914 -0.6211  0.3775
   87SAPS   C13 8285   2.777   5.757  10.976  0.2173  0.9033  0.3349
   87SAPS  O13A 8286   2.833   5.667  11.045  0.3016 -0.3146 -0.6392
   87SAPS  O13B 8287   2.840   5.813  10.883  0.3006 -0.2522 -0.0823
   87SAPS   C11 8288   2.549   5.800  10.870 -0.2483  0.9774 -0.0254
   87SAPS  H11A 8289   2.577   5.707  10.816  1.6609  1.1086  0.6736
   87SAPS  H11B 8290   2.595   5.874  10.802  0.3483 -0.2521 -0.9802
   87SAPS     P 8291   2.332   5.930  10.821  0.5125  0.3288 -0.3380
   87SAPS   O13 8292   2.190   5.920  10.843  0.3534  0.5575 -0.3011
   87SAPS   O14 8293   2.404   6.045  10.881  0.6088  0.6102  0.0860
   87SAPS   O12 8294   2.408   5.803  10.876  0.2480 -0.0394  0.1744
   87SAPS   O11 8295   2.369   5.919  10.665  0.0433 -0.0430  0.4218
   87SAPS    C1 8296   2.341   5.796  10.604  0.1100 -0.4026 -0.0635
   87SAPS    HA 8297   2.393   5.705  10.642 -0.7483 -1.5543 -1.5815
   87SAPS    HB 8298   2.231   5.780  10.605 -0.0220  0.5407  0.3032
   87SAPS    C2 8299   2.361   5.810  10.457 -0.0864 -0.8015  0.2849
   87SAPS    HS 8300   2.299   5.892  10.416 -1.4968 -1.3087  1.3559
   87SAPS   O21 8301   2.340   5.678  10.394  0.2750  0.4068  0.1007
   87SAPS   C21 8302   2.303   5.689  10.260  0.4241 -0.4582 -0.5649
   87SAPS   O22 8303   2.273   5.799  10.215 -0.0370  0.1003  0.0818
   87SAPS   C22 8304   2.287   5.554  10.193  0.9891 -0.3437  0.2355
   87SAPS   H2R 8305   2.328   5.477  10.262 -1.6811 -0.6828  1.4925
   87SAPS   H2S 8306   2.177   5.544  10.181  1.2779 -1.1711 -1.9759
   87SAPS    C3 8307   2.511   5.841  10.437 -0.2115 -0.6722 -0.1345
   87SAPS    HX 8308   2.556   5.749  10.481  0.8202 -0.2840 -0.3602
   87SAPS    HY 8309   2.539   5.934  10.490 -0.1261  0.4728 -2.1569
   87SAPS   O31 8310   2.550   5.852  10.295  0.8007 -0.2543 -0.9366
   87SAPS   C31 8311   2.537   5.970  10.228  0.4982 -0.5500 -0.2430
   87SAPS   O32 8312   2.498   6.076  10.277 -0.4629  0.4730  0.0415
   87SAPS   C32 8313   2.596   5.956  10.092 -0.6345  0.3668 -0.3460
   87SAPS   H2X 8314   2.605   5.848  10.066  1.6050  0.7689 -1.3699
   87SAPS   H2Y 8315   2.699   5.996  10.089 -0.6831  0.5180  0.0118
   87SAPS   C23 8316   2.348   5.532  10.053  0.8179 -0.3286  0.2190
   87SAPS   H3R 8317   2.458   5.533  10.067  0.8294  0.3138  0.1080
   87SAPS   H3S 8318   2.334   5.615   9.980  1.6906  0.2816  0.7308
   87SAPS   C24 8319   2.293   5.406   9.986 -0.1854 -0.4055  0.4409
   87SAPS   H4R 8320   2.343   5.315  10.025 -1.5228 -2.8185 -3.2778
   87SAPS   H4S 8321   2.326   5.399   9.881 -3.3490 -2.7252 -0.4690
   87SAPS   C25 8322   2.136   5.415   9.967  0.4031  0.6665  0.3140
   87SAPS   H5R 8323   2.087   5.387  10.061  0.4255 -2.4490 -0.5572
   87SAPS   C26 8324   2.057   5.437   9.862 -0.4738  0.5048 -0.5157
   87SAPS   H6R 8325   1.950   5.434   9.887 -0.8475  1.1298 -2.0203
   87SAPS   C27 8326   2.105   5.457   9.721 -0.3503  0.0739  0.1923
   87SAPS   H7R 8327   2.167   5.549   9.714  0.8499 -0.6473  1.2444
   87SAPS   H7S 8328   2.016   5.480   9.659  0.0786 -0.1117 -0.5006
   87SAPS   C28 8329   2.166   5.334   9.653 -0.7552 -0.4952 -0.0613
   87SAPS   H8R 8330   2.109   5.243   9.674  3.5350 -3.3764 -0.2268
   87SAPS   C29 8331   2.278   5.335   9.578 -1.2768 -0.0843 -0.4158
   87SAPS   H9R 8332   2.312   5.242   9.529  4.1524  1.7464 -0.4899
   87SAPS  C210 8333   2.370   5.451   9.548 -0.0079  0.4114 -0.1085
   87SAPS  H10R 8334   2.378   5.525   9.630 -2.5424  1.5931 -0.8610
   87SAPS  H10S 8335   2.328   5.503   9.459 -2.1876 -1.2434 -0.1041
   87SAPS  C211 8336   2.520   5.419   9.508  0.4399 -0.2217 -0.3800
   87SAPS  H11R 8337   2.579   5.377   9.591 -3.4562 -2.1010  1.5658
   87SAPS  C212 8338   2.579   5.429   9.385 -0.2261  0.2675 -0.3272
   87SAPS  H12R 8339   2.682   5.394   9.369  1.4720  4.8303 -0.3034
   87SAPS  C213 8340   2.516   5.476   9.255  0.1528  0.3720  0.2251
   87SAPS  H13R 8341   2.585   5.548   9.207 -0.7312  1.1125  0.0611
   87SAPS  H13S 8342   2.416   5.522   9.265 -0.8626 -1.8069  0.3399
   87SAPS  C214 8343   2.509   5.354   9.173 -0.0841  0.3981 -0.5011
   87SAPS  H14R 8344   2.583   5.277   9.197  1.2263  3.3242  5.7353
   87SAPS  C215 8345   2.423   5.327   9.076  0.7261 -0.5052  0.4573
   87SAPS  H15R 8346   2.412   5.229   9.026  0.3891 -0.6196  0.7570
   87SAPS  C216 8347   2.320   5.425   9.027  0.1096 -0.5671 -0.0141
   87SAPS  H16R 8348   2.342   5.533   9.035 -2.7620  0.1339 -1.0936
   87SAPS  H16S 8349   2.220   5.415   9.073 -0.1473  0.0847 -0.4324
   87SAPS  C217 8350   2.291   5.402   8.875  0.0973  0.5234  0.3642
   87SAPS  H17R 8351   2.271   5.293   8.865  1.6082  0.2941 -0.3158
   87SAPS  H17S 8352   2.384   5.434   8.823  0.3578 -2.2516 -0.9996
   87SAPS  C218 8353   2.164   5.485   8.826 -0.1489  0.3034  0.2627
   87SAPS  H18R 8354   2.169   5.524   8.722 -0.1735 -2.5960 -0.8745
   87SAPS  H18S 8355   2.145   5.575   8.889 -1.4255 -1.1456  1.9865
   87SAPS  C219 8356   2.030   5.400   8.830 -0.2398  0.9026 -0.9015
   87SAPS  H19R 8357   2.008   5.399   8.939  0.2400  2.0674 -0.7854
   87SAPS  H19S 8358   2.041   5.299   8.786  0.3593  1.5562 -2.2743
   87SAPS  C220 8359   1.905   5.463   8.768 -0.2677 -0.0521  0.3537
   87SAPS  H20R 8360   1.912   5.493   8.661 -1.5128 -1.3417 -0.1083
   87SAPS  H20S 8361   1.886   5.554   8.829  1.8425 -0.1603  1.2044
   87SAPS  H20T 8362   1.815   5.398   8.773 -0.7734  0.2729 -3.0384
   87SAPS   C33 8363   2.511   6.032   9.982  0.3397 -0.2742  0.6105
   87SAPS   H3X 8364   2.512   6.141   9.999 -0.8594 -0.1826  0.1501
   87SAPS   H3Y 8365   2.411   5.985   9.996  0.5328 -0.8948 -0.0129
   87SAPS   C34 8366   2.542   5.986   9.840 -0.0487 -0.1669  0.5797
   87SAPS   H4X 8367   2.520   5.878   9.824 -2.7980  0.1150  2.0476
   87SAPS   H4Y 8368   2.651   6.004   9.834 -0.1087 -0.2085 -0.7177
   87SAPS   C35 8369   2.470   6.081   9.732  0.9286  0.1502 -0.1246
   87SAPS   H5X 8370   2.525   6.178   9.733  0.0499  0.6518  0.8781
   87SAPS   H5Y 8371   2.367   6.097   9.772  1.3929 -0.1149  1.2095
   87SAPS   C36 8372   2.455   6.028   9.587 -0.3657  0.6542 -0.4035
   87SAPS   H6X 8373   2.388   5.939   9.588 -1.0688  1.1953  0.8816
   87SAPS   H6Y 8374   2.552   5.994   9.545 -0.3549 -0.6829  0.6834
   87SAPS   C37 8375   2.406   6.142   9.494 -0.1524  1.2559 -0.5758
   87SAPS   H7X 8376   2.475   6.228   9.507 -0.3033  1.1696  0.8951
   87SAPS   H7Y 8377   2.305   6.168   9.530 -0.1584  0.2129  0.2169
   87SAPS   C38 8378   2.389   6.091   9.350  0.2439  0.7600 -0.6724
   87SAPS   H8X 8379   2.307   6.147   9.300  0.8152  1.0239 -1.3247
   87SAPS   H8Y 8380   2.358   5.987   9.371  1.3707  0.7086  0.7656
   87SAPS   C39 8381   2.525   6.098   9.275 -0.3611 -0.2413  0.4219
   87SAPS   H9X 8382   2.599   6.032   9.325  0.5520 -0.9575 -1.8291
   87SAPS   H9Y 8383   2.551   6.206   9.284  2.9841 -1.0836  1.5072
   87SAPS  C310 8384   2.517   6.070   9.118 -0.2991 -0.0988  0.1757
   87SAPS  H10X 8385   2.464   6.158   9.078 -1.7512 -0.3422  1.4778
   87SAPS  H10Y 8386   2.447   5.986   9.095 -0.3925 -0.0549  0.2963
   87SAPS  C311 8387   2.646   6.054   9.053 -0.4273 -0.0480  0.4288
   87SAPS  H11X 8388   2.693   5.961   9.093 -1.3897 -0.8570 -0.2911
   87SAPS  H11Y 8389   2.708   6.140   9.086  0.2822 -0.8708  1.2748
   87SAPS  C312 8390   2.617   6.052   8.905 -0.4227 -0.0339  0.0287
   87SAPS  H12X 8391   2.563   6.144   8.874 -1.2249 -0.3922  0.3398
   87SAPS  H12Y 8392   2.548   5.968   8.886 -0.8459  0.3500 -0.1418
   87SAPS  C313 8393   2.756   6.045   8.833  0.5985  0.7222 -0.4028
   87SAPS  H13X 8394   2.808   5.957   8.876 -2.5333 -0.0779  1.8664
   87SAPS  H13Y 8395   2.816   6.136   8.856  0.0441  0.6594  1.3569
   87SAPS  C314 8396   2.739   6.036   8.682 -0.5058  0.0255 -0.0898
   87SAPS  H14X 8397   2.653   6.097   8.646 -2.9183 -2.3372  1.4923
   87SAPS  H14Y 8398   2.713   5.931   8.658  2.3346 -0.9011  0.7827
   87SAPS  C315 8399   2.855   6.090   8.598  0.1576  0.1138  0.1467
   87SAPS  H15X 8400   2.935   6.012   8.598 -0.6984 -0.7787  1.0928
   87SAPS  H15Y 8401   2.886   6.189   8.637 -0.9752  0.6173 -0.2285
   87SAPS  C316 8402   2.819   6.104   8.452  0.0483 -0.2333 -0.2750
   87SAPS  H16X 8403   2.738   6.179   8.459  0.8340  0.7627 -1.5816
   87SAPS  H16Y 8404   2.779   6.007   8.415  0.7887 -0.2618 -1.0057
   87SAPS  C317 8405   2.926   6.170   8.369  0.3026  0.4363 -0.3792
   87SAPS  H17X 8406   3.006   6.096   8.346 -0.7892 -0.2390 -2.1360
   87SAPS  H17Y 8407   2.972   6.253   8.427  2.5027 -0.7319 -0.4078
   87SAPS  C318 8408   2.880   6.228   8.237 -0.3138  0.2084 -0.5896
   87SAPS  H18X 8409   2.800   6.298   8.269  1.8380  2.6078 -0.3214
   87SAPS  H18Y 8410   2.844   6.150   8.166 -0.2508 -0.9080  0.5990
   87SAPS  H18Z 8411   2.955   6.293   8.186  2.6004 -0.1002  3.1272
   88SAPS     N 8412   5.668   2.527  11.067  0.1465 -0.1891 -0.1414
   88SAPS   HN1 8413   5.591   2.545  10.999  0.1088  2.6121  0.5894
   88SAPS   HN2 8414   5.746   2.597  11.061 -0.9971  1.3576  2.2365
   88SAPS   HN3 8415   5.707   2.432  11.049 -0.8581 -0.1912 -2.4396
   88SAPS   C12 8416   5.612   2.548  11.203  0.5476 -0.6231 -0.4517
   88SAPS  H12A 8417   5.518   2.496  11.191  0.6132 -0.6394 -0.8995
   88SAPS   C13 8418   5.699   2.481  11.310 -0.6448 -0.1442  0.0057
   88SAPS  O13A 8419   5.800   2.413  11.280  0.0638 -0.3768 -0.0112
   88SAPS  O13B 8420   5.661   2.495  11.426  0.0684  0.2014 -0.1467
   88SAPS   C11 8421   5.607   2.699  11.237 -0.2503 -0.4040 -0.1912
   88SAPS  H11A 8422   5.712   2.732  11.247 -0.3463  0.1060 -0.8178
   88SAPS  H11B 8423   5.556   2.715  11.335  0.1865  1.7392 -0.2782
   88SAPS     P 8424   5.492   2.927  11.147 -0.5225  0.0697  0.0060
   88SAPS   O13 8425   5.351   2.943  11.171  0.1653 -0.6892 -0.4094
   88SAPS   O14 8426   5.583   3.005  11.238  0.4828  0.0632  0.0208
   88SAPS   O12 8427   5.527   2.769  11.139 -0.2373 -0.6231  1.2073
   88SAPS   O11 8428   5.505   2.982  11.001  0.0596 -0.0062  0.2037
   88SAPS    C1 8429   5.533   2.892  10.888  0.6285 -0.2086  0.4840
   88SAPS    HA 8430   5.632   2.847  10.911 -0.8192 -3.4927  0.4431
   88SAPS    HB 8431   5.458   2.811  10.882 -0.8276  1.0381  1.4245
   88SAPS    C2 8432   5.528   2.973  10.757  0.4315  0.2396  0.6534
   88SAPS    HS 8433   5.572   3.075  10.766  1.7965 -0.0070 -2.5120
   88SAPS   O21 8434   5.391   2.969  10.705  0.0043  0.1519  0.2072
   88SAPS   C21 8435   5.347   3.090  10.670 -0.1868 -0.2057  0.4437
   88SAPS   O22 8436   5.384   3.199  10.716 -0.2069  0.2431 -0.0291
   88SAPS   C22 8437   5.233   3.090  10.568 -0.2932  0.1252 -0.3809
   88SAPS   H2R 8438   5.190   2.987  10.563 -0.4353  0.2102 -0.9223
   88SAPS   H2S 8439   5.154   3.163  10.597 -0.0218 -0.3104  1.5254
   88SAPS    C3 8440   5.617   2.912  10.640  0.1908  0.3805  0.3837
   88SAPS    HX 8441   5.574   2.815  10.607  0.6844 -0.2305  1.5117
   88SAPS    HY 8442   5.712   2.897  10.696  0.9556 -2.6535 -1.5861
   88SAPS   O31 8443   5.626   2.997  10.526 -0.2385  0.3656 -0.0849
   88SAPS   C31 8444   5.741   2.987  10.462 -0.9180 -0.5263 -0.1005
   88SAPS   O32 8445   5.816   2.894  10.466 -0.6755  0.4416 -0.1840
   88SAPS   C32 8446   5.777   3.119  10.390 -0.7434 -0.0267 -0.0064
   88SAPS   H2X 8447   5.818   3.189  10.466  0.2902 -0.7269  0.0937
   88SAPS   H2Y 8448   5.688   3.167  10.344 -2.6061 -2.7321  0.5922
   88SAPS   C23 8449   5.273   3.128  10.425  0.2338 -0.1260 -0.3090
   88SAPS   H3R 8450   5.199   3.094  10.349 -0.2413 -0.6459  0.3771
   88SAPS   H3S 8451   5.366   3.068  10.419  1.6620  2.0980 -0.7172
   88SAPS   C24 8452   5.307   3.277  10.394  0.0718 -0.2853  0.0750
   88SAPS   H4R 8453   5.359   3.269  10.296 -0.3006  1.8323 -0.3197
   88SAPS   H4S 8454   5.381   3.319  10.465 -0.7363 -1.1139  1.4298
   88SAPS   C25 8455   5.193   3.367  10.368 -0.1776  0.3294 -0.5685
   88SAPS   H5R 8456   5.161   3.418  10.460  0.4723 -0.5056  0.1337
   88SAPS   C26 8457   5.131   3.389  10.249  0.1849 -0.0805  0.0338
   88SAPS   H6R 8458   5.046   3.458  10.257  0.3542  0.2368 -0.8830
   88SAPS   C27 8459   5.161   3.322  10.115 -0.2332  0.1689  0.3121
   88SAPS   H7R 8460   5.235   3.241  10.131 -0.8563 -0.2568  1.0928
   88SAPS   H7S 8461   5.218   3.393  10.052 -0.3067  1.2068  1.3825
   88SAPS   C28 8462   5.042   3.266  10.036  0.3710  0.2848  0.4036
   88SAPS   H8R 8463   4.957   3.221  10.090 -1.7484  1.9416 -1.4211
   88SAPS   C29 8464   5.028   3.274   9.904 -0.5188  0.0766  0.4380
   88SAPS   H9R 8465   4.943   3.223   9.856  0.8492  1.4912 -3.7208
   88SAPS  C210 8466   5.118   3.340   9.800  0.4070  0.5332  0.6507
   88SAPS  H10R 8467   5.200   3.273   9.769 -0.4308  0.1079 -0.6897
   88SAPS  H10S 8468   5.159   3.436   9.838  1.3116  0.2732  0.3216
   88SAPS  C211 8469   5.042   3.365   9.670 -0.4259 -0.0667  0.4978
   88SAPS  H11R 8470   4.947   3.420   9.680  0.3254  1.0061  1.8533
   88SAPS  C212 8471   5.079   3.333   9.546 -0.4421 -0.1291 -0.0423
   88SAPS  H12R 8472   5.004   3.359   9.469  0.8590  1.3161 -0.8655
   88SAPS  C213 8473   5.209   3.268   9.506 -0.2674  0.3420 -1.1510
   88SAPS  H13R 8474   5.193   3.159   9.500  0.1354  0.2848 -1.2471
   88SAPS  H13S 8475   5.288   3.285   9.582 -1.3881 -3.0228  0.8738
   88SAPS  C214 8476   5.248   3.317   9.376  0.0810  0.2231  0.3275
   88SAPS  H14R 8477   5.307   3.410   9.384  0.7193  0.0049 -1.5796
   88SAPS  C215 8478   5.228   3.261   9.254  0.0243 -0.4276 -0.9968
   88SAPS  H15R 8479   5.267   3.316   9.166  1.9315  0.5932  0.4388
   88SAPS  C216 8480   5.162   3.126   9.227  0.0398 -0.0556 -0.3043
   88SAPS  H16R 8481   5.142   3.067   9.319  1.9167 -1.4917 -0.7828
   88SAPS  H16S 8482   5.234   3.063   9.170  0.2906  0.1250 -0.1880
   88SAPS  C217 8483   5.030   3.148   9.144  0.4287  0.5645 -0.2315
   88SAPS  H17R 8484   4.978   3.234   9.191 -2.5826 -0.6130 -1.2899
   88SAPS  H17S 8485   4.964   3.060   9.153 -0.4865  1.5057  2.7484
   88SAPS  C218 8486   5.044   3.179   8.996  0.0368 -0.1277 -0.4737
   88SAPS  H18R 8487   5.126   3.252   8.977  0.7734  0.0953  3.2257
   88SAPS  H18S 8488   4.949   3.216   8.952 -0.7278 -0.6828  0.7180
   88SAPS  C219 8489   5.077   3.065   8.895  0.0567  0.1076  0.6609
   88SAPS  H19R 8490   5.017   2.974   8.919 -0.4674 -0.0858 -1.2678
   88SAPS  H19S 8491   5.184   3.040   8.909 -0.0498  0.5606  2.4479
   88SAPS  C220 8492   5.062   3.096   8.746 -0.1247 -0.6282  0.3063
   88SAPS  H20R 8493   4.955   3.116   8.724  0.0559 -0.1347 -0.1305
   88SAPS  H20S 8494   5.116   3.018   8.687  1.0732  1.5396 -1.5081
   88SAPS  H20T 8495   5.123   3.186   8.727 -0.3070 -0.2359  1.5128
   88SAPS   C33 8496   5.877   3.096  10.268 -0.7536  0.5509  0.0542
   88SAPS   H3X 8497   5.973   3.053  10.302 -0.5060 -1.1200 -2.6449
   88SAPS   H3Y 8498   5.892   3.198  10.226 -2.4054  1.7889  2.3412
   88SAPS   C34 8499   5.821   3.012  10.147 -0.6293 -0.2121 -0.2200
   88SAPS   H4X 8500   5.727   3.053  10.103 -0.5302  1.3432  0.9696
   88SAPS   H4Y 8501   5.790   2.910  10.177  0.9868 -0.8290 -0.6115
   88SAPS   C35 8502   5.934   3.000  10.039  0.6910 -0.5776 -0.3172
   88SAPS   H5X 8503   6.003   2.914  10.052 -0.6320 -1.2141  2.9700
   88SAPS   H5Y 8504   5.990   3.095  10.026 -0.5091  0.0478 -0.9696
   88SAPS   C36 8505   5.874   2.980   9.894  0.0937  0.8179  0.4983
   88SAPS   H6X 8506   5.801   3.059   9.867 -0.8022  0.3564  1.5464
   88SAPS   H6Y 8507   5.820   2.884   9.901 -0.2313  0.8821 -0.9138
   88SAPS   C37 8508   5.987   2.978   9.792 -0.1180  0.2102  0.7223
   88SAPS   H7X 8509   6.053   2.891   9.813  1.2874  0.5512 -2.0828
   88SAPS   H7Y 8510   6.043   3.074   9.794  0.0914  0.3266 -4.0430
   88SAPS   C38 8511   5.927   2.959   9.652 -0.0137 -0.3118 -0.3586
   88SAPS   H8X 8512   5.865   3.049   9.632 -0.1560 -0.4531 -0.5533
   88SAPS   H8Y 8513   5.858   2.872   9.643 -0.4014 -0.1733  1.0544
   88SAPS   C39 8514   6.031   2.947   9.544  0.7052 -0.0435 -0.5046
   88SAPS   H9X 8515   6.111   2.877   9.576  1.3449  0.5184 -0.8626
   88SAPS   H9Y 8516   6.096   3.037   9.548 -2.4434  2.2759  0.7888
   88SAPS  C310 8517   5.982   2.944   9.401  0.1808 -0.0002 -0.2046
   88SAPS  H10X 8518   5.903   3.020   9.385 -0.5803 -0.7916 -0.2658
   88SAPS  H10Y 8519   5.945   2.842   9.376 -1.9397  0.4309  1.1178
   88SAPS  C311 8520   6.097   2.950   9.291  0.4160  0.3630  0.4902
   88SAPS  H11X 8521   6.146   2.850   9.288 -0.6906 -0.2027  0.7875
   88SAPS  H11Y 8522   6.176   3.025   9.312  1.9705 -1.1435  0.1350
   88SAPS  C312 8523   6.040   2.962   9.150 -0.4701  0.6232 -0.2998
   88SAPS  H12X 8524   6.130   2.997   9.095  0.3555  0.5735  1.0118
   88SAPS  H12Y 8525   5.972   3.049   9.134  1.0258  1.4754 -2.2783
   88SAPS  C313 8526   5.981   2.837   9.089 -0.1736 -0.4644  0.4561
   88SAPS  H13X 8527   5.889   2.805   9.144 -0.0718  1.8651  2.0536
   88SAPS  H13Y 8528   6.063   2.762   9.087 -0.0061 -0.4524  3.7423
   88SAPS  C314 8529   5.935   2.861   8.947  0.7385  0.8151  0.7767
   88SAPS  H14X 8530   5.841   2.921   8.954  2.0277  3.1557 -1.1133
   88SAPS  H14Y 8531   5.898   2.765   8.904  0.4370  1.4457 -0.4180
   88SAPS  C315 8532   6.027   2.934   8.854 -0.4985  0.0257  0.2265
   88SAPS  H15X 8533   6.121   2.875   8.844  0.6392  1.6367  1.1432
   88SAPS  H15Y 8534   6.050   3.037   8.888 -0.7163  0.6978 -1.5938
   88SAPS  C316 8535   5.966   2.930   8.711 -0.0058 -0.2579  0.8032
   88SAPS  H16X 8536   5.857   2.948   8.717  0.3353  1.6336  2.0476
   88SAPS  H16Y 8537   5.982   2.829   8.668 -0.6714 -0.3018  0.6536
   88SAPS  C317 8538   6.027   3.029   8.615  0.8370 -0.0403 -0.0126
   88SAPS  H17X 8539   6.132   2.996   8.596  0.4336 -0.7544 -1.0940
   88SAPS  H17Y 8540   6.024   3.130   8.660 -2.1363  0.0457 -0.3189
   88SAPS  C318 8541   5.956   3.057   8.477 -0.6808 -0.8947  0.7546
   88SAPS  H18X 8542   6.016   3.121   8.410 -1.2881  0.6236  1.6348
   88SAPS  H18Y 8543   5.857   3.104   8.498 -0.7743 -0.9609  0.4656
   88SAPS  H18Z 8544   5.937   2.960   8.427  0.5042 -0.0878 -1.3356
   89SAPS     N 8545   5.786   5.786  10.821  0.1289 -0.0359 -0.0857
   89SAPS   HN1 8546   5.832   5.695  10.841 -2.3791 -1.7727 -1.8847
   89SAPS   HN2 8547   5.720   5.759  10.745  0.2464  0.4168 -0.3546
   89SAPS   HN3 8548   5.851   5.852  10.773 -1.8010  0.3475 -2.2395
   89SAPS   C12 8549   5.724   5.845  10.940 -0.1576 -0.0544  0.5501
   89SAPS  H12A 8550   5.666   5.762  10.978  0.8408 -1.3962 -0.7871
   89SAPS   C13 8551   5.813   5.894  11.054 -0.0681 -0.2935 -0.4736
   89SAPS  O13A 8552   5.926   5.841  11.058 -0.3678 -0.1176  0.4644
   89SAPS  O13B 8553   5.758   5.946  11.150  0.6383 -0.4417 -0.8556
   89SAPS   C11 8554   5.641   5.966  10.882 -0.5839  0.7603  0.5406
   89SAPS  H11A 8555   5.715   6.035  10.836  0.4537  0.4966  1.7762
   89SAPS  H11B 8556   5.596   6.017  10.971 -1.1763 -1.7100  1.6912
   89SAPS     P 8557   5.427   6.011  10.733 -0.4437 -0.0125  0.2242
   89SAPS   O13 8558   5.336   5.943  10.642 -0.0747  0.4353 -0.0809
   89SAPS   O14 8559   5.353   6.070  10.850  0.0328 -0.1948  0.5143
   89SAPS   O12 8560   5.542   5.917  10.789  0.1971  0.0029 -0.6489
   89SAPS   O11 8561   5.499   6.122  10.653  0.3552 -0.8024  0.3722
   89SAPS    C1 8562   5.432   6.245  10.638  0.6566  0.7007 -0.8002
   89SAPS    HA 8563   5.322   6.232  10.647  0.8618  0.2307  1.1246
   89SAPS    HB 8564   5.461   6.311  10.722 -1.8057  1.0987 -0.2241
   89SAPS    C2 8565   5.472   6.318  10.505  0.1183 -0.8581 -0.1754
   89SAPS    HS 8566   5.425   6.417  10.521  1.0848 -0.1746 -1.5295
   89SAPS   O21 8567   5.430   6.251  10.389 -0.6526  0.1106  0.2661
   89SAPS   C21 8568   5.313   6.274  10.337 -0.3685 -1.1525 -0.2238
   89SAPS   O22 8569   5.220   6.338  10.391 -0.6376 -0.5219 -0.0115
   89SAPS   C22 8570   5.303   6.218  10.196  0.0666 -0.1885  0.3552
   89SAPS   H2R 8571   5.405   6.227  10.153  0.6933 -0.0087  1.8505
   89SAPS   H2S 8572   5.290   6.108  10.210 -0.5574 -0.3585 -1.4235
   89SAPS    C3 8573   5.627   6.343  10.514 -0.0077  0.1148  1.0049
   89SAPS    HX 8574   5.685   6.251  10.489 -0.5690 -0.4087  1.6379
   89SAPS    HY 8575   5.660   6.370  10.616 -0.2585 -1.8174  1.6275
   89SAPS   O31 8576   5.653   6.431  10.408  0.0364 -0.4667  0.2037
   89SAPS   C31 8577   5.617   6.555  10.406 -0.5552 -0.6748  0.0444
   89SAPS   O32 8578   5.568   6.617  10.501  0.4876 -0.2965  0.1057
   89SAPS   C32 8579   5.641   6.621  10.273 -0.7401  0.6926  0.3251
   89SAPS   H2X 8580   5.684   6.551  10.198 -0.0452  1.3961  0.0553
   89SAPS   H2Y 8581   5.715   6.704  10.279  0.5458 -0.4313  0.2758
   89SAPS   C23 8582   5.194   6.293  10.107 -0.5389 -0.0677 -0.6246
   89SAPS   H3R 8583   5.179   6.402  10.115 -0.9126 -0.1315 -0.4155
   89SAPS   H3S 8584   5.103   6.242  10.145 -0.1088 -0.3391  0.0388
   89SAPS   C24 8585   5.212   6.235   9.966  0.4765 -0.5766  0.4638
   89SAPS   H4R 8586   5.203   6.125   9.976 -0.9835 -0.9834 -4.1993
   89SAPS   H4S 8587   5.312   6.274   9.937  0.6498 -1.4092 -0.0630
   89SAPS   C25 8588   5.096   6.293   9.880 -0.9407  0.3744 -0.0403
   89SAPS   H5R 8589   5.027   6.360   9.932 -0.4324  0.2608  0.7979
   89SAPS   C26 8590   5.082   6.273   9.747  0.0182  0.7578  0.3323
   89SAPS   H6R 8591   4.997   6.323   9.699 -0.9278  0.5336  1.7508
   89SAPS   C27 8592   5.164   6.190   9.650 -0.1994 -0.5019 -0.0609
   89SAPS   H7R 8593   5.259   6.165   9.701  1.5024  0.8436 -2.4578
   89SAPS   H7S 8594   5.199   6.261   9.571  1.7780 -1.1002  0.2583
   89SAPS   C28 8595   5.082   6.075   9.594  0.0625  0.1241 -0.2665
   89SAPS   H8R 8596   5.002   6.033   9.657 -1.0029  1.6413 -0.5911
   89SAPS   C29 8597   5.098   6.024   9.467 -0.0842 -0.0572  0.3386
   89SAPS   H9R 8598   5.028   5.946   9.435 -0.0069 -0.0435  0.1397
   89SAPS  C210 8599   5.202   6.083   9.379 -0.1066  0.9459  0.1149
   89SAPS  H10R 8600   5.243   5.991   9.331  0.4486  1.1863  0.1276
   89SAPS  H10S 8601   5.285   6.123   9.440  0.4469  0.9877 -0.6592
   89SAPS  C211 8602   5.174   6.186   9.273 -0.2043 -0.0805  0.4246
   89SAPS  H11R 8603   5.129   6.276   9.317 -0.7391 -0.0128 -0.2634
   89SAPS  C212 8604   5.197   6.176   9.143 -0.0601  0.4332  0.1606
   89SAPS  H12R 8605   5.174   6.263   9.080 -0.9143  1.7159  2.1702
   89SAPS  C213 8606   5.256   6.055   9.077  0.2591 -0.2710  0.8926
   89SAPS  H13R 8607   5.318   5.994   9.146 -1.3069 -1.7316  1.0488
   89SAPS  H13S 8608   5.331   6.094   9.005  0.1191 -0.1830  0.7938
   89SAPS  C214 8609   5.155   5.961   9.017 -0.0106 -0.4920  0.4384
   89SAPS  H14R 8610   5.118   5.884   9.086 -1.9163 -1.3994 -1.5349
   89SAPS  C215 8611   5.109   5.968   8.891  0.0736 -0.1083  0.3628
   89SAPS  H15R 8612   5.043   5.887   8.858  1.1895 -1.5091  1.5011
   89SAPS  C216 8613   5.140   6.071   8.784  0.1820  0.5617  0.7593
   89SAPS  H16R 8614   5.208   6.153   8.817  2.1040 -0.5260 -0.4472
   89SAPS  H16S 8615   5.049   6.127   8.754  1.7566  1.4020 -2.7246
   89SAPS  C217 8616   5.206   6.008   8.660 -0.4950  0.3894 -0.2400
   89SAPS  H17R 8617   5.210   6.091   8.585 -0.9787  0.9970  0.4020
   89SAPS  H17S 8618   5.135   5.933   8.618  0.2698 -0.4049 -0.1263
   89SAPS  C218 8619   5.345   5.930   8.665  0.8542 -0.6371  0.0105
   89SAPS  H18R 8620   5.342   5.880   8.765  0.4241  3.2200  2.0241
   89SAPS  H18S 8621   5.423   6.009   8.662  0.5490 -0.2659  1.2787
   89SAPS  C219 8622   5.369   5.843   8.543  0.4307  0.7367 -0.4894
   89SAPS  H19R 8623   5.301   5.857   8.456  0.0713 -0.5740 -0.4315
   89SAPS  H19S 8624   5.342   5.742   8.582 -2.0640  1.7918  0.6547
   89SAPS  C220 8625   5.518   5.842   8.508  0.0920  0.3486 -0.5058
   89SAPS  H20R 8626   5.562   5.798   8.600 -0.5294 -0.8403 -0.7666
   89SAPS  H20S 8627   5.548   5.942   8.470 -1.8674 -0.5614 -4.7556
   89SAPS  H20T 8628   5.531   5.780   8.417  0.6605  2.1763 -1.7070
   89SAPS   C33 8629   5.508   6.685  10.218 -0.2086  0.6099  0.0409
   89SAPS   H3X 8630   5.532   6.784  10.173  0.8959  0.2390 -0.2027
   89SAPS   H3Y 8631   5.432   6.703  10.297  0.1726  1.8668  0.1257
   89SAPS   C34 8632   5.442   6.594  10.117 -0.8233 -0.2210  0.3408
   89SAPS   H4X 8633   5.388   6.515  10.173 -0.3636 -1.2001 -0.5838
   89SAPS   H4Y 8634   5.515   6.534  10.059 -0.9744 -0.1878  0.1164
   89SAPS   C35 8635   5.360   6.675  10.010 -0.3833 -0.4361  0.3236
   89SAPS   H5X 8636   5.429   6.739   9.952  0.6925 -2.7010 -0.9912
   89SAPS   H5Y 8637   5.282   6.740  10.055  1.1576  1.5842  0.1144
   89SAPS   C36 8638   5.320   6.582   9.894  0.1947  0.4185 -0.3737
   89SAPS   H6X 8639   5.217   6.549   9.918 -0.3792  0.5747 -2.4951
   89SAPS   H6Y 8640   5.390   6.496   9.887 -3.6417 -2.8765 -0.3641
   89SAPS   C37 8641   5.304   6.663   9.763  0.1628 -0.1603  0.2711
   89SAPS   H7X 8642   5.403   6.709   9.740 -0.6133  2.4703  1.9945
   89SAPS   H7Y 8643   5.230   6.745   9.770  0.6293  0.1428  1.9477
   89SAPS   C38 8644   5.261   6.566   9.651  0.2201 -0.6547  0.3397
   89SAPS   H8X 8645   5.155   6.534   9.660 -1.4476  3.6382 -2.3813
   89SAPS   H8Y 8646   5.314   6.469   9.659  1.5470 -0.5130 -5.0223
   89SAPS   C39 8647   5.286   6.623   9.513 -0.0840 -0.1811  0.3525
   89SAPS   H9X 8648   5.395   6.621   9.494 -0.4498 -0.8719 -1.9333
   89SAPS   H9Y 8649   5.251   6.727   9.498 -1.1418 -0.1747  2.6670
   89SAPS  C310 8650   5.223   6.532   9.403 -0.7902  0.6968  0.4344
   89SAPS  H10X 8651   5.113   6.541   9.416 -0.5879  1.4420  1.6938
   89SAPS  H10Y 8652   5.256   6.426   9.410 -0.2868  0.6338 -2.2436
   89SAPS  C311 8653   5.275   6.582   9.273  0.3212  0.1148 -0.0138
   89SAPS  H11X 8654   5.386   6.583   9.268  0.2992  0.4342 -0.5593
   89SAPS  H11Y 8655   5.241   6.688   9.267  1.1897  0.4567  0.9656
   89SAPS  C312 8656   5.228   6.510   9.144 -0.6911 -0.2973  0.6749
   89SAPS  H12X 8657   5.120   6.488   9.151 -0.7981 -0.2851 -0.8870
   89SAPS  H12Y 8658   5.284   6.414   9.141  0.2074  0.2755 -1.1988
   89SAPS  C313 8659   5.257   6.599   9.020 -0.6020  0.8485 -0.1107
   89SAPS  H13X 8660   5.357   6.644   9.005 -0.5156  1.1366  1.2703
   89SAPS  H13Y 8661   5.196   6.690   9.038 -0.4487  0.6008  1.7228
   89SAPS  C314 8662   5.231   6.525   8.880 -0.5423 -0.9539 -0.0181
   89SAPS  H14X 8663   5.128   6.484   8.886 -0.5729 -0.8663  0.0406
   89SAPS  H14Y 8664   5.300   6.439   8.865 -1.5254 -1.8927  0.7543
   89SAPS  C315 8665   5.252   6.622   8.758  1.1306  0.2110  0.5619
   89SAPS  H15X 8666   5.356   6.661   8.766  1.3525 -0.7809  2.9647
   89SAPS  H15Y 8667   5.189   6.712   8.776  0.1898 -0.3810  0.2453
   89SAPS  C316 8668   5.218   6.565   8.623  0.7635 -0.3046  0.1787
   89SAPS  H16X 8669   5.115   6.524   8.624  0.8904 -0.6035  1.2060
   89SAPS  H16Y 8670   5.292   6.484   8.607  0.2744 -0.7691  0.2412
   89SAPS  C317 8671   5.239   6.664   8.504  0.2419  0.3910 -0.4765
   89SAPS  H17X 8672   5.350   6.668   8.496  0.1495 -0.5490 -2.5797
   89SAPS  H17Y 8673   5.192   6.756   8.544  0.3581  0.4710 -0.5240
   89SAPS  C318 8674   5.156   6.619   8.386 -0.2716  0.0877  0.0314
   89SAPS  H18X 8675   5.159   6.508   8.386 -1.6139  0.0471 -0.7019
   89SAPS  H18Y 8676   5.190   6.667   8.292  0.9059 -0.3144  0.2481
   89SAPS  H18Z 8677   5.048   6.641   8.401 -0.3209 -0.8902  1.2087
   90SAPS     N 8678   0.516   6.344  10.524  0.2726 -0.2955  0.6470
   90SAPS   HN1 8679   0.467   6.374  10.438  2.1105  2.2562  0.4577
   90SAPS   HN2 8680   0.458   6.366  10.607 -2.6003  1.1839 -1.6461
   90SAPS   HN3 8681   0.600   6.405  10.533 -0.4094  0.3400  3.1580
   90SAPS   C12 8682   0.567   6.209  10.540  0.8269 -0.6200  0.0649
   90SAPS  H12A 8683   0.666   6.196  10.498  0.7212  0.3728 -0.4956
   90SAPS   C13 8684   0.578   6.160  10.685 -0.0849 -0.9758 -0.4597
   90SAPS  O13A 8685   0.532   6.233  10.774  0.8657  0.3057 -0.0968
   90SAPS  O13B 8686   0.624   6.045  10.707 -0.1040 -0.1240  0.0165
   90SAPS   C11 8687   0.479   6.108  10.460 -0.3149 -0.0484  1.2017
   90SAPS  H11A 8688   0.537   6.014  10.469  2.8508  1.7037 -0.1247
   90SAPS  H11B 8689   0.477   6.130  10.352  1.3755 -0.8580  0.9932
   90SAPS     P 8690   0.258   5.962  10.472  0.1504 -0.1076 -0.2185
   90SAPS   O13 8691   0.345   5.842  10.467 -0.1122  0.8138 -0.3595
   90SAPS   O14 8692   0.152   5.959  10.571  0.1218 -0.3082 -0.7726
   90SAPS   O12 8693   0.347   6.088  10.508  0.2481  0.1826 -0.2552
   90SAPS   O11 8694   0.213   5.998  10.330 -0.2174 -0.1420  0.1068
   90SAPS    C1 8695   0.133   5.932  10.239  0.5902 -0.3850 -0.1374
   90SAPS    HA 8696   0.131   5.825  10.269 -0.0390 -0.9840 -2.2541
   90SAPS    HB 8697   0.030   5.972  10.251  1.3307  2.1197 -1.7194
   90SAPS    C2 8698   0.188   5.958  10.094  0.0920 -0.6244 -0.9719
   90SAPS    HS 8699   0.108   5.965  10.018 -0.3481 -0.3932 -0.4846
   90SAPS   O21 8700   0.283   5.845  10.065 -0.3332  0.0117  0.6396
   90SAPS   C21 8701   0.219   5.725  10.041  0.2644  0.5322  0.0050
   90SAPS   O22 8702   0.104   5.703  10.065  0.0358  0.1639  0.6584
   90SAPS   C22 8703   0.331   5.622  10.012  0.6234 -0.1262 -0.1022
   90SAPS   H2R 8704   0.423   5.657  10.064  0.7760 -0.8073  0.0942
   90SAPS   H2S 8705   0.294   5.525  10.053  0.8788 -0.1070  0.1756
   90SAPS    C3 8706   0.274   6.093  10.085 -0.0925  0.0808 -0.5443
   90SAPS    HX 8707   0.359   6.111  10.154 -0.0402  0.7441 -0.7751
   90SAPS    HY 8708   0.198   6.171  10.106  0.1328 -0.1699  1.2464
   90SAPS   O31 8709   0.320   6.097   9.953 -0.1194  0.4458  0.1698
   90SAPS   C31 8710   0.244   6.140   9.856 -0.6211 -0.0057 -0.2068
   90SAPS   O32 8711   0.139   6.202   9.869  0.0667  0.0036  0.0934
   90SAPS   C32 8712   0.327   6.124   9.730 -0.0016 -0.4459  0.1853
   90SAPS   H2X 8713   0.321   6.016   9.703 -2.9534 -0.3260  0.2499
   90SAPS   H2Y 8714   0.430   6.157   9.754 -0.5905  1.4571  0.1733
   90SAPS   C23 8715   0.363   5.620   9.863 -0.4637  0.1847 -0.9152
   90SAPS   H3R 8716   0.465   5.576   9.865 -1.0929 -1.2944  2.2609
   90SAPS   H3S 8717   0.362   5.722   9.819 -2.1439  0.0570 -1.2040
   90SAPS   C24 8718   0.272   5.531   9.785 -0.1627 -0.3892 -0.2516
   90SAPS   H4R 8719   0.167   5.567   9.780 -0.0031  0.0534 -0.4935
   90SAPS   H4S 8720   0.264   5.434   9.838  1.2193 -1.6780 -2.3398
   90SAPS   C25 8721   0.338   5.512   9.655  0.0582  0.2185  0.3754
   90SAPS   H5R 8722   0.420   5.438   9.654  0.7443  0.9460 -1.9437
   90SAPS   C26 8723   0.315   5.564   9.540  0.5335  0.3898  0.6052
   90SAPS   H6R 8724   0.371   5.525   9.454 -0.9012  1.7329 -0.9941
   90SAPS   C27 8725   0.218   5.679   9.505 -0.2652 -0.3694 -0.4701
   90SAPS   H7R 8726   0.282   5.769   9.492  0.6082 -0.4024  2.9857
   90SAPS   H7S 8727   0.161   5.706   9.596 -1.9183 -0.9826 -1.3116
   90SAPS   C28 8728   0.120   5.655   9.393  0.4394 -0.3786 -0.6066
   90SAPS   H8R 8729   0.051   5.570   9.405  1.1120 -1.2568 -2.6804
   90SAPS   C29 8730   0.117   5.718   9.271  0.2515  0.3154 -0.7120
   90SAPS   H9R 8731   0.045   5.689   9.192  0.3315  0.6565 -0.9113
   90SAPS  C210 8732   0.209   5.832   9.229 -0.0284  0.2836 -0.4873
   90SAPS  H10R 8733   0.298   5.793   9.176 -1.9895 -1.8981 -2.2952
   90SAPS  H10S 8734   0.236   5.901   9.312 -0.2315  1.2858 -1.2498
   90SAPS  C211 8735   0.141   5.916   9.125 -0.0837  0.5427  0.0640
   90SAPS  H11R 8736   0.077   6.000   9.156  0.1436  0.5884  0.4119
   90SAPS  C212 8737   0.149   5.890   8.991 -0.5620 -0.0353  0.4365
   90SAPS  H12R 8738   0.083   5.941   8.919 -0.1147 -0.8802 -0.6004
   90SAPS  C213 8739   0.227   5.782   8.923 -1.0513  0.9333  0.4979
   90SAPS  H13R 8740   0.258   5.704   8.995 -1.3688  0.9489  0.6546
   90SAPS  H13S 8741   0.317   5.838   8.891  0.2328 -0.3780  1.7557
   90SAPS  C214 8742   0.141   5.720   8.812 -0.0455  0.2245 -0.5662
   90SAPS  H14R 8743   0.061   5.651   8.841  2.1773 -1.3819  2.0099
   90SAPS  C215 8744   0.152   5.756   8.683  0.1931  0.2789  0.2165
   90SAPS  H15R 8745   0.078   5.716   8.611  1.3749  0.4301 -1.1181
   90SAPS  C216 8746   0.239   5.860   8.621  0.2584  0.8586  0.5610
   90SAPS  H16R 8747   0.308   5.814   8.547  1.1486 -0.4499  2.1690
   90SAPS  H16S 8748   0.292   5.919   8.699 -1.4089  1.0022  1.6307
   90SAPS  C217 8749   0.165   5.971   8.542 -0.1486  0.0204  0.4713
   90SAPS  H17R 8750   0.245   6.034   8.498 -2.0071  1.8922 -0.2651
   90SAPS  H17S 8751   0.093   6.035   8.598  1.4519  0.1008  2.5278
   90SAPS  C218 8752   0.102   5.919   8.407 -0.2655 -0.8487 -0.1367
   90SAPS  H18R 8753   0.017   5.856   8.440 -1.3038  1.2869  1.4302
   90SAPS  H18S 8754   0.178   5.861   8.351 -0.8597 -1.5039 -0.2588
   90SAPS  C219 8755   0.060   6.039   8.326  0.2729 -0.0825  0.3356
   90SAPS  H19R 8756   0.152   6.088   8.289  0.5788  0.8719  2.2754
   90SAPS  H19S 8757   0.014   6.105   8.403 -0.7706 -0.0724 -0.2957
   90SAPS  C220 8758  -0.048   6.002   8.231  0.3189 -0.1799 -0.3178
   90SAPS  H20R 8759  -0.137   5.978   8.293  1.1018  0.0100  0.8945
   90SAPS  H20S 8760  -0.034   5.903   8.181 -0.1727 -0.3267 -0.1598
   90SAPS  H20T 8761  -0.069   6.081   8.156  4.2318 -0.2098 -1.5728
   90SAPS   C33 8762   0.266   6.195   9.605 -0.1034  0.2353  0.1110
   90SAPS   H3X 8763   0.270   6.305   9.622 -1.2404  0.1739  0.8241
   90SAPS   H3Y 8764   0.162   6.160   9.587  0.5220 -0.8595 -1.5788
   90SAPS   C34 8765   0.349   6.157   9.480  0.8844 -0.9651  0.1273
   90SAPS   H4X 8766   0.354   6.046   9.490 -3.0625 -1.1604  0.5025
   90SAPS   H4Y 8767   0.453   6.197   9.486  0.8592 -0.8462 -0.2059
   90SAPS   C35 8768   0.289   6.206   9.348  0.4942  0.0545 -0.8727
   90SAPS   H5X 8769   0.258   6.311   9.366 -0.4907 -0.7466  2.2627
   90SAPS   H5Y 8770   0.197   6.144   9.336 -0.0528 -0.0487  3.2300
   90SAPS   C36 8771   0.375   6.180   9.222  0.1847  1.0429 -0.7850
   90SAPS   H6X 8772   0.401   6.074   9.203  0.9341  0.9063  0.9437
   90SAPS   H6Y 8773   0.472   6.227   9.249  1.0625 -1.0128 -0.2792
   90SAPS   C37 8774   0.311   6.241   9.091 -0.0762 -0.0826  0.5668
   90SAPS   H7X 8775   0.322   6.351   9.100 -0.1597 -0.2007  2.2252
   90SAPS   H7Y 8776   0.204   6.213   9.081  0.1166 -0.2911 -0.9529
   90SAPS   C38 8777   0.389   6.212   8.958 -0.5539  0.4833 -0.1930
   90SAPS   H8X 8778   0.413   6.104   8.958  0.2656  0.6523  1.6803
   90SAPS   H8Y 8779   0.483   6.270   8.959  1.6121 -2.8395 -1.9061
   90SAPS   C39 8780   0.314   6.236   8.830  0.1393  0.5165  0.2731
   90SAPS   H9X 8781   0.211   6.195   8.841 -0.0291  0.7818 -0.3050
   90SAPS   H9Y 8782   0.352   6.180   8.741 -1.5022 -0.4215  0.1480
   90SAPS  C310 8783   0.287   6.382   8.794 -0.6419  1.0911 -0.3138
   90SAPS  H10X 8784   0.378   6.437   8.831 -0.4234  0.4963  0.0368
   90SAPS  H10Y 8785   0.198   6.412   8.853 -0.4248  0.8674  0.1374
   90SAPS  C311 8786   0.272   6.403   8.638 -0.1974  0.5773  0.6641
   90SAPS  H11X 8787   0.290   6.304   8.591 -0.4171  0.9420 -0.2006
   90SAPS  H11Y 8788   0.355   6.470   8.605  0.3352 -0.7254 -0.6711
   90SAPS  C312 8789   0.131   6.451   8.612  0.2878  0.0806 -0.2776
   90SAPS  H12X 8790   0.112   6.547   8.665 -0.6831  0.2670 -0.9487
   90SAPS  H12Y 8791   0.057   6.381   8.655  0.5364  1.5758  2.7780
   90SAPS  C313 8792   0.091   6.470   8.468  0.4151 -0.3109 -0.2816
   90SAPS  H13X 8793   0.114   6.380   8.407 -1.6915 -0.7999 -0.4028
   90SAPS  H13Y 8794   0.152   6.557   8.436 -1.2608  1.7416  1.9006
   90SAPS  C314 8795  -0.057   6.505   8.447 -0.2136  0.2687  0.4102
   90SAPS  H14X 8796  -0.076   6.608   8.483  2.9147  1.2607 -0.5605
   90SAPS  H14Y 8797  -0.130   6.431   8.485  0.6582 -0.3864  0.8265
   90SAPS  C315 8798  -0.082   6.515   8.290  0.6399  0.0816  0.4169
   90SAPS  H15X 8799  -0.068   6.412   8.252  1.5767  0.4559 -0.2929
   90SAPS  H15Y 8800  -0.008   6.579   8.235 -1.4172  0.5173 -1.9437
   90SAPS  C316 8801  -0.222   6.562   8.258  0.0552  0.4709 -0.1402
   90SAPS  H16X 8802  -0.247   6.670   8.261 -1.6984  0.0424  2.0326
   90SAPS  H16Y 8803  -0.290   6.524   8.337 -1.7588  1.2492 -1.2886
   90SAPS  C317 8804  -0.283   6.499   8.128  0.4240  0.3394 -0.0793
   90SAPS  H17X 8805  -0.299   6.389   8.131 -0.1123  0.3989 -0.6774
   90SAPS  H17Y 8806  -0.207   6.510   8.047 -0.8208 -0.9974 -1.4597
   90SAPS  C318 8807  -0.422   6.556   8.094  0.8830  0.1637 -0.6821
   90SAPS  H18X 8808  -0.474   6.511   8.006  3.0198 -0.3042 -1.7378
   90SAPS  H18Y 8809  -0.426   6.666   8.083 -2.4948 -0.2303 -4.2938
   90SAPS  H18Z 8810  -0.488   6.516   8.174  0.1266  2.3609 -0.1893
   91SAPS     N 8811   4.775   3.611   6.178  0.6319  0.0176 -0.0677
   91SAPS   HN1 8812   4.700   3.541   6.197  0.5626 -0.5328 -2.1638
   91SAPS   HN2 8813   4.861   3.589   6.232  0.8022 -1.1170 -0.7738
   91SAPS   HN3 8814   4.744   3.706   6.204 -1.1205 -0.7771  0.7884
   91SAPS   C12 8815   4.811   3.608   6.036 -0.2392 -0.2035 -1.0859
   91SAPS  H12A 8816   4.843   3.505   6.028 -0.0807 -0.2592  0.1822
   91SAPS   C13 8817   4.704   3.619   5.925  0.1673 -0.6517  0.0214
   91SAPS  O13A 8818   4.591   3.645   5.968  0.4063  0.5832  0.3888
   91SAPS  O13B 8819   4.734   3.619   5.802 -0.0232 -0.3485 -0.1541
   91SAPS   C11 8820   4.944   3.704   6.021 -0.1610  0.8369 -0.2939
   91SAPS  H11A 8821   4.994   3.680   5.925 -0.5234 -3.2183  0.4444
   91SAPS  H11B 8822   5.022   3.669   6.091  0.6051 -0.8276 -1.9216
   91SAPS     P 8823   5.008   3.939   6.105  0.0270 -0.3452 -0.4482
   91SAPS   O13 8824   5.134   3.956   6.024 -0.0223 -0.1046 -0.5580
   91SAPS   O14 8825   4.938   4.066   6.140  0.6790 -0.0522 -0.3565
   91SAPS   O12 8826   4.919   3.840   6.026  0.1356  0.2347  0.0249
   91SAPS   O11 8827   5.043   3.853   6.232  0.3193  0.2316  0.4767
   91SAPS    C1 8828   4.965   3.865   6.351 -0.3007 -0.7223 -0.7175
   91SAPS    HA 8829   4.871   3.922   6.335 -0.1107  0.6267  2.5747
   91SAPS    HB 8830   4.928   3.770   6.394 -0.4191  0.4492  1.8173
   91SAPS    C2 8831   5.039   3.953   6.458 -0.2715 -0.2557  0.2080
   91SAPS    HS 8832   5.099   4.024   6.398 -0.3392 -1.4454 -1.3302
   91SAPS   O21 8833   5.125   3.869   6.541  0.2400 -0.3927  0.3100
   91SAPS   C21 8834   5.241   3.909   6.570  0.1133  0.1474  0.0768
   91SAPS   O22 8835   5.294   4.014   6.529 -0.0254  0.2215  0.1729
   91SAPS   C22 8836   5.300   3.803   6.667  0.6535  0.2016  0.2232
   91SAPS   H2R 8837   5.351   3.726   6.605 -0.6838 -0.3914 -0.1586
   91SAPS   H2S 8838   5.381   3.846   6.728 -0.2449  0.6795  1.0911
   91SAPS    C3 8839   4.937   4.020   6.550  0.3374 -0.0946 -0.0935
   91SAPS    HX 8840   4.883   3.939   6.604 -1.9537  1.2580 -0.2770
   91SAPS    HY 8841   4.865   4.071   6.483  0.0610 -2.1885 -1.4387
   91SAPS   O31 8842   4.994   4.105   6.654 -0.2882 -0.2701  0.5164
   91SAPS   C31 8843   5.053   4.215   6.609 -0.3621  0.5175  0.3338
   91SAPS   O32 8844   5.040   4.258   6.496  0.0759 -0.0492  0.0159
   91SAPS   C32 8845   5.133   4.279   6.718 -0.0489 -1.3441 -0.0052
   91SAPS   H2X 8846   5.205   4.209   6.765  4.4671  1.4106 -2.4106
   91SAPS   H2Y 8847   5.056   4.302   6.794 -0.1557 -1.5051 -0.0652
   91SAPS   C23 8848   5.197   3.732   6.754  0.4908  0.6592 -0.3001
   91SAPS   H3R 8849   5.251   3.658   6.817  0.9625 -0.0051 -1.4798
   91SAPS   H3S 8850   5.125   3.674   6.694 -1.2961  0.3465  2.0692
   91SAPS   C24 8851   5.122   3.830   6.846 -0.2413  0.3359  0.1169
   91SAPS   H4R 8852   5.030   3.788   6.892 -2.1345  2.9993 -1.1042
   91SAPS   H4S 8853   5.079   3.907   6.778 -1.1673 -1.6261 -1.5742
   91SAPS   C25 8854   5.199   3.911   6.955  0.4660  0.1176 -0.1630
   91SAPS   H5R 8855   5.241   4.004   6.912 -1.1798 -0.2782 -2.7738
   91SAPS   C26 8856   5.204   3.893   7.095 -0.0235 -0.3979  0.0323
   91SAPS   H6R 8857   5.260   3.957   7.165 -1.9499 -0.6064  1.8015
   91SAPS   C27 8858   5.137   3.779   7.167  0.5629 -0.0556 -0.0865
   91SAPS   H7R 8859   5.064   3.724   7.103 -1.1161  2.7557 -0.6779
   91SAPS   H7S 8860   5.081   3.826   7.251 -0.6331  0.6983 -1.2776
   91SAPS   C28 8861   5.235   3.684   7.225  0.2123  0.4287 -0.1885
   91SAPS   H8R 8862   5.274   3.615   7.149 -0.0728  0.5711 -0.4627
   91SAPS   C29 8863   5.282   3.678   7.357 -0.1943  0.3428  0.1930
   91SAPS   H9R 8864   5.367   3.612   7.381 -0.8146 -0.3190  0.5815
   91SAPS  C210 8865   5.242   3.759   7.478 -0.5661  0.5119 -0.8105
   91SAPS  H10R 8866   5.259   3.866   7.453 -1.0281  0.7335 -0.2007
   91SAPS  H10S 8867   5.314   3.735   7.559 -1.1510 -0.6356 -0.6146
   91SAPS  C211 8868   5.095   3.746   7.518  0.2127  0.0373  0.2703
   91SAPS  H11R 8869   5.024   3.728   7.436 -0.7197  1.5720  0.7184
   91SAPS  C212 8870   5.055   3.745   7.647  0.2761  0.1992  0.4436
   91SAPS  H12R 8871   4.948   3.738   7.670 -0.4527  0.6404 -2.5924
   91SAPS  C213 8872   5.151   3.763   7.765 -0.0800 -0.5613  0.1812
   91SAPS  H13R 8873   5.225   3.838   7.728  0.0786 -0.4946  0.6412
   91SAPS  H13S 8874   5.213   3.674   7.785 -0.8536 -0.9874  0.7261
   91SAPS  C214 8875   5.097   3.831   7.890 -0.2395 -0.3076  0.1815
   91SAPS  H14R 8876   5.019   3.777   7.947  0.0163 -0.8724  0.0084
   91SAPS  C215 8877   5.134   3.946   7.946  0.1245 -0.3291  0.0430
   91SAPS  H15R 8878   5.088   3.970   8.043 -4.0313  0.9480 -2.1307
   91SAPS  C216 8879   5.242   4.042   7.906 -0.4938 -0.1011  0.0616
   91SAPS  H16R 8880   5.200   4.144   7.894 -1.5929 -0.2990  2.1238
   91SAPS  H16S 8881   5.287   4.015   7.808 -1.4146 -0.3424 -0.3064
   91SAPS  C217 8882   5.361   4.050   8.005  0.5427 -0.4020  0.0476
   91SAPS  H17R 8883   5.403   3.957   8.049 -1.1386 -1.0533  0.3083
   91SAPS  H17S 8884   5.328   4.106   8.094  0.6562  1.2065 -0.9031
   91SAPS  C218 8885   5.468   4.123   7.925  0.5207 -0.2594 -0.2948
   91SAPS  H18R 8886   5.408   4.203   7.877 -0.7491 -1.4814 -0.7591
   91SAPS  H18S 8887   5.510   4.067   7.839  0.6487  1.2988 -1.2672
   91SAPS  C219 8888   5.579   4.187   8.011 -0.5965  0.0715 -0.3033
   91SAPS  H19R 8889   5.538   4.243   8.097 -0.9402 -0.9247  0.1995
   91SAPS  H19S 8890   5.635   4.265   7.956  0.3393  0.7329  1.5574
   91SAPS  C220 8891   5.685   4.086   8.068  0.0190 -0.0948  0.2935
   91SAPS  H20R 8892   5.640   4.012   8.137 -1.5984 -0.5107 -1.1865
   91SAPS  H20S 8893   5.772   4.132   8.120  1.3518 -1.9378 -0.2513
   91SAPS  H20T 8894   5.729   4.027   7.985  1.0822  1.4589 -0.2715
   91SAPS   C33 8895   5.215   4.403   6.665 -0.0281 -0.1753  0.8415
   91SAPS   H3X 8896   5.141   4.476   6.626 -0.0229 -0.2252  0.7363
   91SAPS   H3Y 8897   5.283   4.374   6.582 -1.5446 -1.3778 -0.0297
   91SAPS   C34 8898   5.295   4.466   6.775 -0.5200 -0.2615  0.1351
   91SAPS   H4X 8899   5.357   4.548   6.732  1.6592 -1.0272  1.7200
   91SAPS   H4Y 8900   5.358   4.377   6.798  0.5999  0.0706 -1.5309
   91SAPS   C35 8901   5.228   4.519   6.898 -0.0707  0.8118 -0.0245
   91SAPS   H5X 8902   5.196   4.430   6.956 -0.5543  1.4627  0.7139
   91SAPS   H5Y 8903   5.140   4.575   6.860 -1.2168 -1.3666 -0.7081
   91SAPS   C36 8904   5.321   4.611   6.977  0.1353 -0.1749 -0.2109
   91SAPS   H6X 8905   5.378   4.693   6.929  0.1543 -0.6073 -0.9357
   91SAPS   H6Y 8906   5.396   4.537   7.015  1.7471  0.6857 -1.6518
   91SAPS   C37 8907   5.266   4.665   7.111  0.2179 -0.7952  0.4456
   91SAPS   H7X 8908   5.192   4.594   7.154 -1.5139 -0.2669 -1.5706
   91SAPS   H7Y 8909   5.207   4.755   7.083  1.1159 -0.0672  0.8984
   91SAPS   C38 8910   5.368   4.720   7.216  0.1870  0.1337  0.5689
   91SAPS   H8X 8911   5.426   4.797   7.161 -0.4265  0.1482 -0.0811
   91SAPS   H8Y 8912   5.432   4.639   7.256  1.7460  1.4950  0.8647
   91SAPS   C39 8913   5.293   4.777   7.335 -0.3538  0.5309  0.0101
   91SAPS   H9X 8914   5.206   4.721   7.376  1.4573 -2.0229  0.4553
   91SAPS   H9Y 8915   5.252   4.872   7.295  0.6746  1.5406  1.2953
   91SAPS  C310 8916   5.384   4.801   7.462 -0.4347  0.1956 -0.0843
   91SAPS  H10X 8917   5.471   4.863   7.432 -1.0611 -0.4624 -3.4078
   91SAPS  H10Y 8918   5.429   4.702   7.485 -2.3086 -0.5459  0.4334
   91SAPS  C311 8919   5.289   4.856   7.574  1.3474 -0.5849  0.0636
   91SAPS  H11X 8920   5.184   4.824   7.558  0.4887  0.2461  3.5601
   91SAPS  H11Y 8921   5.300   4.966   7.560  0.9582 -0.7924 -1.9815
   91SAPS  C312 8922   5.327   4.827   7.719  0.4468 -0.0499  0.3238
   91SAPS  H12X 8923   5.301   4.902   7.797 -1.6529  1.0215 -1.3641
   91SAPS  H12Y 8924   5.438   4.837   7.715  0.4759 -0.1761  0.8644
   91SAPS  C313 8925   5.297   4.682   7.746 -0.5481 -0.4036 -0.3727
   91SAPS  H13X 8926   5.323   4.605   7.670 -1.4262 -2.5080  1.3813
   91SAPS  H13Y 8927   5.186   4.675   7.745 -0.4974 -1.9923  1.5074
   91SAPS  C314 8928   5.323   4.642   7.891 -0.1041  1.3901 -0.9223
   91SAPS  H14X 8929   5.276   4.722   7.953 -1.2937  2.6032 -3.2995
   91SAPS  H14Y 8930   5.434   4.633   7.897  0.0908  0.6895 -4.4397
   91SAPS  C315 8931   5.280   4.503   7.936 -0.0997  0.4550  0.5231
   91SAPS  H15X 8932   5.331   4.431   7.869  0.1308  1.9103 -0.9016
   91SAPS  H15Y 8933   5.171   4.489   7.919  0.7410 -3.3094 -2.3760
   91SAPS  C316 8934   5.322   4.465   8.080  0.8864 -1.0068  0.6911
   91SAPS  H16X 8935   5.429   4.486   8.100  1.1557 -0.0454 -1.5218
   91SAPS  H16Y 8936   5.304   4.356   8.083 -0.9624 -0.8552 -2.6063
   91SAPS  C317 8937   5.248   4.535   8.192 -0.1608  0.1194 -0.4463
   91SAPS  H17X 8938   5.141   4.541   8.166 -0.1764 -2.0051 -0.9627
   91SAPS  H17Y 8939   5.287   4.639   8.194  3.7861 -1.2515 -0.7168
   91SAPS  C318 8940   5.260   4.459   8.323  0.4784  0.3340  0.2393
   91SAPS  H18X 8941   5.226   4.353   8.317 -1.0391  0.7956  0.6327
   91SAPS  H18Y 8942   5.195   4.498   8.404 -1.1242 -0.9563 -0.3978
   91SAPS  H18Z 8943   5.363   4.470   8.365  0.2422 -1.8573  1.4578
   92SAPS     N 8944   4.208   2.045   6.374 -0.0374  0.2898  0.3919
   92SAPS   HN1 8945   4.190   1.963   6.434 -0.3677  0.7546  0.9293
   92SAPS   HN2 8946   4.249   2.127   6.423  0.8713  0.6750 -0.9864
   92SAPS   HN3 8947   4.116   2.089   6.350  0.2413  0.9278  0.4736
   92SAPS   C12 8948   4.270   2.021   6.243  0.1093 -0.3043  0.0437
   92SAPS  H12A 8949   4.231   1.928   6.206 -1.2437 -0.3627  1.5560
   92SAPS   C13 8950   4.222   2.129   6.143  0.3779 -0.6083  0.4224
   92SAPS  O13A 8951   4.150   2.228   6.183  0.0864  0.2261 -0.0903
   92SAPS  O13B 8952   4.257   2.121   6.023 -0.5882  0.3036  0.0958
   92SAPS   C11 8953   4.422   2.010   6.247 -0.4465  0.5056 -0.4826
   92SAPS  H11A 8954   4.465   2.108   6.275  0.9027 -0.0431 -0.5788
   92SAPS  H11B 8955   4.452   1.972   6.147 -0.7096 -3.1723  0.7674
   92SAPS     P 8956   4.544   1.918   6.475  0.0025 -0.3490  0.0342
   92SAPS   O13 8957   4.561   1.785   6.546  0.3874  0.2094  0.0208
   92SAPS   O14 8958   4.664   2.000   6.458  0.9108 -0.4333  0.6990
   92SAPS   O12 8959   4.454   1.903   6.345 -0.4257  0.1596 -0.0412
   92SAPS   O11 8960   4.442   2.016   6.554 -0.1551 -0.1206  0.1389
   92SAPS    C1 8961   4.497   2.093   6.659  0.2786  0.1636  0.2762
   92SAPS    HA 8962   4.556   2.181   6.626 -2.5726  1.2407 -2.1281
   92SAPS    HB 8963   4.408   2.135   6.711 -0.9247 -2.5591  0.4471
   92SAPS    C2 8964   4.559   2.004   6.771 -0.1628  0.2815 -0.0863
   92SAPS    HS 8965   4.645   1.947   6.729 -0.8775 -1.1710  0.3761
   92SAPS   O21 8966   4.445   1.922   6.819 -0.6917 -0.0953  0.9095
   92SAPS   C21 8967   4.486   1.809   6.870  0.7651 -0.7722 -0.4600
   92SAPS   O22 8968   4.603   1.771   6.866 -0.2590  0.7351 -0.0813
   92SAPS   C22 8969   4.368   1.733   6.932  0.1289 -0.4298  0.0894
   92SAPS   H2R 8970   4.275   1.792   6.920 -2.2882 -4.2358 -0.7795
   92SAPS   H2S 8971   4.350   1.640   6.874  0.7687 -0.1985 -0.4924
   92SAPS    C3 8972   4.616   2.098   6.885  0.1236  0.3700 -0.0951
   92SAPS    HX 8973   4.520   2.130   6.931 -0.2392  0.0053 -0.5909
   92SAPS    HY 8974   4.676   2.182   6.844  0.8776  0.8869  2.0101
   92SAPS   O31 8975   4.687   2.026   6.989  0.2346 -0.2646  0.0552
   92SAPS   C31 8976   4.806   1.991   6.959  0.0012 -0.0275  0.2911
   92SAPS   O32 8977   4.863   1.998   6.851 -0.4541  0.1128  0.4200
   92SAPS   C32 8978   4.876   1.955   7.082 -0.8158 -0.1692 -0.1494
   92SAPS   H2X 8979   4.872   2.030   7.164  0.6966 -0.1374 -0.0993
   92SAPS   H2Y 8980   4.983   1.967   7.054 -0.3649  2.1819  2.3816
   92SAPS   C23 8981   4.403   1.689   7.077 -0.2685  0.0010  0.1704
   92SAPS   H3R 8982   4.509   1.660   7.094 -0.5339  1.1136  4.1942
   92SAPS   H3S 8983   4.345   1.598   7.102 -0.4053  0.0675  0.0922
   92SAPS   C24 8984   4.352   1.774   7.186  0.4863 -0.1969  0.0032
   92SAPS   H4R 8985   4.377   1.728   7.285 -0.9032 -3.1260 -0.9412
   92SAPS   H4S 8986   4.241   1.772   7.176  0.3754  0.0216  1.1011
   92SAPS   C25 8987   4.402   1.921   7.193 -0.5758  0.2398  0.4750
   92SAPS   H5R 8988   4.364   1.984   7.111 -0.7807 -2.9949 -2.0267
   92SAPS   C26 8989   4.473   1.978   7.294  0.4697  0.1085  0.0726
   92SAPS   H6R 8990   4.518   2.075   7.268  1.1422  0.3295  1.9886
   92SAPS   C27 8991   4.521   1.917   7.420 -0.1857 -0.2974 -1.5322
   92SAPS   H7R 8992   4.570   1.818   7.406 -0.5944 -0.6578 -0.4840
   92SAPS   H7S 8993   4.428   1.888   7.474  0.5851 -0.5138 -0.3071
   92SAPS   C28 8994   4.585   2.005   7.519 -0.5681  0.1934 -0.2078
   92SAPS   H8R 8995   4.610   2.109   7.493 -2.6341  1.4984  2.7950
   92SAPS   C29 8996   4.644   1.965   7.631  0.7441 -0.0383 -0.1594
   92SAPS   H9R 8997   4.685   2.043   7.696  2.1950 -0.5658 -0.4309
   92SAPS  C210 8998   4.639   1.824   7.686 -0.8006  0.3001 -0.3367
   92SAPS  H10R 8999   4.736   1.773   7.666 -0.5229  0.7048  0.0035
   92SAPS  H10S 9000   4.554   1.761   7.649  0.2773 -1.8885  0.7895
   92SAPS  C211 9001   4.630   1.839   7.837 -0.1853  0.4905  0.2102
   92SAPS  H11R 9002   4.532   1.882   7.865 -0.6401 -0.5137  0.1682
   92SAPS  C212 9003   4.715   1.800   7.931 -0.0888  0.1552 -0.2069
   92SAPS  H12R 9004   4.682   1.810   8.035  0.7849 -0.3692  0.1298
   92SAPS  C213 9005   4.849   1.738   7.923  0.2812  0.4411  0.0702
   92SAPS  H13R 9006   4.879   1.704   7.821 -1.7681 -0.4274 -0.2823
   92SAPS  H13S 9007   4.858   1.644   7.983  1.0621  2.2981  2.9304
   92SAPS  C214 9008   4.934   1.849   7.974  0.0326  0.3144 -0.4450
   92SAPS  H14R 9009   4.977   1.926   7.908 -0.4081  0.9361 -0.0088
   92SAPS  C215 9010   4.974   1.859   8.104 -0.0546  0.3885 -0.8530
   92SAPS  H15R 9011   5.051   1.933   8.131  0.2990  1.1059 -3.6563
   92SAPS  C216 9012   4.933   1.752   8.208  0.0068 -0.0804 -0.5053
   92SAPS  H16R 9013   4.846   1.696   8.168  0.6908 -1.2484 -0.3783
   92SAPS  H16S 9014   4.893   1.805   8.297 -3.1579 -1.2289 -1.1911
   92SAPS  C217 9015   5.047   1.657   8.240 -0.2117 -0.2532  1.0911
   92SAPS  H17R 9016   5.134   1.713   8.280  0.0424 -0.6304  1.0735
   92SAPS  H17S 9017   5.075   1.602   8.148 -0.3445 -0.7644  1.3501
   92SAPS  C218 9018   5.013   1.555   8.341 -0.7597  0.2085 -0.3417
   92SAPS  H18R 9019   5.089   1.474   8.349 -0.8843  0.1317  0.1068
   92SAPS  H18S 9020   4.914   1.506   8.326 -0.6523 -0.8641  2.0943
   92SAPS  C219 9021   5.004   1.623   8.479 -0.1828 -0.8341 -0.1963
   92SAPS  H19R 9022   4.956   1.556   8.552 -0.5867  0.2691  0.5643
   92SAPS  H19S 9023   4.940   1.713   8.466  0.9734  0.0088 -0.1173
   92SAPS  C220 9024   5.139   1.660   8.547 -0.3186 -0.2122  0.0269
   92SAPS  H20R 9025   5.107   1.684   8.651 -1.9906  3.7131 -1.3259
   92SAPS  H20S 9026   5.177   1.756   8.507 -1.7654  0.2277 -0.2941
   92SAPS  H20T 9027   5.223   1.588   8.540 -1.2478 -1.0663 -2.8781
   92SAPS   C33 9028   4.854   1.814   7.130 -0.4520 -0.0127 -0.4776
   92SAPS   H3X 9029   4.902   1.739   7.063  1.0435  0.0465  0.4971
   92SAPS   H3Y 9030   4.745   1.791   7.133 -0.7029  1.1252 -0.8005
   92SAPS   C34 9031   4.903   1.796   7.277  0.1211 -0.1905  0.7766
   92SAPS   H4X 9032   4.851   1.859   7.353  1.8297  1.2267  0.7876
   92SAPS   H4Y 9033   5.011   1.817   7.293  0.4712  0.1673 -1.8422
   92SAPS   C35 9034   4.878   1.647   7.310 -0.2208 -0.5939  1.2208
   92SAPS   H5X 9035   4.964   1.591   7.267  0.3223 -0.0353  1.5610
   92SAPS   H5Y 9036   4.786   1.608   7.261 -1.2301  2.9171  0.1855
   92SAPS   C36 9037   4.871   1.611   7.462  0.0846 -0.2946 -0.2500
   92SAPS   H6X 9038   4.767   1.614   7.500  0.5586  1.4618  1.0195
   92SAPS   H6Y 9039   4.928   1.676   7.532  0.3678  0.6334 -1.3205
   92SAPS   C37 9040   4.903   1.471   7.496 -0.0550  0.5477  0.3612
   92SAPS   H7X 9041   5.003   1.438   7.461  0.1729  2.0369 -0.4019
   92SAPS   H7Y 9042   4.833   1.398   7.450  0.0698 -0.8699  2.3377
   92SAPS   C38 9043   4.901   1.452   7.645 -0.4044  0.2828  0.5587
   92SAPS   H8X 9044   4.823   1.513   7.695 -1.5143 -0.3297 -0.4200
   92SAPS   H8Y 9045   4.995   1.489   7.691  0.5212  0.6003 -1.5400
   92SAPS   C39 9046   4.869   1.312   7.686 -0.3971 -0.1107  0.4841
   92SAPS   H9X 9047   4.962   1.255   7.662 -0.5598  0.0424 -0.5464
   92SAPS   H9Y 9048   4.791   1.265   7.622  0.1615  2.4787 -2.2109
   92SAPS  C310 9049   4.825   1.272   7.824  0.2690  0.6000  0.2321
   92SAPS  H10X 9050   4.810   1.162   7.829 -0.1773  0.6250 -0.6066
   92SAPS  H10Y 9051   4.729   1.323   7.845 -0.8809  0.1760 -3.7257
   92SAPS  C311 9052   4.922   1.289   7.934 -0.4040  0.0693 -0.3427
   92SAPS  H11X 9053   4.928   1.394   7.971 -0.5447  0.0178 -0.1737
   92SAPS  H11Y 9054   5.020   1.243   7.910 -0.9390 -2.0178  1.3399
   92SAPS  C312 9055   4.857   1.206   8.057 -0.0379  0.6896  0.3902
   92SAPS  H12X 9056   4.749   1.220   8.037 -0.2316  2.1070  2.3414
   92SAPS  H12Y 9057   4.897   1.256   8.148  2.4380 -1.8657  0.7539
   92SAPS  C313 9058   4.894   1.054   8.068 -0.4329  0.5165 -0.5497
   92SAPS  H13X 9059   4.974   1.040   7.993 -2.0746 -1.6004 -1.9701
   92SAPS  H13Y 9060   4.809   0.995   8.027  0.9796 -1.9482 -0.0290
   92SAPS  C314 9061   4.953   1.022   8.203 -0.8756  0.0962 -0.0149
   92SAPS  H14X 9062   5.055   1.065   8.211 -0.7431  0.7622 -4.0563
   92SAPS  H14Y 9063   4.966   0.912   8.203  2.8827  0.4608 -2.2345
   92SAPS  C315 9064   4.856   1.055   8.314  0.0634  0.5839 -0.3851
   92SAPS  H15X 9065   4.754   1.030   8.277 -0.0102 -0.7552  0.6791
   92SAPS  H15Y 9066   4.847   1.164   8.333  1.4670  0.6622 -0.0816
   92SAPS  C316 9067   4.889   0.976   8.438 -0.0411 -0.5692  0.5242
   92SAPS  H16X 9068   4.989   1.007   8.473  0.5788 -1.5195 -0.3743
   92SAPS  H16Y 9069   4.902   0.869   8.411  1.9479  0.0963 -1.3233
   92SAPS  C317 9070   4.787   0.996   8.549 -0.1253 -0.0616  0.3168
   92SAPS  H17X 9071   4.827   0.937   8.634  1.8427  0.3091 -0.3310
   92SAPS  H17Y 9072   4.691   0.946   8.527 -1.7485  4.0139 -2.5390
   92SAPS  C318 9073   4.773   1.148   8.592  0.1988  0.4361  0.6644
   92SAPS  H18X 9074   4.707   1.146   8.682 -0.0141  1.8747  0.5528
   92SAPS  H18Y 9075   4.723   1.206   8.512 -3.1446 -1.4549  1.2592
   92SAPS  H18Z 9076   4.872   1.193   8.613 -0.1720  1.2302  0.7362
   93SAPS     N 9077   4.932   1.976   6.570 -1.2424 -0.1308  0.4500
   93SAPS   HN1 9078   4.833   1.991   6.543 -0.6575  0.2113 -1.6193
   93SAPS   HN2 9079   4.948   2.032   6.656 -1.5388  1.3689 -0.4572
   93SAPS   HN3 9080   4.995   2.018   6.498 -1.1401  1.1034  1.2385
   93SAPS   C12 9081   4.969   1.831   6.599 -0.2679  0.1760  0.1270
   93SAPS  H12A 9082   4.911   1.804   6.686  0.1092  3.4187  1.4648
   93SAPS   C13 9083   4.946   1.732   6.485  0.5574 -0.1874 -0.6068
   93SAPS  O13A 9084   4.909   1.776   6.373  0.6299 -0.0462 -0.1768
   93SAPS  O13B 9085   5.002   1.619   6.497 -0.0264 -0.4082  0.1759
   93SAPS   C11 9086   5.115   1.831   6.648 -0.1826 -0.3728 -0.1077
   93SAPS  H11A 9087   5.143   1.728   6.681 -0.7569 -0.6244 -0.4074
   93SAPS  H11B 9088   5.126   1.894   6.739 -2.9875  0.0342 -0.0120
   93SAPS     P 9089   5.258   1.997   6.501  0.0769  0.1983 -0.0453
   93SAPS   O13 9090   5.379   1.989   6.420 -0.0258 -0.5650  0.0275
   93SAPS   O14 9091   5.153   2.076   6.434  0.2772  0.7168  0.4968
   93SAPS   O12 9092   5.210   1.854   6.544 -0.0065 -0.8674 -0.1304
   93SAPS   O11 9093   5.300   2.057   6.639  0.0106  0.4887 -0.2442
   93SAPS    C1 9094   5.394   1.986   6.718  0.3627 -0.3646 -0.1377
   93SAPS    HA 9095   5.372   1.878   6.734 -1.1951 -0.1621 -0.8372
   93SAPS    HB 9096   5.496   1.987   6.673  0.6880 -1.7347  0.5392
   93SAPS    C2 9097   5.394   2.051   6.857 -0.5612  0.2097  0.2326
   93SAPS    HS 9098   5.291   2.038   6.898 -0.5719  1.2492  0.5462
   93SAPS   O21 9099   5.425   2.196   6.858  0.4961  0.0355 -0.4633
   93SAPS   C21 9100   5.326   2.276   6.900 -0.2810 -0.3422  0.8165
   93SAPS   O22 9101   5.209   2.249   6.912  0.1366 -0.0021 -0.5679
   93SAPS   C22 9102   5.397   2.415   6.920 -0.0090  0.0530 -0.0400
   93SAPS   H2R 9103   5.461   2.406   7.010  0.8418  0.3091 -0.6052
   93SAPS   H2S 9104   5.469   2.429   6.836  1.3119 -1.0824  0.8822
   93SAPS    C3 9105   5.495   1.972   6.946 -0.6900 -0.5293 -0.4875
   93SAPS    HX 9106   5.591   2.017   6.913 -0.4456  0.5290  1.5631
   93SAPS    HY 9107   5.495   1.861   6.935  2.5609 -0.3370 -3.2935
   93SAPS   O31 9108   5.484   2.014   7.083 -0.3192  0.7763 -0.6543
   93SAPS   C31 9109   5.375   1.967   7.151  0.2904 -0.6953  0.3672
   93SAPS   O32 9110   5.288   1.898   7.106  0.3635  0.5528  0.9739
   93SAPS   C32 9111   5.371   2.043   7.280  0.9232 -0.6331 -0.5169
   93SAPS   H2X 9112   5.382   2.152   7.264 -0.4705 -0.2421  1.0264
   93SAPS   H2Y 9113   5.453   2.001   7.342  0.8159 -2.5862 -1.6573
   93SAPS   C23 9114   5.302   2.533   6.936  0.2313 -0.9531  0.0805
   93SAPS   H3R 9115   5.233   2.513   7.021 -0.2381 -1.0120 -0.3086
   93SAPS   H3S 9116   5.248   2.531   6.838 -2.8875  2.8179  1.5932
   93SAPS   C24 9117   5.379   2.669   6.955  0.5001  0.5373 -0.2194
   93SAPS   H4R 9118   5.316   2.760   6.959  0.6522  0.5987  0.7951
   93SAPS   H4S 9119   5.423   2.680   6.853 -2.3256  1.1783 -1.3985
   93SAPS   C25 9120   5.489   2.665   7.053  0.1030  1.0073  0.4420
   93SAPS   H5R 9121   5.583   2.705   7.012  0.3538 -2.7601 -2.8665
   93SAPS   C26 9122   5.482   2.638   7.183  0.0953 -0.0148 -0.9334
   93SAPS   H6R 9123   5.573   2.660   7.240  0.2915  2.2029 -2.0657
   93SAPS   C27 9124   5.362   2.600   7.267 -0.3245  0.6368  0.2392
   93SAPS   H7R 9125   5.389   2.527   7.346  3.7795  2.4389  0.6235
   93SAPS   H7S 9126   5.273   2.569   7.209 -0.3878 -0.5788  0.9601
   93SAPS   C28 9127   5.317   2.725   7.344 -0.3228 -0.0595  0.1883
   93SAPS   H8R 9128   5.347   2.821   7.300 -0.9647  0.0931  0.0799
   93SAPS   C29 9129   5.248   2.713   7.458  0.3448 -0.1065 -0.5382
   93SAPS   H9R 9130   5.210   2.807   7.501  1.6371  0.6645 -1.0311
   93SAPS  C210 9131   5.215   2.590   7.551 -0.5083 -0.1287  0.3037
   93SAPS  H10R 9132   5.221   2.494   7.495  2.7272 -0.4486  1.0745
   93SAPS  H10S 9133   5.109   2.599   7.583 -0.5473 -0.3450  0.2326
   93SAPS  C211 9134   5.296   2.580   7.676 -0.1658  0.5441 -0.2552
   93SAPS  H11R 9135   5.404   2.567   7.657 -0.1833 -0.5951  0.3751
   93SAPS  C212 9136   5.256   2.581   7.805  1.1883  0.1083  0.6498
   93SAPS  H12R 9137   5.324   2.569   7.891  0.7516 -0.3332  0.9399
   93SAPS  C213 9138   5.114   2.587   7.853  1.4236  0.0027 -0.7225
   93SAPS  H13R 9139   5.030   2.573   7.781  0.0588  0.5869  0.7354
   93SAPS  H13S 9140   5.094   2.688   7.896  0.8679 -1.1343  1.8045
   93SAPS  C214 9141   5.091   2.479   7.963  0.4364 -0.0172  0.2877
   93SAPS  H14R 9142   5.056   2.383   7.924 -3.0090  0.9597  0.8292
   93SAPS  C215 9143   5.086   2.496   8.099  0.3676  0.0963 -0.1845
   93SAPS  H15R 9144   5.080   2.412   8.170  0.0177  2.7951  3.1423
   93SAPS  C216 9145   5.101   2.627   8.165 -0.4712  0.0589  0.0506
   93SAPS  H16R 9146   5.009   2.658   8.219 -0.1160 -0.2797  0.8447
   93SAPS  H16S 9147   5.130   2.715   8.103 -1.4341  2.0612  2.3949
   93SAPS  C217 9148   5.206   2.616   8.277 -0.3370 -0.2082  0.1304
   93SAPS  H17R 9149   5.197   2.521   8.335  0.3755 -0.6161 -0.4204
   93SAPS  H17S 9150   5.187   2.700   8.347 -1.3205 -1.2517  1.1467
   93SAPS  C218 9151   5.352   2.613   8.239  0.4590 -0.3498  0.0938
   93SAPS  H18R 9152   5.376   2.693   8.167  2.5721 -1.8043 -0.8704
   93SAPS  H18S 9153   5.375   2.522   8.179 -1.3240 -1.5759  1.2188
   93SAPS  C219 9154   5.457   2.602   8.354  0.1346  0.0958  0.3124
   93SAPS  H19R 9155   5.558   2.568   8.322  0.4411 -0.6010  2.0074
   93SAPS  H19S 9156   5.422   2.519   8.419 -1.1242  0.1923 -0.2254
   93SAPS  C220 9157   5.475   2.717   8.449  0.4021  1.1293  0.1969
   93SAPS  H20R 9158   5.378   2.770   8.457  0.5837  1.4340  0.3550
   93SAPS  H20S 9159   5.552   2.789   8.414 -1.0296  2.6550  0.1366
   93SAPS  H20T 9160   5.505   2.686   8.551  0.0650 -1.5595 -0.4771
   93SAPS   C33 9161   5.243   2.030   7.368 -0.3646  0.2003 -1.2828
   93SAPS   H3X 9162   5.212   1.925   7.388  1.4254 -0.3242 -1.1616
   93SAPS   H3Y 9163   5.160   2.087   7.322 -1.1300  0.6584  0.6119
   93SAPS   C34 9164   5.274   2.088   7.512  0.0661  0.1459 -0.5790
   93SAPS   H4X 9165   5.305   2.193   7.491  2.3970 -0.5641 -0.8105
   93SAPS   H4Y 9166   5.364   2.041   7.556 -0.7260 -0.3701  0.5189
   93SAPS   C35 9167   5.152   2.092   7.601 -0.0610 -0.0990 -0.2497
   93SAPS   H5X 9168   5.135   1.986   7.631  0.6838  0.0607  0.7895
   93SAPS   H5Y 9169   5.068   2.123   7.537 -0.6569 -0.8597  0.1499
   93SAPS   C36 9170   5.174   2.178   7.729  0.1778 -0.2079  0.2991
   93SAPS   H6X 9171   5.089   2.155   7.796  0.1342 -3.3097 -0.7201
   93SAPS   H6Y 9172   5.171   2.288   7.717 -1.1092  0.0381  2.6483
   93SAPS   C37 9173   5.306   2.141   7.797 -0.0013  0.0998  0.3380
   93SAPS   H7X 9174   5.402   2.168   7.749  0.1049 -0.7032  0.0916
   93SAPS   H7Y 9175   5.302   2.031   7.811  0.4519  0.3576  2.6315
   93SAPS   C38 9176   5.306   2.205   7.943  0.5862  0.1432  0.0376
   93SAPS   H8X 9177   5.213   2.173   7.994 -0.1397  0.2385 -1.2259
   93SAPS   H8Y 9178   5.314   2.316   7.934  0.7501  0.1012 -0.3437
   93SAPS   C39 9179   5.430   2.167   8.032  0.3184  0.3398 -0.0302
   93SAPS   H9X 9180   5.520   2.218   7.993  1.7504 -1.6465  0.6018
   93SAPS   H9Y 9181   5.450   2.059   8.013  1.6660  0.9361 -2.1666
   93SAPS  C310 9182   5.398   2.171   8.186 -0.0280  0.2580 -0.6820
   93SAPS  H10X 9183   5.350   2.269   8.210  0.0445  0.1923 -0.2718
   93SAPS  H10Y 9184   5.493   2.171   8.242 -1.2495  0.2344  1.4334
   93SAPS  C311 9185   5.330   2.044   8.229 -0.1171  0.6708  0.0518
   93SAPS  H11X 9186   5.400   1.960   8.208 -0.6515  0.1162  0.4876
   93SAPS  H11Y 9187   5.241   2.029   8.166 -1.0569 -0.0557  1.5160
   93SAPS  C312 9188   5.278   2.034   8.374 -0.5402 -0.1041 -0.5023
   93SAPS  H12X 9189   5.368   2.032   8.439  0.6899  0.7114 -2.1323
   93SAPS  H12Y 9190   5.228   1.936   8.386  0.4876 -0.4582  0.9664
   93SAPS  C313 9191   5.189   2.137   8.430  1.0121  0.2344  0.2111
   93SAPS  H13X 9192   5.094   2.131   8.372  0.8825  1.2439  0.3218
   93SAPS  H13Y 9193   5.242   2.233   8.412  2.4455 -1.0455 -2.7531
   93SAPS  C314 9194   5.155   2.121   8.581 -0.9607  0.4984 -0.6869
   93SAPS  H14X 9195   5.245   2.156   8.636 -0.5975 -0.0902 -0.9037
   93SAPS  H14Y 9196   5.131   2.016   8.607  0.4339 -0.2377 -2.2418
   93SAPS  C315 9197   5.035   2.205   8.630  1.0759 -0.1867 -0.5951
   93SAPS  H15X 9198   5.018   2.181   8.737 -0.4003  0.4269 -0.6716
   93SAPS  H15Y 9199   4.948   2.169   8.572  0.1916 -1.8339  1.6869
   93SAPS  C316 9200   5.040   2.358   8.612 -0.4359 -0.7332 -0.7562
   93SAPS  H16X 9201   4.947   2.392   8.662 -1.1591 -2.6450 -0.7710
   93SAPS  H16Y 9202   5.040   2.381   8.504 -1.2127  1.3422 -0.3402
   93SAPS  C317 9203   5.159   2.428   8.669  0.2149  0.4657  0.4859
   93SAPS  H17X 9204   5.247   2.406   8.604  0.9807  0.4908  1.5028
   93SAPS  H17Y 9205   5.180   2.392   8.772 -0.0731  2.3384  1.2075
   93SAPS  C318 9206   5.131   2.579   8.669  0.6986  0.1332 -0.2443
   93SAPS  H18X 9207   5.047   2.604   8.737  0.6946 -0.6880  0.0563
   93SAPS  H18Y 9208   5.115   2.615   8.565  1.3798 -0.2643 -0.4896
   93SAPS  H18Z 9209   5.223   2.629   8.708  0.4059  1.8800 -1.6846
   94SAPS     N 9210   5.100   4.491   6.028  0.3793  0.2779  0.3316
   94SAPS   HN1 9211   5.046   4.403   6.018  0.4977  0.1932  0.4403
   94SAPS   HN2 9212   5.193   4.480   6.073  0.0470 -0.0732  0.9371
   94SAPS   HN3 9213   5.048   4.547   6.099 -1.2329 -1.4858  0.5722
   94SAPS   C12 9214   5.104   4.568   5.894  0.4327 -0.0912 -0.1785
   94SAPS  H12A 9215   5.162   4.516   5.820  2.2233 -0.1758  1.2678
   94SAPS   C13 9216   4.966   4.597   5.839 -0.0900  0.3373 -0.4667
   94SAPS  O13A 9217   4.856   4.573   5.905  0.4033 -0.0742 -0.5011
   94SAPS  O13B 9218   4.959   4.650   5.723 -0.3715 -0.2347 -0.3255
   94SAPS   C11 9219   5.167   4.703   5.932 -0.9586  0.1571  0.0520
   94SAPS  H11A 9220   5.108   4.745   6.015 -2.5969  0.3053 -1.1606
   94SAPS  H11B 9221   5.152   4.774   5.847  2.0928 -0.5471 -1.1748
   94SAPS     P 9222   5.384   4.829   6.002  0.2917  0.0571 -0.1510
   94SAPS   O13 9223   5.522   4.799   6.045 -0.2006 -0.5164 -0.2989
   94SAPS   O14 9224   5.366   4.928   5.894  0.4471 -0.4735 -0.3246
   94SAPS   O12 9225   5.311   4.698   5.957  0.3197  1.0688  0.5177
   94SAPS   O11 9226   5.295   4.878   6.123  0.0462  0.1228  0.3454
   94SAPS    C1 9227   5.279   4.789   6.239 -0.1547  0.1502 -0.4872
   94SAPS    HA 9228   5.232   4.692   6.212  0.3992  0.2851 -2.0006
   94SAPS    HB 9229   5.383   4.769   6.272  0.5125 -0.7586 -3.0572
   94SAPS    C2 9230   5.223   4.871   6.362  0.4602  0.9661 -0.1214
   94SAPS    HS 9231   5.123   4.915   6.342  0.2431 -0.1876 -1.6185
   94SAPS   O21 9232   5.318   4.972   6.400 -0.0821 -0.5074  1.0590
   94SAPS   C21 9233   5.285   5.096   6.406 -0.7339 -0.6467 -0.4012
   94SAPS   O22 9234   5.185   5.139   6.356 -0.5428 -0.0597  0.7494
   94SAPS   C22 9235   5.393   5.171   6.488  0.1597  0.1379  0.4780
   94SAPS   H2R 9236   5.476   5.100   6.510  1.5969  1.4806 -0.4557
   94SAPS   H2S 9237   5.438   5.254   6.429 -1.2351 -1.6035 -3.1817
   94SAPS    C3 9238   5.187   4.767   6.480  0.0003 -0.2350 -0.2574
   94SAPS    HX 9239   5.274   4.723   6.533 -0.4590 -0.5157  0.2693
   94SAPS    HY 9240   5.147   4.675   6.433 -0.6093  0.6603 -1.5377
   94SAPS   O31 9241   5.090   4.810   6.585  0.7532 -0.4021  0.2208
   94SAPS   C31 9242   4.964   4.816   6.551  0.5101 -0.4687  0.4282
   94SAPS   O32 9243   4.919   4.796   6.437 -0.0642 -0.4700 -0.5796
   94SAPS   C32 9244   4.879   4.855   6.667  0.3950 -0.5339  0.0616
   94SAPS   H2X 9245   4.797   4.784   6.691 -1.1375  0.6495 -1.5499
   94SAPS   H2Y 9246   4.837   4.953   6.636 -0.6329 -1.0487 -0.2039
   94SAPS   C23 9247   5.338   5.239   6.610  1.1390 -0.2808 -0.3999
   94SAPS   H3R 9248   5.264   5.319   6.589  0.8170 -0.5177 -0.1743
   94SAPS   H3S 9249   5.425   5.295   6.652  1.8224  0.9493 -3.3135
   94SAPS   C24 9250   5.280   5.137   6.707  0.0066 -0.4722  0.2961
   94SAPS   H4R 9251   5.193   5.083   6.664  0.0658 -1.2823  1.1845
   94SAPS   H4S 9252   5.234   5.187   6.795  0.4284  0.4842 -0.0186
   94SAPS   C25 9253   5.369   5.030   6.757  0.0401 -0.3272  0.2487
   94SAPS   H5R 9254   5.402   4.955   6.684  0.9010  1.1970 -0.9556
   94SAPS   C26 9255   5.440   5.040   6.874  0.6910  0.0023  0.2110
   94SAPS   H6R 9256   5.510   4.956   6.888 -0.8087 -1.5897 -1.5240
   94SAPS   C27 9257   5.429   5.156   6.967 -0.4071  0.4196  0.5131
   94SAPS   H7R 9258   5.360   5.129   7.051  2.7991 -0.7983  2.8497
   94SAPS   H7S 9259   5.369   5.240   6.928  0.8545  1.1266  0.0888
   94SAPS   C28 9260   5.553   5.214   7.016 -0.4342 -0.4797  0.0604
   94SAPS   H8R 9261   5.597   5.286   6.945 -1.2680  2.1144  2.0843
   94SAPS   C29 9262   5.614   5.180   7.131 -0.3000  0.9338 -0.6136
   94SAPS   H9R 9263   5.696   5.250   7.154 -0.9931  1.0213  1.6590
   94SAPS  C210 9264   5.573   5.091   7.246 -0.2782 -0.6440  0.2603
   94SAPS  H10R 9265   5.641   5.004   7.261 -0.8312 -1.0333  0.5239
   94SAPS  H10S 9266   5.479   5.037   7.224 -0.7289  0.4769 -0.6420
   94SAPS  C211 9267   5.555   5.169   7.371 -0.3899  0.0983 -0.0671
   94SAPS  H11R 9268   5.448   5.189   7.392 -0.8784 -2.2538 -0.1538
   94SAPS  C212 9269   5.653   5.197   7.465 -0.3056  0.1849  1.0313
   94SAPS  H12R 9270   5.624   5.262   7.549 -0.3174  0.7195  0.6173
   94SAPS  C213 9271   5.804   5.156   7.451 -0.4478 -0.0194  0.2871
   94SAPS  H13R 9272   5.826   5.076   7.378 -0.6757  1.6557 -1.6456
   94SAPS  H13S 9273   5.833   5.115   7.550 -0.0689  2.3140  1.1776
   94SAPS  C214 9274   5.892   5.280   7.436 -0.1485  0.2991  0.0459
   94SAPS  H14R 9275   5.939   5.284   7.337 -0.0796 -1.9922 -0.0473
   94SAPS  C215 9276   5.916   5.372   7.532 -0.3965  0.5569  0.2008
   94SAPS  H15R 9277   5.971   5.462   7.501  0.3242  0.0527 -0.0071
   94SAPS  C216 9278   5.867   5.392   7.671 -0.1975 -0.5049  0.0900
   94SAPS  H16R 9279   5.794   5.315   7.703 -2.2219  1.1447 -0.4514
   94SAPS  H16S 9280   5.821   5.493   7.676 -0.5866 -0.7135  0.7697
   94SAPS  C217 9281   5.971   5.382   7.785 -0.4201 -0.1803  0.2402
   94SAPS  H17R 9282   5.912   5.401   7.877  0.0108 -0.4368  0.5729
   94SAPS  H17S 9283   6.039   5.468   7.766 -0.0601 -0.3064  0.9383
   94SAPS  C218 9284   6.064   5.263   7.803  0.1054 -0.0980  0.3285
   94SAPS  H18R 9285   6.148   5.292   7.869  0.3533  0.5300 -0.2617
   94SAPS  H18S 9286   6.114   5.250   7.704  0.9910 -2.0999  1.0282
   94SAPS  C219 9287   5.982   5.140   7.862 -0.6515  0.8794  0.8662
   94SAPS  H19R 9288   5.902   5.101   7.795  0.0628  0.0636  0.4789
   94SAPS  H19S 9289   5.921   5.172   7.949 -0.9180 -0.3336  1.1420
   94SAPS  C220 9290   6.069   5.027   7.921  0.3634  0.5159  0.1087
   94SAPS  H20R 9291   6.142   5.064   7.996  0.4231  0.7208 -0.0507
   94SAPS  H20S 9292   6.120   4.960   7.848 -1.4600 -0.7218 -0.0811
   94SAPS  H20T 9293   5.999   4.956   7.972 -1.4902  1.6483 -0.8045
   94SAPS   C33 9294   4.939   4.874   6.800  0.7096  0.0379 -0.5420
   94SAPS   H3X 9295   5.014   4.956   6.796  0.7615  0.0922  1.3006
   94SAPS   H3Y 9296   4.981   4.775   6.830  2.3715  0.9982  0.3538
   94SAPS   C34 9297   4.844   4.903   6.913  0.0916 -0.3308  0.0758
   94SAPS   H4X 9298   4.788   4.811   6.942 -0.0035 -0.9220 -1.9191
   94SAPS   H4Y 9299   4.780   4.987   6.880  0.4157 -0.1678 -0.1325
   94SAPS   C35 9300   4.923   4.949   7.043 -0.0319  0.5370  1.2473
   94SAPS   H5X 9301   4.986   5.038   7.024 -0.0834  0.5971  1.3624
   94SAPS   H5Y 9302   5.000   4.873   7.067  1.5847  0.8674 -2.5313
   94SAPS   C36 9303   4.838   4.978   7.156 -0.4900 -0.4869 -0.1989
   94SAPS   H6X 9304   4.733   4.961   7.126 -0.5196 -0.1740 -0.2704
   94SAPS   H6Y 9305   4.837   5.087   7.175 -1.0657  0.0940 -3.3383
   94SAPS   C37 9306   4.873   4.887   7.271  0.6790  0.3290 -0.4543
   94SAPS   H7X 9307   4.979   4.884   7.303 -0.1997  1.1333  2.7233
   94SAPS   H7Y 9308   4.858   4.782   7.238 -1.1579  0.5235 -0.3278
   94SAPS   C38 9309   4.792   4.918   7.395  0.5949  0.3126 -0.0259
   94SAPS   H8X 9310   4.798   4.833   7.467  0.7289 -0.6016 -1.0998
   94SAPS   H8Y 9311   4.689   4.921   7.355  0.7154 -1.2475 -0.4676
   94SAPS   C39 9312   4.851   5.044   7.468  0.3119  0.9001 -0.6791
   94SAPS   H9X 9313   4.869   5.125   7.394  0.6511  2.5365  1.1499
   94SAPS   H9Y 9314   4.947   5.018   7.518  1.0588  0.6092 -2.2305
   94SAPS  C310 9315   4.744   5.096   7.575  0.5338  0.4887 -0.2526
   94SAPS  H10X 9316   4.652   5.134   7.526  0.6412  1.2685  0.1468
   94SAPS  H10Y 9317   4.791   5.177   7.634  0.7736  0.0654  0.1415
   94SAPS  C311 9318   4.706   4.977   7.667 -0.1977 -0.6430 -0.7141
   94SAPS  H11X 9319   4.795   4.929   7.711 -0.6356 -0.6955  0.1164
   94SAPS  H11Y 9320   4.654   4.894   7.614  0.3317 -3.1966  2.6424
   94SAPS  C312 9321   4.615   5.006   7.786 -0.8545 -0.0602 -0.5112
   94SAPS  H12X 9322   4.527   5.065   7.753 -1.5557 -0.8581 -0.0812
   94SAPS  H12Y 9323   4.674   5.087   7.834 -0.9401  1.2251 -2.5164
   94SAPS  C313 9324   4.581   4.898   7.885 -0.1841  0.5539 -0.1017
   94SAPS  H13X 9325   4.523   4.811   7.847  0.1771 -0.2091  1.0658
   94SAPS  H13Y 9326   4.512   4.938   7.963  0.0634  0.7493  0.0191
   94SAPS  C314 9327   4.712   4.839   7.946  0.2147 -0.4037 -0.2938
   94SAPS  H14X 9328   4.765   4.923   7.996 -1.0025 -0.1147  0.5424
   94SAPS  H14Y 9329   4.782   4.797   7.871  0.1310  1.0261 -1.1789
   94SAPS  C315 9330   4.692   4.726   8.049  0.6744 -0.0886  0.9399
   94SAPS  H15X 9331   4.791   4.698   8.091  1.2147 -1.2790 -1.0849
   94SAPS  H15Y 9332   4.650   4.634   8.003  0.6834 -0.5444  1.8186
   94SAPS  C316 9333   4.599   4.775   8.165 -0.0605  0.0986 -0.5815
   94SAPS  H16X 9334   4.546   4.694   8.220 -0.1680  0.2453 -0.4680
   94SAPS  H16Y 9335   4.507   4.833   8.141  0.6601  1.1961 -0.6836
   94SAPS  C317 9336   4.678   4.854   8.269 -0.4187  0.3125 -0.1330
   94SAPS  H17X 9337   4.601   4.913   8.323 -1.4527  1.6727 -3.0256
   94SAPS  H17Y 9338   4.747   4.922   8.216 -1.6232  0.9592 -0.8913
   94SAPS  C318 9339   4.765   4.771   8.367 -0.2549 -0.5835 -0.3818
   94SAPS  H18X 9340   4.708   4.690   8.418  0.2653 -0.2747  0.7167
   94SAPS  H18Y 9341   4.810   4.825   8.453  0.5712 -0.3353 -0.9614
   94SAPS  H18Z 9342   4.854   4.727   8.316 -0.8561  1.5362 -3.3749
   95SAPS     N 9343   2.435   2.938   5.992  0.0886  0.3644  0.3566
   95SAPS   HN1 9344   2.462   2.860   5.929 -1.2819  1.1881 -1.2691
   95SAPS   HN2 9345   2.334   2.930   6.015 -0.7007 -0.5585 -3.0946
   95SAPS   HN3 9346   2.445   3.022   5.932 -2.3433  0.0504 -0.5236
   95SAPS   C12 9347   2.517   2.932   6.110 -0.7970 -0.2832 -0.2391
   95SAPS  H12A 9348   2.611   2.887   6.082  1.3139  3.2117  0.9306
   95SAPS   C13 9349   2.543   3.065   6.185  0.0153  0.9237 -0.4189
   95SAPS  O13A 9350   2.495   3.177   6.142 -0.3128 -0.6321 -0.2735
   95SAPS  O13B 9351   2.617   3.062   6.286 -0.2135 -0.7720 -0.1093
   95SAPS   C11 9352   2.456   2.837   6.220  0.3559  0.2933 -0.3642
   95SAPS  H11A 9353   2.361   2.886   6.249  0.8826  0.9981  0.2040
   95SAPS  H11B 9354   2.520   2.833   6.311 -0.4847 -0.3739  0.2078
   95SAPS     P 9355   2.511   2.580   6.204  0.6314 -0.5231 -0.2212
   95SAPS   O13 9356   2.471   2.493   6.091 -0.2897  0.1622  0.0863
   95SAPS   O14 9357   2.648   2.618   6.230  0.1898  0.1052 -0.5923
   95SAPS   O12 9358   2.432   2.714   6.170  0.0009  0.4548 -0.1633
   95SAPS   O11 9359   2.438   2.522   6.330 -0.0530 -0.4084  0.0782
   95SAPS    C1 9360   2.394   2.607   6.434  0.7410  0.1559 -0.4793
   95SAPS    HA 9361   2.472   2.676   6.471 -0.8275  1.7325 -0.0445
   95SAPS    HB 9362   2.312   2.675   6.401  0.3190  0.3741  0.9704
   95SAPS    C2 9363   2.319   2.540   6.548  0.1187  0.8136  0.2687
   95SAPS    HS 9364   2.269   2.623   6.602  1.8203  2.6851 -0.9484
   95SAPS   O21 9365   2.415   2.475   6.636  0.3306  0.1528 -0.6489
   95SAPS   C21 9366   2.379   2.443   6.758 -0.6197 -0.6633  0.6017
   95SAPS   O22 9367   2.275   2.465   6.812  0.5047 -0.6714  0.4555
   95SAPS   C22 9368   2.494   2.350   6.813  0.6573 -0.2620  0.0635
   95SAPS   H2R 9369   2.524   2.280   6.732  1.4227 -0.1590  0.2572
   95SAPS   H2S 9370   2.579   2.414   6.844  2.7788 -2.6086 -0.7620
   95SAPS    C3 9371   2.197   2.455   6.492 -0.1633  0.3860 -0.0537
   95SAPS    HX 9372   2.243   2.380   6.424  0.9077 -0.4222  1.5324
   95SAPS    HY 9373   2.130   2.515   6.427 -0.6731 -0.3038 -0.1737
   95SAPS   O31 9374   2.116   2.383   6.591  0.0740  0.2866  0.0350
   95SAPS   C31 9375   2.016   2.453   6.640 -0.2111 -0.5000  0.2192
   95SAPS   O32 9376   1.986   2.569   6.611 -0.1625 -0.1179 -0.2158
   95SAPS   C32 9377   1.937   2.350   6.724  0.1807 -0.1889  0.0301
   95SAPS   H2X 9378   2.006   2.319   6.805  0.2050  2.5915  1.1181
   95SAPS   H2Y 9379   1.918   2.261   6.659  0.7037 -0.9181  0.8650
   95SAPS   C23 9380   2.452   2.265   6.936 -0.5879  0.5756  0.0852
   95SAPS   H3R 9381   2.351   2.219   6.937  0.5696 -2.0697  2.3845
   95SAPS   H3S 9382   2.453   2.336   7.022 -1.5238 -0.3117  0.8352
   95SAPS   C24 9383   2.558   2.150   6.949  0.6884  0.9004  0.1646
   95SAPS   H4R 9384   2.650   2.206   6.974  1.0487  0.4601 -0.1725
   95SAPS   H4S 9385   2.575   2.079   6.865  1.3751  0.0585  1.0064
   95SAPS   C25 9386   2.525   2.069   7.071  0.5346  0.8612 -0.4586
   95SAPS   H5R 9387   2.440   2.002   7.052  1.2272  0.0031 -0.5554
   95SAPS   C26 9388   2.588   2.070   7.191 -0.2156 -0.1543  0.7854
   95SAPS   H6R 9389   2.539   1.999   7.259 -0.6071 -2.6145 -1.9686
   95SAPS   C27 9390   2.705   2.155   7.242  0.5745 -0.0003  0.4671
   95SAPS   H7R 9391   2.665   2.223   7.320  2.0449 -0.5977  1.7752
   95SAPS   H7S 9392   2.741   2.216   7.156 -0.3346 -1.2242 -0.8245
   95SAPS   C28 9393   2.813   2.068   7.300 -0.5734  0.0367 -0.1773
   95SAPS   H8R 9394   2.885   2.022   7.230 -1.7295  0.4642 -1.6503
   95SAPS   C29 9395   2.836   2.038   7.433 -0.6256  0.3472  0.2277
   95SAPS   H9R 9396   2.925   1.978   7.457 -0.2817  0.5475 -0.5267
   95SAPS  C210 9397   2.756   2.089   7.548  0.3660  0.2667  1.0186
   95SAPS  H10R 9398   2.650   2.092   7.512  0.9467 -2.0106 -0.9931
   95SAPS  H10S 9399   2.789   2.194   7.567  0.1918  0.9038 -1.9541
   95SAPS  C211 9400   2.784   2.001   7.670  0.1988  0.0877  0.0706
   95SAPS  H11R 9401   2.761   1.897   7.645 -1.0891  0.4762 -0.4016
   95SAPS  C212 9402   2.848   2.040   7.779 -0.0925 -0.5515 -0.2320
   95SAPS  H12R 9403   2.868   1.963   7.856  0.3929 -1.5510 -1.3498
   95SAPS  C213 9404   2.902   2.181   7.802 -0.9587  0.0485 -0.7646
   95SAPS  H13R 9405   2.899   2.199   7.912  2.4401 -2.0355 -0.2764
   95SAPS  H13S 9406   2.838   2.259   7.756  0.2608  2.1387  0.9835
   95SAPS  C214 9407   3.047   2.181   7.755  0.5322  0.1981 -0.3078
   95SAPS  H14R 9408   3.063   2.211   7.651 -0.0967 -1.6286 -0.9447
   95SAPS  C215 9409   3.158   2.180   7.831  0.0161 -0.1125  0.1950
   95SAPS  H15R 9410   3.247   2.178   7.767 -0.5824 -0.7180 -0.6308
   95SAPS  C216 9411   3.162   2.171   7.983  0.3048  0.2794  0.6193
   95SAPS  H16R 9412   3.231   2.096   8.027 -1.2364 -0.9980  0.9154
   95SAPS  H16S 9413   3.057   2.147   8.012 -0.9922  2.6161 -1.9023
   95SAPS  C217 9414   3.204   2.303   8.053  0.0540 -0.6717  0.3072
   95SAPS  H17R 9415   3.133   2.388   8.044 -1.0340 -1.7742 -2.0283
   95SAPS  H17S 9416   3.292   2.346   8.000 -0.9977  0.3691 -0.6327
   95SAPS  C218 9417   3.232   2.296   8.199 -0.2764  0.6874 -0.0778
   95SAPS  H18R 9418   3.329   2.245   8.218 -2.6736 -3.3807  1.9592
   95SAPS  H18S 9419   3.148   2.242   8.248  3.4349 -4.2074  1.2864
   95SAPS  C219 9420   3.258   2.428   8.277 -0.1880  0.2413 -0.1290
   95SAPS  H19R 9421   3.165   2.487   8.265 -1.0156 -1.0413 -0.1899
   95SAPS  H19S 9422   3.342   2.469   8.218 -0.1230  3.6734  2.2053
   95SAPS  C220 9423   3.311   2.413   8.421 -0.1101  0.2027  0.3713
   95SAPS  H20R 9424   3.373   2.503   8.443 -1.1941  0.7074  1.3945
   95SAPS  H20S 9425   3.379   2.326   8.431 -1.0271 -0.5217  0.3326
   95SAPS  H20T 9426   3.230   2.394   8.494  1.0943 -0.5514  1.5323
   95SAPS   C33 9427   1.813   2.419   6.762  0.3081  0.4362  0.5701
   95SAPS   H3X 9428   1.757   2.457   6.674 -0.7747  3.0718  2.3366
   95SAPS   H3Y 9429   1.836   2.506   6.827  2.3540  1.4732 -1.4580
   95SAPS   C34 9430   1.717   2.337   6.858 -0.4286 -0.2755 -0.1890
   95SAPS   H4X 9431   1.666   2.272   6.784 -0.2225  1.5906 -2.0241
   95SAPS   H4Y 9432   1.638   2.393   6.912 -1.4744 -1.8194 -0.0775
   95SAPS   C35 9433   1.777   2.248   6.973 -0.1909 -0.5247  0.0928
   95SAPS   H5X 9434   1.821   2.301   7.060  0.7447 -0.6252 -0.3009
   95SAPS   H5Y 9435   1.855   2.185   6.924 -0.1809 -0.2884 -0.1948
   95SAPS   C36 9436   1.665   2.145   7.013  0.0407  0.0149 -0.4025
   95SAPS   H6X 9437   1.640   2.083   6.924  0.9279  0.5653 -1.0436
   95SAPS   H6Y 9438   1.575   2.198   7.051 -1.3500 -1.1779 -1.9448
   95SAPS   C37 9439   1.703   2.048   7.126 -0.1006 -0.5643  0.5335
   95SAPS   H7X 9440   1.795   1.996   7.092  0.2947  0.2094  0.4047
   95SAPS   H7Y 9441   1.629   1.968   7.146 -1.4567  0.6774  0.5816
   95SAPS   C38 9442   1.708   2.109   7.261 -0.0808 -0.4365  0.6115
   95SAPS   H8X 9443   1.604   2.138   7.287  0.3246  3.0703 -1.4063
   95SAPS   H8Y 9444   1.762   2.206   7.266 -0.6527 -0.1944  2.7232
   95SAPS   C39 9445   1.758   2.010   7.363 -0.5832 -0.3586  0.1331
   95SAPS   H9X 9446   1.853   1.974   7.320 -0.5518 -0.2497  0.1107
   95SAPS   H9Y 9447   1.691   1.922   7.379  1.6209 -1.8796  1.2963
   95SAPS  C310 9448   1.780   2.060   7.515 -0.1044 -0.5102 -0.2869
   95SAPS  H10X 9449   1.686   2.085   7.568  0.0750 -0.1818 -0.1164
   95SAPS  H10Y 9450   1.842   2.152   7.504 -0.1314 -0.6185 -1.3875
   95SAPS  C311 9451   1.845   1.947   7.588  0.2386 -0.3528 -0.1224
   95SAPS  H11X 9452   1.940   1.916   7.538  0.6297 -1.1738  1.1162
   95SAPS  H11Y 9453   1.779   1.859   7.598 -0.5001  0.0531 -1.3877
   95SAPS  C312 9454   1.878   1.996   7.729  0.1311 -0.1059 -0.0298
   95SAPS  H12X 9455   1.779   1.998   7.780  0.6690  0.9873  1.0198
   95SAPS  H12Y 9456   1.946   2.082   7.752 -0.6220 -0.0243  2.0100
   95SAPS  C313 9457   1.952   1.889   7.800 -0.1584 -0.1616 -0.0545
   95SAPS  H13X 9458   2.052   1.863   7.757  1.0645 -1.1385  3.2341
   95SAPS  H13Y 9459   1.901   1.791   7.789  1.2387 -0.8594 -0.4533
   95SAPS  C314 9460   1.979   1.914   7.944 -0.6175 -0.9649 -0.2747
   95SAPS  H14X 9461   1.881   1.902   7.994 -0.3077 -1.5024  0.2124
   95SAPS  H14Y 9462   2.017   2.018   7.958 -0.6471 -1.1221  1.0567
   95SAPS  C315 9463   2.084   1.815   8.016 -0.0555  0.2935 -0.0961
   95SAPS  H15X 9464   2.180   1.823   7.960 -0.0928 -1.5608 -0.4405
   95SAPS  H15Y 9465   2.043   1.715   7.989  1.0453 -0.3764  0.6822
   95SAPS  C316 9466   2.105   1.844   8.168 -0.7360 -0.7429  0.1334
   95SAPS  H16X 9467   2.158   1.941   8.177 -3.8621  1.3356 -2.6901
   95SAPS  H16Y 9468   2.175   1.769   8.211 -3.0591 -1.8662  2.0664
   95SAPS  C317 9469   1.973   1.857   8.246  0.4617  0.0635 -0.3380
   95SAPS  H17X 9470   1.906   1.935   8.204  1.7719  0.9571 -0.7851
   95SAPS  H17Y 9471   2.003   1.883   8.350 -1.5509  2.5609 -0.3274
   95SAPS  C318 9472   1.889   1.731   8.249 -0.0056  0.5848  0.1419
   95SAPS  H18X 9473   1.836   1.695   8.158 -0.8976 -1.4540  1.4604
   95SAPS  H18Y 9474   1.804   1.755   8.316 -1.2103  1.7497 -1.7268
   95SAPS  H18Z 9475   1.948   1.641   8.275 -1.8390 -0.8612 -0.5847
   96SAPS     N 9476   2.550   3.548   6.365 -0.6616 -0.1711 -0.3768
   96SAPS   HN1 9477   2.515   3.588   6.454 -0.1897 -0.3247 -0.1216
   96SAPS   HN2 9478   2.512   3.451   6.362  2.0579 -1.3095  0.4649
   96SAPS   HN3 9479   2.653   3.549   6.354 -0.6477 -1.3104 -0.3628
   96SAPS   C12 9480   2.510   3.622   6.239  0.7896  0.4467  0.0818
   96SAPS  H12A 9481   2.530   3.726   6.258  1.5558  0.2146  0.5546
   96SAPS   C13 9482   2.578   3.598   6.102 -0.5763 -0.6549  0.2110
   96SAPS  O13A 9483   2.665   3.512   6.100  0.0738  0.1801 -0.1170
   96SAPS  O13B 9484   2.530   3.659   5.999 -0.1870  0.4492 -0.8388
   96SAPS   C11 9485   2.352   3.597   6.208 -0.1259 -0.0838 -0.7182
   96SAPS  H11A 9486   2.350   3.486   6.196 -0.3757  0.1863 -3.4379
   96SAPS  H11B 9487   2.316   3.656   6.121  2.1834  4.1837  1.0689
   96SAPS     P 9488   2.154   3.728   6.336  0.3480  0.0789 -0.1828
   96SAPS   O13 9489   2.193   3.859   6.282  0.7735  0.6828  0.3637
   96SAPS   O14 9490   2.037   3.663   6.276 -0.1090 -0.4546  0.1071
   96SAPS   O12 9491   2.277   3.632   6.329  0.4736  0.1928  0.0286
   96SAPS   O11 9492   2.117   3.738   6.491 -0.2000 -0.5252 -0.0115
   96SAPS    C1 9493   2.096   3.624   6.585  0.7910 -0.5478  0.4053
   96SAPS    HA 9494   2.018   3.645   6.661 -0.5559 -1.9102 -0.5585
   96SAPS    HB 9495   2.076   3.529   6.529 -0.4336 -1.9984  3.2020
   96SAPS    C2 9496   2.218   3.610   6.667  0.5854  0.7656  0.1318
   96SAPS    HS 9497   2.292   3.559   6.602 -1.7821 -0.4810 -1.6210
   96SAPS   O21 9498   2.190   3.530   6.787  0.1255 -0.7820 -0.0080
   96SAPS   C21 9499   2.265   3.425   6.809 -0.1060  0.0805  0.2758
   96SAPS   O22 9500   2.358   3.393   6.742 -0.5863 -0.1687  0.3927
   96SAPS   C22 9501   2.225   3.365   6.943  0.6814 -0.1943 -0.1739
   96SAPS   H2R 9502   2.119   3.380   6.974  1.0715  1.4720  0.3701
   96SAPS   H2S 9503   2.232   3.256   6.924  3.4537 -0.0413 -0.2044
   96SAPS    C3 9504   2.275   3.744   6.716  0.3659  0.4057  0.4308
   96SAPS    HX 9505   2.196   3.796   6.774 -0.8676  0.6174 -1.3904
   96SAPS    HY 9506   2.296   3.810   6.629 -1.8838  1.2667  0.5314
   96SAPS   O31 9507   2.385   3.713   6.802 -0.2125 -0.2556 -0.1013
   96SAPS   C31 9508   2.500   3.691   6.744 -0.0646 -0.0045  0.2201
   96SAPS   O32 9509   2.513   3.688   6.620 -0.8623 -0.4258 -0.5997
   96SAPS   C32 9510   2.597   3.648   6.845  0.6892  0.1805  0.0723
   96SAPS   H2X 9511   2.591   3.538   6.833 -1.5568  0.3611 -0.6274
   96SAPS   H2Y 9512   2.572   3.678   6.949 -0.5586 -1.7642  0.3481
   96SAPS   C23 9513   2.325   3.407   7.053  0.1449  0.8560  0.2187
   96SAPS   H3R 9514   2.426   3.399   7.008  0.2319 -0.9003  0.6910
   96SAPS   H3S 9515   2.318   3.320   7.122 -2.4353 -0.2366 -1.3478
   96SAPS   C24 9516   2.283   3.530   7.139  0.9292  0.0501  0.0363
   96SAPS   H4R 9517   2.259   3.620   7.078 -3.4252 -0.5288  0.7779
   96SAPS   H4S 9518   2.365   3.545   7.213  2.4683  0.0267 -1.6273
   96SAPS   C25 9519   2.145   3.508   7.211  0.5610 -0.2139 -0.6736
   96SAPS   H5R 9520   2.053   3.503   7.151 -0.6293  2.2974  0.8728
   96SAPS   C26 9521   2.127   3.497   7.346  0.1583 -0.4758  0.1585
   96SAPS   H6R 9522   2.034   3.474   7.399 -0.0873  1.2831  0.5357
   96SAPS   C27 9523   2.251   3.495   7.439 -0.0894 -0.2362  0.5328
   96SAPS   H7R 9524   2.280   3.602   7.442  3.2524 -1.0208 -1.0378
   96SAPS   H7S 9525   2.345   3.446   7.407 -1.2787 -2.4140  0.2693
   96SAPS   C28 9526   2.229   3.422   7.565 -0.2413  0.6948  0.0073
   96SAPS   H8R 9527   2.231   3.313   7.562 -0.2274  0.6878  0.2710
   96SAPS   C29 9528   2.219   3.478   7.689 -0.2664 -0.1034 -0.2006
   96SAPS   H9R 9529   2.212   3.415   7.779  0.7272  0.9147  0.6030
   96SAPS  C210 9530   2.207   3.625   7.725 -0.6914  0.4197  0.5616
   96SAPS  H10R 9531   2.220   3.689   7.635 -0.6826 -2.0065 -1.1980
   96SAPS  H10S 9532   2.291   3.652   7.793  0.1531 -1.5353  0.3095
   96SAPS  C211 9533   2.074   3.660   7.793 -0.7394 -0.0897  0.0044
   96SAPS  H11R 9534   2.015   3.734   7.738 -1.0588 -0.3382  0.0136
   96SAPS  C212 9535   2.036   3.620   7.922 -0.3949 -0.5149  0.1127
   96SAPS  H12R 9536   1.949   3.671   7.967 -0.3882  0.2181 -0.6705
   96SAPS  C213 9537   2.121   3.537   8.011 -0.3313 -0.4389  0.4748
   96SAPS  H13R 9538   2.167   3.609   8.082  0.7401 -0.4283 -0.2076
   96SAPS  H13S 9539   2.211   3.500   7.956 -0.1085  0.3392  0.2990
   96SAPS  C214 9540   2.036   3.434   8.090  0.0410  0.1041  0.5153
   96SAPS  H14R 9541   2.002   3.357   8.018  0.4659 -0.4476  0.9076
   96SAPS  C215 9542   1.990   3.435   8.217  0.2632  0.0398 -0.2735
   96SAPS  H15R 9543   1.927   3.354   8.256  0.0257  0.4163  0.1211
   96SAPS  C216 9544   2.019   3.524   8.329  0.3899  0.4346  0.1798
   96SAPS  H16R 9545   1.929   3.585   8.355 -0.1271 -0.7650  1.2271
   96SAPS  H16S 9546   2.102   3.592   8.301 -0.5772  0.7379 -2.0182
   96SAPS  C217 9547   2.049   3.431   8.448 -0.5130  0.3833  0.3710
   96SAPS  H17R 9548   2.126   3.356   8.421  0.3570  0.9807  1.1685
   96SAPS  H17S 9549   1.953   3.385   8.482  0.3129 -0.7606  1.2199
   96SAPS  C218 9550   2.095   3.491   8.584 -0.2239 -0.5781 -0.2204
   96SAPS  H18R 9551   2.077   3.420   8.667 -1.4913  0.0934  0.0924
   96SAPS  H18S 9552   2.028   3.576   8.611  1.4585  0.1911  1.7091
   96SAPS  C219 9553   2.237   3.533   8.573  0.6087 -0.3670 -0.2802
   96SAPS  H19R 9554   2.252   3.587   8.478 -1.1608  1.1463  0.2806
   96SAPS  H19S 9555   2.298   3.440   8.576  3.0038  1.1947  1.0538
   96SAPS  C220 9556   2.273   3.626   8.689 -0.3730  0.2091  0.4501
   96SAPS  H20R 9557   2.203   3.712   8.681 -1.7103 -0.8138  0.8985
   96SAPS  H20S 9558   2.378   3.662   8.680  0.2661 -1.8400 -0.4082
   96SAPS  H20T 9559   2.259   3.582   8.790 -0.7006 -1.8789 -0.4879
   96SAPS   C33 9560   2.738   3.695   6.797 -0.1171 -0.3929 -0.1635
   96SAPS   H3X 9561   2.736   3.806   6.802 -0.3782 -0.3851 -0.4701
   96SAPS   H3Y 9562   2.757   3.670   6.691  0.1206  1.4467 -0.5634
   96SAPS   C34 9563   2.847   3.637   6.889 -0.1888 -0.2461 -0.6551
   96SAPS   H4X 9564   2.859   3.531   6.859  2.2698  0.3680 -1.9002
   96SAPS   H4Y 9565   2.811   3.630   6.994  0.9991 -2.4754 -0.3737
   96SAPS   C35 9566   2.982   3.713   6.879  0.6224  0.3244  0.1316
   96SAPS   H5X 9567   3.009   3.708   6.772 -0.7910 -0.5276 -0.2084
   96SAPS   H5Y 9568   3.066   3.663   6.932  1.1278 -0.1860 -1.1305
   96SAPS   C36 9569   2.979   3.863   6.923 -0.3752  0.7038 -0.0585
   96SAPS   H6X 9570   2.875   3.897   6.904 -0.9438 -1.4194 -0.8159
   96SAPS   H6Y 9571   3.049   3.917   6.856  0.4184  2.5868  2.2048
   96SAPS   C37 9572   3.026   3.890   7.069 -0.4213 -0.4580  0.4390
   96SAPS   H7X 9573   3.111   3.820   7.084  0.4272  0.3004 -0.7578
   96SAPS   H7Y 9574   2.938   3.857   7.128 -1.1064  1.7905  0.7308
   96SAPS   C38 9575   3.075   4.036   7.096 -0.1056 -0.9936  0.1348
   96SAPS   H8X 9576   2.993   4.108   7.075  1.2444 -0.0237 -1.8731
   96SAPS   H8Y 9577   3.158   4.061   7.028 -0.8010 -3.4511 -1.7103
   96SAPS   C39 9578   3.120   4.044   7.242  0.3006  0.0009 -0.3502
   96SAPS   H9X 9579   3.177   4.138   7.233 -0.0108  0.1524 -0.7510
   96SAPS   H9Y 9580   3.201   3.969   7.257  2.9020  2.6522 -0.6415
   96SAPS  C310 9581   3.028   4.057   7.361 -0.0463 -0.0998 -0.0594
   96SAPS  H10X 9582   2.937   3.999   7.336  0.0869 -1.0256  1.5567
   96SAPS  H10Y 9583   2.996   4.163   7.368 -1.4069 -0.6142  1.7979
   96SAPS  C311 9584   3.081   3.992   7.492  0.4840  0.4462 -0.0733
   96SAPS  H11X 9585   3.180   4.041   7.505  0.7626 -0.4903  1.4040
   96SAPS  H11Y 9586   3.076   3.881   7.488  1.1742  0.4224 -0.4670
   96SAPS  C312 9587   3.007   4.044   7.609  0.8972  0.4205  0.2635
   96SAPS  H12X 9588   2.904   4.001   7.607  1.4639 -0.9846 -2.3139
   96SAPS  H12Y 9589   3.003   4.154   7.603 -0.7621  0.4329  1.2899
   96SAPS  C313 9590   3.069   4.010   7.745 -0.0409 -0.3487 -0.2717
   96SAPS  H13X 9591   3.162   4.068   7.760 -2.4692  3.2780  1.8459
   96SAPS  H13Y 9592   3.110   3.907   7.739  0.8548  0.0532 -1.1317
   96SAPS  C314 9593   2.968   4.037   7.858 -0.4429  0.3437 -0.3233
   96SAPS  H14X 9594   2.880   3.971   7.841  0.8877 -1.1761 -1.4049
   96SAPS  H14Y 9595   2.929   4.138   7.834 -0.3532 -0.4087 -3.8288
   96SAPS  C315 9596   3.031   4.023   7.995 -0.4584  0.3948  0.3644
   96SAPS  H15X 9597   3.131   4.071   7.986  0.9609 -2.2334  1.6417
   96SAPS  H15Y 9598   3.045   3.917   8.023  3.6523  0.7051 -0.1861
   96SAPS  C316 9599   2.970   4.097   8.108  0.1574 -0.6590  0.1099
   96SAPS  H16X 9600   2.860   4.083   8.113  0.1606 -0.3066  1.5925
   96SAPS  H16Y 9601   2.969   4.204   8.078 -1.2311 -0.5056  0.6203
   96SAPS  C317 9602   3.037   4.082   8.239  0.2703 -0.3411  0.4458
   96SAPS  H17X 9603   3.148   4.092   8.236  0.2925 -1.0146 -2.3584
   96SAPS  H17Y 9604   3.021   3.981   8.284  0.3317  0.1150  1.5239
   96SAPS  C318 9605   2.980   4.181   8.341  0.7602 -0.5136  0.0261
   96SAPS  H18X 9606   3.000   4.287   8.314 -3.3763  0.3943  0.2671
   96SAPS  H18Y 9607   3.018   4.169   8.444  0.5322 -2.0841 -0.0557
   96SAPS  H18Z 9608   2.869   4.171   8.338  0.7489  0.0327 -2.3298
   97SAPS     N 9609   3.702   1.549   6.079 -0.8079 -0.1313 -0.1134
   97SAPS   HN1 9610   3.744   1.480   6.145 -0.4499 -0.2649 -0.4729
   97SAPS   HN2 9611   3.610   1.511   6.048 -1.0158  0.0761  0.2552
   97SAPS   HN3 9612   3.746   1.562   5.985 -1.4682  3.0394 -0.0231
   97SAPS   C12 9613   3.667   1.675   6.144  0.0245 -0.0541  0.1531
   97SAPS  H12A 9614   3.760   1.726   6.161  0.0720 -0.3043  0.6565
   97SAPS   C13 9615   3.572   1.767   6.061  0.1779  0.5454  0.2786
   97SAPS  O13A 9616   3.537   1.734   5.946 -0.1306  0.6124 -0.1384
   97SAPS  O13B 9617   3.516   1.860   6.124  0.3243  0.2219 -0.3372
   97SAPS   C11 9618   3.605   1.647   6.278 -0.3568 -0.2673  0.5174
   97SAPS  H11A 9619   3.511   1.589   6.269 -0.3682 -0.3525  1.1364
   97SAPS  H11B 9620   3.580   1.745   6.324  1.9410  1.2594 -1.4033
   97SAPS     P 9621   3.778   1.650   6.479 -0.2844  0.0136 -0.1376
   97SAPS   O13 9622   3.861   1.544   6.539 -0.1963  0.5608  0.0389
   97SAPS   O14 9623   3.843   1.768   6.425  0.0336  0.3136 -0.6469
   97SAPS   O12 9624   3.696   1.581   6.365  0.2452 -0.5163 -0.3318
   97SAPS   O11 9625   3.666   1.696   6.577  0.3104 -0.7859 -0.2815
   97SAPS    C1 9626   3.554   1.611   6.609  0.8940  0.5917 -0.1730
   97SAPS    HA 9627   3.469   1.626   6.539 -0.1732 -0.7778  0.8054
   97SAPS    HB 9628   3.579   1.502   6.606 -1.5914 -0.1229  3.0643
   97SAPS    C2 9629   3.491   1.624   6.752 -0.0420  0.4941  1.1033
   97SAPS    HS 9630   3.439   1.721   6.763 -2.0427 -0.5261  0.8522
   97SAPS   O21 9631   3.597   1.607   6.847 -0.2719 -0.1315  0.2149
   97SAPS   C21 9632   3.613   1.714   6.924  0.2792 -0.4256 -0.3173
   97SAPS   O22 9633   3.569   1.827   6.907  0.2987 -0.6995 -0.0783
   97SAPS   C22 9634   3.700   1.678   7.040  0.1202  0.0554  0.2748
   97SAPS   H2R 9635   3.654   1.727   7.129  0.0975  2.5240 -1.0495
   97SAPS   H2S 9636   3.707   1.568   7.053 -0.5171  0.1860  1.7975
   97SAPS    C3 9637   3.388   1.502   6.768  0.1061 -0.6191  0.1013
   97SAPS    HX 9638   3.430   1.407   6.729  0.7025 -0.8813  1.3682
   97SAPS    HY 9639   3.304   1.528   6.700  1.1870 -1.9974 -1.8130
   97SAPS   O31 9640   3.324   1.487   6.898  0.1932 -0.9444 -0.3161
   97SAPS   C31 9641   3.350   1.377   6.960  0.1564 -0.4813 -0.5589
   97SAPS   O32 9642   3.428   1.293   6.930  0.2079  0.6021 -0.0540
   97SAPS   C32 9643   3.294   1.384   7.105 -0.5117 -0.3085 -0.1445
   97SAPS   H2X 9644   3.231   1.293   7.111  0.1182 -0.6808  0.9312
   97SAPS   H2Y 9645   3.240   1.481   7.107  3.6516  2.1586 -0.3451
   97SAPS   C23 9646   3.848   1.728   7.024 -0.5836 -0.2042 -0.1066
   97SAPS   H3R 9647   3.887   1.785   7.111  1.6436 -0.0090 -1.2168
   97SAPS   H3S 9648   3.857   1.796   6.937  2.9130 -0.1861  0.2064
   97SAPS   C24 9649   3.956   1.613   7.004 -0.3263  0.3526  0.7259
   97SAPS   H4R 9650   3.955   1.560   7.102  0.2424  1.9626  1.6172
   97SAPS   H4S 9651   4.052   1.665   6.986 -1.7208  3.5391  2.0631
   97SAPS   C25 9652   3.929   1.518   6.887  0.1391 -0.5013  0.4523
   97SAPS   H5R 9653   3.916   1.571   6.791 -3.2416 -1.8082  0.1292
   97SAPS   C26 9654   3.908   1.387   6.886  0.4084  0.5369 -0.0539
   97SAPS   H6R 9655   3.892   1.324   6.797  0.3830  1.3078 -0.6010
   97SAPS   C27 9656   3.923   1.299   7.006 -0.3230 -0.4038 -0.0023
   97SAPS   H7R 9657   3.988   1.350   7.081 -0.3514  0.9898 -0.9050
   97SAPS   H7S 9658   3.992   1.218   6.977  1.9983  0.8728  1.6996
   97SAPS   C28 9659   3.799   1.232   7.065  0.0157 -0.2378  0.1514
   97SAPS   H8R 9660   3.730   1.185   6.993 -0.4360  0.0239  0.4121
   97SAPS   C29 9661   3.768   1.234   7.197 -0.0623  0.0061 -1.0463
   97SAPS   H9R 9662   3.668   1.193   7.220  0.4920 -0.6095  0.3172
   97SAPS  C210 9663   3.847   1.300   7.304 -0.0426 -0.1220  0.3855
   97SAPS  H10R 9664   3.841   1.409   7.282 -0.0143  0.3130  2.4951
   97SAPS  H10S 9665   3.955   1.275   7.290  0.9715  3.9803  0.3329
   97SAPS  C211 9666   3.801   1.272   7.443 -0.3316 -0.0614  0.7335
   97SAPS  H11R 9667   3.789   1.167   7.476 -0.4968  0.0236  0.9454
   97SAPS  C212 9668   3.781   1.364   7.538 -0.4700  0.1310 -0.0784
   97SAPS  H12R 9669   3.773   1.328   7.642 -1.4311  0.1234 -0.1529
   97SAPS  C213 9670   3.800   1.516   7.523  0.0577  0.6502 -0.2942
   97SAPS  H13R 9671   3.754   1.556   7.616 -0.8676  0.2100 -0.5582
   97SAPS  H13S 9672   3.739   1.559   7.440  2.3864  1.4196 -1.6601
   97SAPS  C214 9673   3.941   1.557   7.501 -0.9025 -0.6171 -0.2939
   97SAPS  H14R 9674   3.976   1.545   7.398  3.5377 -2.9074  1.3561
   97SAPS  C215 9675   4.023   1.608   7.597  0.4279 -0.7025 -0.0954
   97SAPS  H15R 9676   4.128   1.627   7.573  0.3903  0.7270  0.8454
   97SAPS  C216 9677   3.982   1.633   7.743 -0.0069 -0.1349  0.1450
   97SAPS  H16R 9678   3.994   1.541   7.805  0.1338  1.8305  3.1267
   97SAPS  H16S 9679   3.882   1.681   7.752  0.5865  0.8802  1.5190
   97SAPS  C217 9680   4.069   1.743   7.803 -0.4853 -0.6645 -0.8350
   97SAPS  H17R 9681   4.044   1.842   7.759 -3.4261 -0.1642  1.8037
   97SAPS  H17S 9682   4.177   1.727   7.781  0.1332  2.0051  0.1017
   97SAPS  C218 9683   4.054   1.765   7.957 -0.2367 -0.3388 -0.0499
   97SAPS  H18R 9684   4.088   1.677   8.015  1.4294 -0.2568 -0.8691
   97SAPS  H18S 9685   3.946   1.771   7.984  0.0649  0.7294  0.9477
   97SAPS  C219 9686   4.136   1.883   8.009 -1.0167 -0.1124 -0.0049
   97SAPS  H19R 9687   4.081   1.978   7.997  1.7421  1.4456 -0.6835
   97SAPS  H19S 9688   4.230   1.896   7.952 -0.5701  2.9424  1.3101
   97SAPS  C220 9689   4.162   1.873   8.160  0.1965 -0.4270  0.7055
   97SAPS  H20R 9690   4.204   1.776   8.195 -0.0903 -1.0465 -0.6108
   97SAPS  H20S 9691   4.062   1.867   8.208  0.2105 -0.7528  0.6925
   97SAPS  H20T 9692   4.228   1.956   8.194  1.0285 -1.5789  1.9364
   97SAPS   C33 9693   3.403   1.386   7.214 -0.7416 -0.0879 -0.2715
   97SAPS   H3X 9694   3.459   1.481   7.201 -1.4420  0.2524 -0.8631
   97SAPS   H3Y 9695   3.470   1.299   7.198 -1.3556 -0.5616 -0.2764
   97SAPS   C34 9696   3.352   1.399   7.355  0.1135 -0.2701 -0.0183
   97SAPS   H4X 9697   3.275   1.479   7.356  0.3685 -0.0280  0.4394
   97SAPS   H4Y 9698   3.444   1.430   7.409 -0.8221 -0.5301  1.7662
   97SAPS   C35 9699   3.285   1.269   7.403  0.4743  0.4085  0.0417
   97SAPS   H5X 9700   3.359   1.188   7.393  0.2791  0.2531 -0.1730
   97SAPS   H5Y 9701   3.200   1.241   7.337 -0.3646  0.7149  0.9876
   97SAPS   C36 9702   3.230   1.272   7.550 -0.6114 -0.3089  0.7094
   97SAPS   H6X 9703   3.153   1.194   7.562 -1.5405  0.3069 -1.1540
   97SAPS   H6Y 9704   3.193   1.374   7.573 -0.0392 -0.3885  2.0597
   97SAPS   C37 9705   3.347   1.245   7.640 -0.4515  0.8781 -0.3710
   97SAPS   H7X 9706   3.426   1.320   7.623  1.3193 -0.3421  2.0811
   97SAPS   H7Y 9707   3.391   1.149   7.604  0.1465  1.3880 -0.9880
   97SAPS   C38 9708   3.306   1.236   7.781  0.3573  0.1494 -0.4637
   97SAPS   H8X 9709   3.235   1.152   7.794  0.6415  0.2351  1.9258
   97SAPS   H8Y 9710   3.259   1.333   7.807  2.0881  1.0564 -0.6916
   97SAPS   C39 9711   3.419   1.210   7.887  0.5811 -0.5147 -0.3669
   97SAPS   H9X 9712   3.490   1.295   7.875  0.7085 -0.4410  0.8624
   97SAPS   H9Y 9713   3.469   1.113   7.870 -0.4099 -1.0264 -0.4128
   97SAPS  C310 9714   3.370   1.203   8.036  0.4024 -0.2057  0.3408
   97SAPS  H10X 9715   3.305   1.113   8.035 -0.9672  0.7604 -1.7653
   97SAPS  H10Y 9716   3.294   1.280   8.061 -0.8324 -0.6617 -1.8856
   97SAPS  C311 9717   3.495   1.181   8.122  0.0683  0.5058 -0.2447
   97SAPS  H11X 9718   3.550   1.276   8.104 -0.7609  0.7371 -1.6962
   97SAPS  H11Y 9719   3.554   1.093   8.088 -2.0866 -0.5899 -1.2576
   97SAPS  C312 9720   3.477   1.159   8.273  0.8950 -0.5721 -0.5380
   97SAPS  H12X 9721   3.417   1.065   8.273 -0.6140  0.3820 -0.8382
   97SAPS  H12Y 9722   3.421   1.237   8.328 -0.9048 -1.5971 -0.8956
   97SAPS  C313 9723   3.613   1.141   8.352  0.7159 -0.1968 -0.3150
   97SAPS  H13X 9724   3.661   1.241   8.352  2.5390 -1.0420 -0.1222
   97SAPS  H13Y 9725   3.666   1.062   8.294 -0.2082  0.0421 -1.5081
   97SAPS  C314 9726   3.587   1.114   8.503 -0.2227  0.4630 -0.2107
   97SAPS  H14X 9727   3.556   1.011   8.532 -2.8130  1.2018 -0.2864
   97SAPS  H14Y 9728   3.513   1.185   8.545  0.7744  1.2110  0.3168
   97SAPS  C315 9729   3.713   1.130   8.601 -0.2818 -0.2214 -0.3539
   97SAPS  H15X 9730   3.737   1.238   8.610 -0.6484 -0.3141  1.9102
   97SAPS  H15Y 9731   3.795   1.078   8.547 -3.2072 -2.7285 -2.6129
   97SAPS  C316 9732   3.697   1.060   8.736 -0.8157  0.0710  0.1722
   97SAPS  H16X 9733   3.793   1.062   8.793  0.2550 -3.4408 -1.3708
   97SAPS  H16Y 9734   3.675   0.954   8.711 -1.2738  0.6244 -1.8723
   97SAPS  C317 9735   3.580   1.113   8.822 -0.3185 -0.2027  0.1934
   97SAPS  H17X 9736   3.539   1.208   8.781  0.6425  0.5486  0.9491
   97SAPS  H17Y 9737   3.617   1.137   8.924 -0.0569  0.7152 -0.1178
   97SAPS  C318 9738   3.464   1.010   8.812  0.1705  1.1239  0.0462
   97SAPS  H18X 9739   3.372   1.052   8.859 -1.7818 -0.5578 -2.1237
   97SAPS  H18Y 9740   3.490   0.917   8.866  0.1574  0.0548 -1.7360
   97SAPS  H18Z 9741   3.428   0.976   8.712 -1.0514 -1.0986  1.2065
   98SAPS     N 9742   1.472   1.713   6.148 -0.8814 -0.8771 -0.7477
   98SAPS   HN1 9743   1.571   1.689   6.132 -1.1903 -3.0111  0.4234
   98SAPS   HN2 9744   1.451   1.678   6.244 -2.5411  1.3962 -0.2333
   98SAPS   HN3 9745   1.417   1.652   6.085  0.5579 -2.8287 -0.1667
   98SAPS   C12 9746   1.439   1.853   6.113 -0.9188 -0.1122 -0.8810
   98SAPS  H12A 9747   1.459   1.859   6.007  0.5219  0.8839 -0.5657
   98SAPS   C13 9748   1.302   1.912   6.145 -0.2342 -0.3946 -0.7693
   98SAPS  O13A 9749   1.228   1.840   6.221  0.1651 -0.5256 -0.2463
   98SAPS  O13B 9750   1.277   2.027   6.101 -0.6390 -0.0540 -0.3806
   98SAPS   C11 9751   1.541   1.946   6.192 -0.6599  0.2206  0.7069
   98SAPS  H11A 9752   1.526   1.941   6.302 -0.9651 -0.5546  0.6389
   98SAPS  H11B 9753   1.526   2.051   6.159 -1.8096 -0.3874 -0.7312
   98SAPS     P 9754   1.792   1.949   6.095 -0.0156  0.3285  0.1372
   98SAPS   O13 9755   1.883   1.833   6.091 -0.0573 -0.3613 -0.4120
   98SAPS   O14 9756   1.749   2.007   5.966  0.6185 -0.0422 -0.0319
   98SAPS   O12 9757   1.674   1.909   6.185 -0.5854 -0.2799  0.5606
   98SAPS   O11 9758   1.854   2.061   6.180 -0.3862  0.0193 -0.0375
   98SAPS    C1 9759   1.961   2.066   6.269  0.4042  0.0248 -0.3896
   98SAPS    HA 9760   2.047   2.029   6.209 -1.9900 -0.4234 -3.6856
   98SAPS    HB 9761   1.977   2.176   6.280  0.3647  0.2419 -2.3227
   98SAPS    C2 9762   1.932   1.984   6.395 -1.0400 -0.0441  0.0521
   98SAPS    HS 9763   1.922   1.879   6.362 -0.1298 -0.6276  1.5568
   98SAPS   O21 9764   1.831   2.056   6.468  0.3059  0.3178  0.2316
   98SAPS   C21 9765   1.733   1.974   6.503  0.5420 -0.2398 -0.0466
   98SAPS   O22 9766   1.716   1.854   6.472  0.1484  0.0409  0.4494
   98SAPS   C22 9767   1.646   2.048   6.607  0.3117 -0.6892 -0.3569
   98SAPS   H2R 9768   1.706   2.059   6.700  2.6997  1.0983 -2.0406
   98SAPS   H2S 9769   1.631   2.144   6.553 -1.3914 -1.3196 -1.0682
   98SAPS    C3 9770   2.057   1.988   6.485 -0.6253  0.2787 -0.8154
   98SAPS    HX 9771   2.073   2.098   6.488 -0.3354  0.2325 -0.6990
   98SAPS    HY 9772   2.146   1.940   6.439 -0.4240 -1.9744  1.7929
   98SAPS   O31 9773   2.025   1.937   6.625  0.6255 -0.5409  0.3834
   98SAPS   C31 9774   2.122   1.950   6.714 -0.4645 -0.0723  0.6271
   98SAPS   O32 9775   2.229   2.002   6.690 -0.0995  0.3503  0.4202
   98SAPS   C32 9776   2.072   1.898   6.847 -0.2174 -0.1721 -0.1218
   98SAPS   H2X 9777   2.091   1.789   6.839  0.3201 -0.2009  1.3976
   98SAPS   H2Y 9778   1.964   1.921   6.863  0.1739 -1.0779  4.5688
   98SAPS   C23 9779   1.511   1.975   6.629  0.4204 -0.3938 -0.0105
   98SAPS   H3R 9780   1.483   1.925   6.533  3.7307 -1.9246 -0.2585
   98SAPS   H3S 9781   1.432   2.044   6.664  1.4722  0.4798  0.6737
   98SAPS   C24 9782   1.521   1.866   6.739 -0.4441  0.2459  0.1280
   98SAPS   H4R 9783   1.551   1.907   6.838 -2.6811 -1.9779  1.8113
   98SAPS   H4S 9784   1.598   1.792   6.708 -0.0519  0.7756 -0.1599
   98SAPS   C25 9785   1.396   1.784   6.750 -0.1749  0.2222 -0.7154
   98SAPS   H5R 9786   1.372   1.733   6.655  0.7480  0.1758 -0.9307
   98SAPS   C26 9787   1.335   1.749   6.861 -0.1828  0.3540  0.8680
   98SAPS   H6R 9788   1.256   1.674   6.850  1.0951 -0.5652 -2.7212
   98SAPS   C27 9789   1.360   1.799   7.003 -0.2971  0.3385  0.0217
   98SAPS   H7R 9790   1.264   1.829   7.050 -0.0727  0.4367  0.4253
   98SAPS   H7S 9791   1.425   1.890   7.003  0.8393 -0.4471  1.0216
   98SAPS   C28 9792   1.428   1.701   7.091 -0.3250  0.2584  0.9035
   98SAPS   H8R 9793   1.507   1.640   7.045  0.2658  0.3596  1.7736
   98SAPS   C29 9794   1.409   1.699   7.229 -0.0503 -0.2058  0.3676
   98SAPS   H9R 9795   1.464   1.625   7.288 -0.5398 -1.0318 -0.2060
   98SAPS  C210 9796   1.314   1.779   7.325 -0.4902  0.2417 -0.0194
   98SAPS  H10R 9797   1.258   1.715   7.396  3.0140 -0.6737  2.0180
   98SAPS  H10S 9798   1.232   1.820   7.262 -0.9753  2.1317  1.7789
   98SAPS  C211 9799   1.383   1.893   7.407 -0.0462 -0.1010  0.9033
   98SAPS  H11R 9800   1.397   1.987   7.352 -1.1554 -0.4530 -0.0273
   98SAPS  C212 9801   1.431   1.882   7.532 -0.1546 -0.1565 -0.5132
   98SAPS  H12R 9802   1.471   1.981   7.561 -1.6350  0.2984  0.0180
   98SAPS  C213 9803   1.427   1.776   7.636  0.3048 -0.2626  0.5642
   98SAPS  H13R 9804   1.341   1.711   7.607  0.4106  1.0744 -2.9958
   98SAPS  H13S 9805   1.395   1.813   7.736 -0.6737  3.3133 -1.0093
   98SAPS  C214 9806   1.560   1.700   7.650  0.4757 -0.5281 -0.4604
   98SAPS  H14R 9807   1.641   1.714   7.577  0.4620 -2.8862 -0.9554
   98SAPS  C215 9808   1.593   1.631   7.759 -0.5251 -0.0299  0.7178
   98SAPS  H15R 9809   1.694   1.587   7.765 -1.2169 -1.5801  1.3760
   98SAPS  C216 9810   1.526   1.589   7.884  0.2910  0.0849 -0.7941
   98SAPS  H16R 9811   1.519   1.478   7.877 -0.3535  0.0402  0.3540
   98SAPS  H16S 9812   1.422   1.628   7.894  0.9838  1.3200  2.3415
   98SAPS  C217 9813   1.594   1.632   8.023  0.4123  0.2239 -0.4253
   98SAPS  H17R 9814   1.606   1.743   8.025  2.0876  0.0678 -0.7463
   98SAPS  H17S 9815   1.690   1.582   8.050  0.0310  0.7087  1.8952
   98SAPS  C218 9816   1.492   1.600   8.136 -0.5243  0.2617 -0.3231
   98SAPS  H18R 9817   1.404   1.665   8.118 -1.5664 -0.8862  0.5644
   98SAPS  H18S 9818   1.531   1.628   8.236  1.0349 -2.0173 -0.2409
   98SAPS  C219 9819   1.454   1.454   8.147  0.4307 -0.5593 -0.0949
   98SAPS  H19R 9820   1.532   1.395   8.198  2.3635  0.5594 -1.7067
   98SAPS  H19S 9821   1.434   1.414   8.045 -0.8266 -1.7419  0.5789
   98SAPS  C220 9822   1.328   1.451   8.231  0.1392  1.1529  0.3573
   98SAPS  H20R 9823   1.287   1.350   8.207  0.6879  1.0268 -0.0505
   98SAPS  H20S 9824   1.248   1.520   8.196  0.6091  0.8570 -1.3344
   98SAPS  H20T 9825   1.341   1.463   8.341  1.6389  1.7465  0.1257
   98SAPS   C33 9826   2.145   1.961   6.966  0.5394 -0.3114 -0.1535
   98SAPS   H3X 9827   2.129   2.071   6.964  0.7545 -0.2899 -0.7674
   98SAPS   H3Y 9828   2.255   1.945   6.961  0.3359 -1.7872 -0.2368
   98SAPS   C34 9829   2.104   1.897   7.099  0.3799  0.1139  0.1193
   98SAPS   H4X 9830   2.127   1.789   7.087  0.8107  0.1270  0.7919
   98SAPS   H4Y 9831   1.994   1.915   7.103  0.6073  1.5254  0.0555
   98SAPS   C35 9832   2.184   1.955   7.222  0.3338  0.0003  0.2808
   98SAPS   H5X 9833   2.291   1.928   7.218  0.5464  1.0072 -2.5715
   98SAPS   H5Y 9834   2.155   1.892   7.308 -0.0457 -1.1019 -0.6339
   98SAPS   C36 9835   2.166   2.104   7.254  0.4257 -0.0140  0.2501
   98SAPS   H6X 9836   2.066   2.135   7.291 -0.4099 -2.5466  0.2708
   98SAPS   H6Y 9837   2.195   2.167   7.167  1.7347 -0.9655 -0.0340
   98SAPS   C37 9838   2.259   2.138   7.372  0.3279 -0.0136  0.9152
   98SAPS   H7X 9839   2.240   2.244   7.398  1.2235 -0.1062  1.9462
   98SAPS   H7Y 9840   2.366   2.129   7.344  0.4270 -1.4855  1.7392
   98SAPS   C38 9841   2.238   2.061   7.503  0.3521  0.9375 -0.0818
   98SAPS   H8X 9842   2.276   1.959   7.481  1.0083  0.9676  0.8640
   98SAPS   H8Y 9843   2.134   2.065   7.542  0.4107  2.3554 -0.0271
   98SAPS   C39 9844   2.318   2.131   7.621  0.5610 -0.4877 -0.0186
   98SAPS   H9X 9845   2.286   2.237   7.633  0.3821 -0.6028  0.5409
   98SAPS   H9Y 9846   2.428   2.128   7.601  0.5788 -0.3541  0.0535
   98SAPS  C310 9847   2.303   2.052   7.756  0.1597 -0.1520 -0.2575
   98SAPS  H10X 9848   2.293   1.945   7.730 -0.8982 -0.1458  0.1176
   98SAPS  H10Y 9849   2.201   2.080   7.788 -0.1542 -2.9206  1.2729
   98SAPS  C311 9850   2.401   2.095   7.869 -0.0412 -0.3264  0.3554
   98SAPS  H11X 9851   2.402   2.205   7.860 -1.4226 -0.3250  0.1140
   98SAPS  H11Y 9852   2.502   2.054   7.846  0.0587  0.9233 -1.4495
   98SAPS  C312 9853   2.366   2.050   8.010 -0.3206  0.2537  1.4178
   98SAPS  H12X 9854   2.378   1.940   8.016 -0.9851  0.1349  0.5148
   98SAPS  H12Y 9855   2.258   2.068   8.026 -0.6002  1.2567 -1.3259
   98SAPS  C313 9856   2.452   2.108   8.120 -0.1133  0.5703 -0.2977
   98SAPS  H13X 9857   2.402   2.107   8.219  0.5188 -3.1640  0.0633
   98SAPS  H13Y 9858   2.476   2.211   8.087 -0.0509  0.4112 -0.7487
   98SAPS  C314 9859   2.597   2.042   8.138  0.2718 -0.3449  0.0501
   98SAPS  H14X 9860   2.644   2.029   8.037  0.9386  2.4453 -0.0452
   98SAPS  H14Y 9861   2.580   1.941   8.181 -1.0150  0.1467  0.7145
   98SAPS  C315 9862   2.688   2.124   8.235  0.3213 -0.2801  0.4061
   98SAPS  H15X 9863   2.783   2.065   8.242  0.5382  0.3797  3.8249
   98SAPS  H15Y 9864   2.631   2.117   8.329  0.6678  1.4123  0.7593
   98SAPS  C316 9865   2.725   2.268   8.188  0.0853  0.8630 -0.3368
   98SAPS  H16X 9866   2.632   2.316   8.151 -2.0987 -3.0595 -0.1894
   98SAPS  H16Y 9867   2.805   2.261   8.110 -0.4511 -0.5838 -0.7686
   98SAPS  C317 9868   2.790   2.362   8.298  0.2212  0.2524 -0.0587
   98SAPS  H17X 9869   2.798   2.463   8.252 -1.0214  0.3546 -0.0674
   98SAPS  H17Y 9870   2.893   2.331   8.325  0.0448 -0.6659 -0.3904
   98SAPS  C318 9871   2.711   2.363   8.433 -0.1792  0.1554  0.6217
   98SAPS  H18X 9872   2.601   2.375   8.418 -0.7200 -2.3787  2.2842
   98SAPS  H18Y 9873   2.749   2.445   8.498  0.1139 -0.2946  1.0220
   98SAPS  H18Z 9874   2.732   2.270   8.490 -2.4872 -2.1668 -2.1573
   99SAPS     N 9875   0.347   5.755   6.009 -0.3072  0.0379  0.1605
   99SAPS   HN1 9876   0.255   5.713   5.987  0.9362 -3.6719  1.4993
   99SAPS   HN2 9877   0.336   5.858   6.011  0.9103  0.1666  1.2362
   99SAPS   HN3 9878   0.417   5.721   5.940 -0.2559  1.3039 -0.4262
   99SAPS   C12 9879   0.402   5.711   6.139  0.0980 -0.0895  0.1544
   99SAPS  H12A 9880   0.316   5.714   6.204 -1.0602 -2.4193 -1.2218
   99SAPS   C13 9881   0.460   5.572   6.144 -0.7717 -0.1019 -0.4267
   99SAPS  O13A 9882   0.489   5.515   6.035 -0.5813  0.0954  0.2263
   99SAPS  O13B 9883   0.499   5.517   6.256  0.6169 -0.3899 -0.0463
   99SAPS   C11 9884   0.510   5.817   6.185 -0.7203 -0.2304  0.4644
   99SAPS  H11A 9885   0.593   5.812   6.111 -0.5616  0.8739  0.5641
   99SAPS  H11B 9886   0.551   5.787   6.284 -1.2605 -0.1424  0.7135
   99SAPS     P 9887   0.437   6.035   6.317  0.4482 -0.0260 -0.3753
   99SAPS   O13 9888   0.428   6.180   6.287 -0.0240  0.1291  0.1281
   99SAPS   O14 9889   0.313   5.970   6.351  0.1195  0.1737  0.3070
   99SAPS   O12 9890   0.475   5.953   6.182 -0.7534  0.0700 -0.4117
   99SAPS   O11 9891   0.543   6.013   6.434 -0.6459 -0.1369 -0.1413
   99SAPS    C1 9892   0.677   6.045   6.410 -0.0636 -0.1252  0.2665
   99SAPS    HA 9893   0.711   6.055   6.305 -1.0351  0.1214 -0.0326
   99SAPS    HB 9894   0.693   6.137   6.471 -2.8560  0.0005  0.8809
   99SAPS    C2 9895   0.761   5.924   6.459 -0.3876  0.0999  0.0117
   99SAPS    HS 9896   0.741   5.849   6.380  0.6789 -1.6329  1.3491
   99SAPS   O21 9897   0.702   5.868   6.580  0.9303 -0.2980 -0.5050
   99SAPS   C21 9898   0.722   5.747   6.605  0.0458  0.1365  0.4311
   99SAPS   O22 9899   0.783   5.663   6.539  0.0874  0.4565  0.6629
   99SAPS   C22 9900   0.637   5.710   6.725  0.1799 -0.4081 -0.1133
   99SAPS   H2R 9901   0.534   5.737   6.692  1.6766  3.4999 -1.8372
   99SAPS   H2S 9902   0.649   5.601   6.745 -0.1221 -0.4329 -0.0548
   99SAPS    C3 9903   0.913   5.964   6.461 -0.1278 -0.7060 -0.0923
   99SAPS    HX 9904   0.935   6.011   6.362  0.2622 -0.8945 -0.0991
   99SAPS    HY 9905   0.985   5.879   6.464 -0.4315 -0.9204  1.2028
   99SAPS   O31 9906   0.933   6.068   6.554 -0.5317  0.3328 -0.1750
   99SAPS   C31 9907   0.985   6.018   6.677  0.0154  0.2473  0.1906
   99SAPS   O32 9908   1.000   5.896   6.694 -0.4847 -0.3607  0.5145
   99SAPS   C32 9909   1.052   6.125   6.759  0.3810 -0.4366  0.2755
   99SAPS   H2X 9910   1.000   6.220   6.730 -0.5103 -1.4381 -1.5011
   99SAPS   H2Y 9911   1.160   6.137   6.739  0.6834 -0.5932  1.7715
   99SAPS   C23 9912   0.674   5.788   6.851  0.8076  0.1097 -0.0365
   99SAPS   H3R 9913   0.624   5.887   6.840  0.4871  0.0380  0.7023
   99SAPS   H3S 9914   0.783   5.806   6.858  0.8232  0.1852 -0.4616
   99SAPS   C24 9915   0.617   5.737   6.983  0.4469 -0.6518 -0.9150
   99SAPS   H4R 9916   0.654   5.796   7.070 -0.5972 -1.1290 -0.1315
   99SAPS   H4S 9917   0.652   5.631   6.983 -2.7616 -1.8328  2.0526
   99SAPS   C25 9918   0.467   5.749   6.981 -0.1142  0.6815  0.2440
   99SAPS   H5R 9919   0.415   5.799   6.898  0.1566  0.5552 -0.0022
   99SAPS   C26 9920   0.381   5.709   7.077 -0.2401 -0.2550  0.7026
   99SAPS   H6R 9921   0.274   5.726   7.059  0.0487  0.6882 -0.1998
   99SAPS   C27 9922   0.408   5.652   7.213  0.1777  0.3005  0.1100
   99SAPS   H7R 9923   0.514   5.674   7.238  0.0120  1.2440  0.0124
   99SAPS   H7S 9924   0.388   5.543   7.206  0.6340  0.0509  2.2576
   99SAPS   C28 9925   0.328   5.720   7.323 -0.4279 -0.3490 -0.3584
   99SAPS   H8R 9926   0.304   5.827   7.318 -1.7766 -0.5885  0.6631
   99SAPS   C29 9927   0.278   5.655   7.430  0.3837  0.2225 -0.4534
   99SAPS   H9R 9928   0.209   5.714   7.492 -0.0203 -1.9490  1.2295
   99SAPS  C210 9929   0.288   5.514   7.481 -1.0797  0.2756  0.4682
   99SAPS  H10R 9930   0.356   5.454   7.416 -1.6527  0.0686  0.0521
   99SAPS  H10S 9931   0.193   5.464   7.454 -0.9262  0.5610 -0.6405
   99SAPS  C211 9932   0.320   5.500   7.622  0.4247 -0.4234 -0.4238
   99SAPS  H11R 9933   0.426   5.479   7.643  0.0270 -0.1216  2.1306
   99SAPS  C212 9934   0.238   5.531   7.723  0.5961  0.0214  0.3323
   99SAPS  H12R 9935   0.264   5.510   7.827  0.5314  0.1022  0.3651
   99SAPS  C213 9936   0.098   5.576   7.719  0.2413 -0.4715  0.0399
   99SAPS  H13R 9937   0.032   5.500   7.767 -0.1404  0.2563  0.6861
   99SAPS  H13S 9938   0.051   5.568   7.619  3.0791 -2.0540 -1.2090
   99SAPS  C214 9939   0.083   5.715   7.775  0.7289 -0.1532 -0.1920
   99SAPS  H14R 9940   0.114   5.802   7.716 -2.4966  1.3098  0.1769
   99SAPS  C215 9941   0.043   5.747   7.902  0.2476 -0.3388 -0.1182
   99SAPS  H15R 9942   0.045   5.851   7.937  2.3642 -0.6427  0.7194
   99SAPS  C216 9943   0.009   5.637   8.003  0.0887  0.7581 -0.1344
   99SAPS  H16R 9944  -0.022   5.542   7.955  1.6930  0.3741 -0.4128
   99SAPS  H16S 9945  -0.082   5.666   8.060 -0.9338  0.2031 -1.4330
   99SAPS  C217 9946   0.129   5.616   8.102  0.2438  0.1796  0.2030
   99SAPS  H17R 9947   0.139   5.711   8.159 -0.1261 -0.2669  1.0219
   99SAPS  H17S 9948   0.220   5.604   8.040 -0.2418 -0.8340 -0.3243
   99SAPS  C218 9949   0.114   5.483   8.189 -0.1637 -0.6829  0.3445
   99SAPS  H18R 9950   0.209   5.433   8.219 -1.2645 -1.0977  3.3783
   99SAPS  H18S 9951   0.059   5.409   8.126 -2.8593 -1.0291  2.9708
   99SAPS  C219 9952   0.041   5.529   8.317  0.3319 -0.1303  0.5172
   99SAPS  H19R 9953  -0.054   5.577   8.287 -0.8240 -2.9147 -0.4595
   99SAPS  H19S 9954   0.098   5.605   8.375  0.5871 -0.1675  0.3129
   99SAPS  C220 9955   0.008   5.415   8.411  0.5965  0.5056 -0.4504
   99SAPS  H20R 9956   0.098   5.356   8.438  0.8687  0.7378 -0.8300
   99SAPS  H20S 9957  -0.069   5.350   8.366 -0.5037  0.4260  1.5117
   99SAPS  H20T 9958  -0.037   5.461   8.501 -0.1221  1.8510 -1.4743
   99SAPS   C33 9959   1.042   6.106   6.916  0.5335 -0.1431 -0.1954
   99SAPS   H3X 9960   1.118   6.040   6.962  1.4882  0.9725 -0.1375
   99SAPS   H3Y 9961   0.942   6.068   6.946  1.1318 -0.4428  1.4881
   99SAPS   C34 9962   1.055   6.241   6.986  0.3483 -1.0461  0.4282
   99SAPS   H4X 9963   0.978   6.308   6.943  0.0858 -0.3916  1.8742
   99SAPS   H4Y 9964   1.157   6.276   6.957 -1.7354  3.8028 -1.5287
   99SAPS   C35 9965   1.035   6.221   7.139  0.2299 -0.3171 -0.1510
   99SAPS   H5X 9966   1.088   6.124   7.154 -0.3773 -0.4237  1.3111
   99SAPS   H5Y 9967   0.926   6.220   7.159 -0.4652  0.7757 -3.4834
   99SAPS   C36 9968   1.095   6.336   7.224  0.6729 -0.0449 -0.4520
   99SAPS   H6X 9969   1.032   6.428   7.213  2.3974  1.5035  2.0321
   99SAPS   H6Y 9970   1.199   6.350   7.190  0.7961  0.9104  0.2892
   99SAPS   C37 9971   1.092   6.300   7.373 -0.2568 -0.4174  0.4531
   99SAPS   H7X 9972   1.154   6.208   7.374 -0.6526 -0.8134 -3.4999
   99SAPS   H7Y 9973   0.994   6.285   7.423 -0.8742 -1.1796 -0.9721
   99SAPS   C38 9974   1.171   6.400   7.464 -0.7763 -0.8980  0.0969
   99SAPS   H8X 9975   1.125   6.501   7.465 -1.4921 -1.2097 -1.1202
   99SAPS   H8Y 9976   1.273   6.397   7.420 -1.2462  2.1022 -1.2551
   99SAPS   C39 9977   1.173   6.333   7.601 -0.3353 -0.8850 -0.2556
   99SAPS   H9X 9978   1.224   6.235   7.596  0.2252 -0.6456  0.4742
   99SAPS   H9Y 9979   1.078   6.321   7.657  0.3727 -0.1240  1.1468
   99SAPS  C310 9980   1.256   6.428   7.694  0.4378 -0.4181 -0.0977
   99SAPS  H10X 9981   1.196   6.521   7.688  0.9816 -0.0912 -0.4850
   99SAPS  H10Y 9982   1.356   6.445   7.649  0.2050  1.8132  0.2024
   99SAPS  C311 9983   1.265   6.378   7.836  1.1247 -0.1247  0.0792
   99SAPS  H11X 9984   1.348   6.304   7.834  1.9378  0.8363 -2.7487
   99SAPS  H11Y 9985   1.168   6.335   7.872 -0.2764  2.0326 -1.0442
   99SAPS  C312 9986   1.309   6.484   7.941  0.6058  0.0063  0.8116
   99SAPS  H12X 9987   1.390   6.550   7.904 -0.7632  1.7106  0.7999
   99SAPS  H12Y 9988   1.349   6.428   8.029 -0.3831 -0.2188  1.1277
   99SAPS  C313 9989   1.195   6.580   7.972  0.1348 -0.8855  0.1883
   99SAPS  H13X 9990   1.103   6.537   8.017 -0.2967  1.5548  1.7338
   99SAPS  H13Y 9991   1.175   6.644   7.884  1.6501 -2.2096 -1.1541
   99SAPS  C314 9992   1.240   6.686   8.078 -0.0609 -0.4572  0.1051
   99SAPS  H14X 9993   1.155   6.752   8.102  0.1640 -1.1311  2.8457
   99SAPS  H14Y 9994   1.319   6.741   8.022 -0.7461 -0.9639 -1.4127
   99SAPS  C315 9995   1.330   6.636   8.194  0.4151 -0.7371  0.0833
   99SAPS  H15X 9996   1.427   6.600   8.152  2.0065  0.2142  2.7852
   99SAPS  H15Y 9997   1.291   6.551   8.254  1.3374 -0.2700  1.3744
   99SAPS  C316 9998   1.372   6.754   8.290 -0.2488 -0.3665  0.4722
   99SAPS  H16X 9999   1.284   6.814   8.320 -0.0153  1.1203 -1.6340
   99SAPS  H16Y10000   1.441   6.819   8.233  0.9718 -1.5184  0.6014
   99SAPS  C31710001   1.446   6.693   8.404 -0.1022  0.1465 -0.2713
   99SAPS  H17X10002   1.525   6.623   8.368 -0.9833  0.3765 -2.7288
   99SAPS  H17Y10003   1.382   6.636   8.475  0.0214 -0.9984 -1.0759
   99SAPS  C31810004   1.527   6.792   8.494 -0.4445  0.1398 -0.2689
   99SAPS  H18X10005   1.567   6.732   8.579  3.8485  0.5862 -1.8641
   99SAPS  H18Y10006   1.460   6.878   8.519 -1.3232 -0.5509 -0.2041
   99SAPS  H18Z10007   1.614   6.839   8.443 -0.3568 -0.3739 -0.5888
  100SAPS     N10008   3.795   1.280   6.540  0.5040  0.2183  0.1493
  100SAPS   HN110009   3.845   1.371   6.537  0.6384  0.1962  1.4364
  100SAPS   HN210010   3.720   1.279   6.613  1.0820 -1.0640  0.7396
  100SAPS   HN310011   3.857   1.199   6.560  1.3031  0.5982 -0.7485
  100SAPS   C1210012   3.731   1.259   6.404 -0.3527 -0.2767 -0.3944
  100SAPS  H12A10013   3.654   1.334   6.393  1.0866  1.4824  1.2668
  100SAPS   C1310014   3.823   1.289   6.286  0.0539 -0.0881 -0.0223
  100SAPS  O13A10015   3.948   1.289   6.308 -0.1581  0.1709 -0.5463
  100SAPS  O13B10016   3.784   1.308   6.171 -0.0855 -0.7768  0.2092
  100SAPS   C1110017   3.677   1.114   6.397 -0.6416 -0.0068  0.0026
  100SAPS  H11A10018   3.600   1.125   6.476  0.8404  0.7926  1.3670
  100SAPS  H11B10019   3.761   1.053   6.435 -0.2220  0.4237 -0.2183
  100SAPS     P10020   3.503   0.978   6.260 -0.2112 -0.5436  0.0602
  100SAPS   O1310021   3.388   1.068   6.300 -0.1488  0.4597 -0.0001
  100SAPS   O1410022   3.492   0.904   6.133 -0.1977 -0.4984 -0.7966
  100SAPS   O1210023   3.642   1.060   6.272 -0.6148 -0.4313 -0.7832
  100SAPS   O1110024   3.527   0.885   6.384 -0.1725  0.6429  0.4283
  100SAPS    C110025   3.419   0.797   6.420  1.3271  0.6778  0.0258
  100SAPS    HA10026   3.322   0.819   6.371  2.7363  1.8257 -2.2904
  100SAPS    HB10027   3.444   0.693   6.390  0.1329  0.7350 -1.1844
  100SAPS    C210028   3.390   0.778   6.571 -0.7885 -0.3241  0.0089
  100SAPS    HS10029   3.323   0.693   6.593 -2.0502  1.2220  2.3544
  100SAPS   O2110030   3.349   0.898   6.636  0.0874  0.7349 -0.3630
  100SAPS   C2110031   3.226   0.932   6.606 -0.1372  0.4864  0.1274
  100SAPS   O2210032   3.138   0.862   6.562 -0.0606 -0.1686  0.3309
  100SAPS   C2210033   3.220   1.084   6.621 -0.6750 -0.0256  0.9057
  100SAPS   H2R10034   3.321   1.127   6.638  1.2595 -3.7320 -0.4824
  100SAPS   H2S10035   3.182   1.133   6.529 -0.8385 -0.8885  0.5093
  100SAPS    C310036   3.526   0.737   6.637  0.0273 -0.1871  0.6285
  100SAPS    HX10037   3.609   0.806   6.611 -1.9137  1.0146 -2.8159
  100SAPS    HY10038   3.553   0.637   6.595 -1.6335 -0.5723  0.4321
  100SAPS   O3110039   3.510   0.719   6.780  0.1705 -0.3287  0.0598
  100SAPS   C3110040   3.542   0.823   6.854  0.1802  0.9414 -0.0184
  100SAPS   O3210041   3.596   0.927   6.813  0.5162 -0.9812 -0.3661
  100SAPS   C3210042   3.500   0.801   6.994 -0.0839  0.7696 -0.1643
  100SAPS   H2X10043   3.542   0.701   7.018  0.2077  1.2334  1.3014
  100SAPS   H2Y10044   3.390   0.784   6.994 -0.1785  1.3809 -0.0190
  100SAPS   C2310045   3.123   1.119   6.734  0.5127 -0.2138  0.4167
  100SAPS   H3R10046   3.018   1.103   6.698  0.4924  0.0517  0.3608
  100SAPS   H3S10047   3.129   1.229   6.745 -3.4556 -0.0558  1.8307
  100SAPS   C2410048   3.152   1.059   6.873 -0.7355 -0.4885 -0.9029
  100SAPS   H4R10049   3.112   1.127   6.952 -0.0193 -3.0737  1.7842
  100SAPS   H4S10050   3.260   1.040   6.890 -1.1516 -1.4966  0.7398
  100SAPS   C2510051   3.066   0.937   6.893  0.7674 -0.1528  0.4571
  100SAPS   H5R10052   3.016   0.889   6.807 -0.2744  0.3589  0.7676
  100SAPS   C2610053   3.047   0.881   7.010  0.2186  0.1650 -0.2000
  100SAPS   H6R10054   2.962   0.810   7.012 -0.1007  0.4710 -2.0464
  100SAPS   C2710055   3.118   0.915   7.140  0.4650 -0.3487  0.3124
  100SAPS   H7R10056   3.048   0.974   7.204  1.9936 -0.0266  1.7480
  100SAPS   H7S10057   3.204   0.985   7.127 -0.1213  0.1151 -1.2212
  100SAPS   C2810058   3.172   0.792   7.211  0.2545  0.0747  0.5810
  100SAPS   H8R10059   3.204   0.706   7.150 -0.1101 -0.3519  0.9804
  100SAPS   C2910060   3.184   0.781   7.340  0.0330  0.3059  0.0688
  100SAPS   H9R10061   3.234   0.689   7.373 -0.0699  0.1997 -0.0676
  100SAPS  C21010062   3.147   0.883   7.443  0.2048  0.6097 -0.7301
  100SAPS  H10R10063   3.043   0.859   7.474  0.1933  1.8686  0.2269
  100SAPS  H10S10064   3.153   0.980   7.389 -1.7284 -0.1353 -2.3650
  100SAPS  C21110065   3.239   0.891   7.558  0.4295 -0.9066  0.3779
  100SAPS  H11R10066   3.344   0.903   7.526  0.5418 -1.5576  0.4900
  100SAPS  C21210067   3.198   0.888   7.686 -0.0914  0.1066 -0.2194
  100SAPS  H12R10068   3.273   0.878   7.766 -0.7380 -1.0269  0.2560
  100SAPS  C21310069   3.053   0.880   7.731  0.2261  1.4150  0.3423
  100SAPS  H13R10070   2.994   0.809   7.669  1.5680 -0.8610  1.5799
  100SAPS  H13S10071   3.010   0.979   7.705 -2.7866 -0.0696 -0.5406
  100SAPS  C21410072   3.031   0.832   7.879 -0.6800 -0.2696  0.7229
  100SAPS  H14R10073   3.033   0.723   7.892  0.6110 -0.2591  0.6825
  100SAPS  C21510074   3.006   0.919   7.981  1.4831  0.1514  0.6727
  100SAPS  H15R10075   2.995   0.871   8.080  1.3169  1.7188  1.4229
  100SAPS  C21610076   2.985   1.070   7.965 -0.2431  1.1151 -0.1808
  100SAPS  H16R10077   2.878   1.088   7.942 -0.6010 -2.0134 -1.1923
  100SAPS  H16S10078   3.043   1.119   7.885  1.4256  0.3852  0.5681
  100SAPS  C21710079   3.010   1.144   8.102  0.0968 -0.5807 -0.2874
  100SAPS  H17R10080   2.992   1.252   8.083 -1.3276 -0.5680  0.9636
  100SAPS  H17S10081   3.118   1.140   8.128 -0.4077  1.6855  2.3580
  100SAPS  C21810082   2.936   1.094   8.217 -0.3862 -0.6026 -0.2830
  100SAPS  H18R10083   2.953   1.166   8.299 -1.7554 -2.0065  1.2659
  100SAPS  H18S10084   2.970   0.993   8.249  1.6565  1.0482  2.9846
  100SAPS  C21910085   2.785   1.090   8.206  0.2877 -0.0213 -0.0105
  100SAPS  H19R10086   2.753   0.985   8.183  3.2451 -0.4543 -2.5135
  100SAPS  H19S10087   2.757   1.166   8.129  1.4433  0.8856  0.4684
  100SAPS  C22010088   2.726   1.123   8.339  0.3384  0.1264 -0.6387
  100SAPS  H20R10089   2.770   1.221   8.369  2.0895 -0.1320 -2.2711
  100SAPS  H20S10090   2.736   1.042   8.415  0.8402  0.4171 -0.3903
  100SAPS  H20T10091   2.621   1.152   8.319  0.7473  2.4303  0.4346
  100SAPS   C3310092   3.553   0.903   7.098 -0.1506 -0.2009 -0.4978
  100SAPS   H3X10093   3.490   0.994   7.103 -0.0016 -0.0751 -0.8903
  100SAPS   H3Y10094   3.657   0.927   7.069  1.7309 -2.8688  3.6178
  100SAPS   C3410095   3.553   0.838   7.243 -0.4633  0.1158  0.2424
  100SAPS   H4X10096   3.607   0.741   7.244  0.1811  0.4695  0.4566
  100SAPS   H4Y10097   3.447   0.824   7.271 -1.1932  0.6978 -2.1184
  100SAPS   C3510098   3.609   0.919   7.356  0.2709 -0.1791  0.4226
  100SAPS   H5X10099   3.548   1.010   7.373  0.5979 -0.3950  2.8740
  100SAPS   H5Y10100   3.710   0.953   7.322 -0.6508  1.6921 -0.5383
  100SAPS   C3610101   3.626   0.846   7.491  0.5049 -0.9537 -0.4879
  100SAPS   H6X10102   3.719   0.785   7.479  0.6902 -0.8111  0.2228
  100SAPS   H6Y10103   3.551   0.766   7.507  1.2754 -1.1699  2.2081
  100SAPS   C3710104   3.652   0.931   7.610  0.2758 -0.4355 -0.3998
  100SAPS   H7X10105   3.571   1.000   7.640  2.5744  1.9477  0.4737
  100SAPS   H7Y10106   3.743   0.991   7.592  0.4491 -0.2593  0.9551
  100SAPS   C3810107   3.693   0.861   7.747 -0.4567 -0.2111 -0.5788
  100SAPS   H8X10108   3.755   0.927   7.811 -0.3482 -1.3235  0.4875
  100SAPS   H8Y10109   3.756   0.770   7.735 -1.0800 -0.5702 -1.1903
  100SAPS   C3910110   3.558   0.829   7.816  0.0465  0.0638 -0.1051
  100SAPS   H9X10111   3.511   0.745   7.761  1.1332 -0.0617 -0.8704
  100SAPS   H9Y10112   3.483   0.910   7.813 -0.1703 -0.0659  1.4053
  100SAPS  C31010113   3.584   0.794   7.958 -0.2161  0.5384 -0.0387
  100SAPS  H10X10114   3.637   0.877   8.010  0.8947 -0.6867  0.8213
  100SAPS  H10Y10115   3.641   0.701   7.975  0.9492  1.3757  0.7325
  100SAPS  C31110116   3.451   0.793   8.042  0.1297  0.3344 -0.4382
  100SAPS  H11X10117   3.403   0.700   8.006 -1.5130  0.3932  1.4864
  100SAPS  H11Y10118   3.387   0.880   8.015 -1.3548 -0.0664  1.6297
  100SAPS  C31210119   3.478   0.775   8.192 -0.6888 -0.3479 -0.4770
  100SAPS  H12X10120   3.530   0.866   8.229  0.1868 -0.4229 -1.4950
  100SAPS  H12Y10121   3.556   0.696   8.189 -0.2145 -0.0803  3.2980
  100SAPS  C31310122   3.352   0.747   8.271 -0.0482 -0.4026  0.9512
  100SAPS  H13X10123   3.303   0.652   8.241  1.6407 -0.7007 -1.0290
  100SAPS  H13Y10124   3.278   0.827   8.252  0.5561  0.9372  3.9940
  100SAPS  C31410125   3.371   0.753   8.422 -0.1873 -0.1262 -0.1246
  100SAPS  H14X10126   3.264   0.740   8.449 -0.5732  2.4878 -0.3029
  100SAPS  H14Y10127   3.407   0.853   8.452 -1.7328  0.5148 -0.3893
  100SAPS  C31510128   3.451   0.647   8.487 -0.1959 -0.4093  0.1249
  100SAPS  H15X10129   3.560   0.641   8.468 -0.1016  0.1912  0.4850
  100SAPS  H15Y10130   3.416   0.543   8.468 -1.1786  0.2248 -1.7105
  100SAPS  C31610131   3.437   0.651   8.643  0.3890 -0.9159  0.5034
  100SAPS  H16X10132   3.334   0.631   8.680 -0.4447  0.9232 -0.7654
  100SAPS  H16Y10133   3.460   0.756   8.673 -2.8260 -0.1401  0.4429
  100SAPS  C31710134   3.536   0.563   8.721 -0.1869  0.0113  0.5798
  100SAPS  H17X10135   3.636   0.552   8.675 -1.1117  1.2105 -1.8371
  100SAPS  H17Y10136   3.497   0.459   8.726 -2.4688  0.6438 -2.3004
  100SAPS  C31810137   3.552   0.607   8.864 -0.1667 -0.7587  0.1034
  100SAPS  H18X10138   3.463   0.608   8.931  1.8165 -0.5237  2.8264
  100SAPS  H18Y10139   3.592   0.710   8.862 -1.4478 -0.2741 -1.0797
  100SAPS  H18Z10140   3.635   0.546   8.906  1.2503  0.2212 -1.2060
  101OSM      N10141   3.231   0.735  10.797  0.9328 -0.1962 -0.0564
  101OSM    C1510142   3.148   0.724  10.671  0.0894  0.3492 -0.5406
  101OSM   H15A10143   3.065   0.791  10.691 -0.5970 -0.1424 -1.6589
  101OSM   H15B10144   3.108   0.627  10.647 -1.4491  0.8260  0.0302
  101OSM   H15C10145   3.192   0.761  10.579  1.1421 -0.2941 -0.2938
  101OSM    C1410146   3.325   0.617  10.793 -0.3158 -0.2158 -0.4065
  101OSM   H14A10147   3.379   0.614  10.700 -0.0212 -0.8612 -0.2113
  101OSM   H14B10148   3.270   0.524  10.798 -0.7795  0.1160  1.1210
  101OSM   H14C10149   3.396   0.624  10.873 -0.1169  0.0539 -0.6059
  101OSM    C1310150   3.290   0.870  10.787  0.8637 -0.1571 -0.4685
  101OSM   H13A10151   3.364   0.886  10.864  0.7918 -0.5872 -0.3055
  101OSM   H13B10152   3.215   0.945  10.807  0.6715 -0.3053 -0.6336
  101OSM   H13C10153   3.333   0.887  10.690 -1.1647 -3.5552 -2.0596
  101OSM    C1210154   3.139   0.722  10.921 -0.4034 -0.5388  0.5729
  101OSM   H12A10155   3.199   0.705  11.009  0.3181 -0.3426  0.1205
  101OSM   H12B10156   3.094   0.625  10.904  2.4894 -2.2960  2.5356
  101OSM    C1110157   3.026   0.825  10.950 -0.2322  0.2003 -0.5813
  101OSM   H11A10158   3.074   0.911  11.001 -0.3012  0.4082 -0.8632
  101OSM   H11B10159   2.956   0.778  11.023  0.7101 -2.4268 -1.3088
  101OSM      P10160   2.900   1.010  10.817  0.6361  0.3102  0.1324
  101OSM    O1310161   2.761   1.016  10.877  0.6447 -0.6351 -0.7785
  101OSM    O1410162   2.997   1.112  10.860  0.2910 -0.1659 -0.3006
  101OSM    O1110163   2.883   1.027  10.659 -0.0975 -0.0037  0.0950
  101OSM    O1210164   2.951   0.857  10.834 -0.5336 -0.7616 -0.0256
  101OSM    C1S10165   2.788   0.958  10.582 -0.5374  0.1551  0.5751
  101OSM    H1S10166   2.687   0.987  10.619 -0.9379 -0.3932 -0.0844
  101OSM    H1T10167   2.801   0.848  10.587  1.8219  0.2853 -1.6279
  101OSM     NF10168   2.650   0.985  10.372  0.5144  0.2504 -0.1642
  101OSM    HNF10169   2.625   0.894  10.337 -0.9897  1.7916 -3.3063
  101OSM    C2S10170   2.776   1.007  10.432  0.0968 -0.5572 -0.4757
  101OSM    H2S10171   2.790   1.117  10.432 -1.1547 -0.3968  0.0926
  101OSM    C3S10172   2.905   0.946  10.365 -0.2869  0.0362 -0.8235
  101OSM    H3S10173   2.903   0.835  10.363 -1.5274  0.0421 -0.0732
  101OSM     O310174   3.020   0.968  10.442  0.6283  0.0651 -0.2205
  101OSM    HO310175   2.979   1.009  10.519 -2.2790 -2.0294 -0.5559
  101OSM    C4S10176   2.923   1.003  10.227 -0.4334 -0.1718  0.0399
  101OSM    H4S10177   2.887   0.936  10.147 -1.8816  1.0465 -0.3297
  101OSM    C5S10178   2.975   1.123  10.193  0.1574 -0.0690 -0.4409
  101OSM    H5S10179   2.982   1.199  10.273  0.5166 -1.1254  0.5594
  101OSM    C6S10180   2.993   1.180  10.056 -0.2230 -0.3421  0.2059
  101OSM    H6S10181   3.102   1.185  10.037 -0.0723 -1.3944  0.7466
  101OSM    H6T10182   2.966   1.288  10.048 -0.1582 -0.3950 -0.7723
  101OSM    C7S10183   2.932   1.092   9.945  0.2801 -0.1624  0.3560
  101OSM    H7S10184   2.822   1.086   9.953  0.1918  0.3475 -0.3785
  101OSM    H7T10185   2.985   0.995   9.953  1.2236  0.3189  0.0434
  101OSM    C8S10186   2.968   1.162   9.812  0.0197 -0.1973 -0.5540
  101OSM    H8S10187   3.074   1.143   9.787  0.8347  2.5477  0.6260
  101OSM    H8T10188   2.944   1.269   9.832 -1.2759 -0.6238  0.2341
  101OSM    C9S10189   2.884   1.116   9.696  0.6371 -0.1054  0.0990
  101OSM    H9S10190   2.782   1.127   9.740  0.8385  4.0628 -0.2511
  101OSM    H9T10191   2.905   1.010   9.673  0.1492  0.3600 -2.5767
  101OSM   C10S10192   2.905   1.203   9.572 -0.7129 -0.0349 -0.5171
  101OSM   H10S10193   3.011   1.191   9.545 -0.3038  0.7275  0.6758
  101OSM   H10T10194   2.893   1.313   9.586 -3.0874 -0.2192 -0.9132
  101OSM   C11S10195   2.816   1.156   9.453 -0.4973 -0.7052 -0.9359
  101OSM   H11S10196   2.709   1.155   9.482  0.3207 -2.7555  2.3769
  101OSM   H11T10197   2.837   1.049   9.430 -0.2804 -0.6132 -1.1597
  101OSM   C12S10198   2.850   1.241   9.329  0.2676 -0.5596  0.0147
  101OSM   H12S10199   2.957   1.222   9.303  0.0806  1.9354 -2.8237
  101OSM   H12T10200   2.824   1.347   9.347  2.5449 -0.1462  1.1234
  101OSM   C13S10201   2.761   1.199   9.209  0.2172  0.2828 -0.6549
  101OSM   H13S10202   2.653   1.201   9.238  0.5777 -0.3349  0.8315
  101OSM   H13T10203   2.773   1.092   9.181 -0.7616  0.0181 -0.1013
  101OSM   C14S10204   2.798   1.282   9.076  0.8234  0.2607 -0.3700
  101OSM   H14S10205   2.909   1.286   9.065  0.5300  1.0438 -3.9084
  101OSM   H14T10206   2.758   1.383   9.100 -1.0413 -0.2619 -1.2327
  101OSM   C15S10207   2.734   1.229   8.951  0.2147  0.2234 -0.6012
  101OSM   H15S10208   2.632   1.197   8.981 -0.3968  1.1088 -1.6859
  101OSM   H15T10209   2.786   1.140   8.909 -0.8020 -1.1430  0.9676
  101OSM   C16S10210   2.724   1.332   8.847  0.4918 -0.3372  0.4195
  101OSM   H16S10211   2.828   1.357   8.816  1.0048 -0.2531  2.1457
  101OSM   H16T10212   2.676   1.424   8.886  1.3876  1.0243 -1.6060
  101OSM   C17S10213   2.653   1.299   8.716 -0.3691  0.1783  0.2053
  101OSM   H17S10214   2.705   1.217   8.663 -0.7632  0.3684 -0.4762
  101OSM   H17T10215   2.641   1.387   8.649 -1.9699  2.6885  3.6328
  101OSM   C18S10216   2.508   1.243   8.737 -0.2983 -0.4464 -0.2241
  101OSM   H18S10217   2.471   1.220   8.635  2.2931  1.0803 -1.5685
  101OSM   H18T10218   2.443   1.315   8.791 -0.8679  0.1339 -1.6518
  101OSM   H18U10219   2.513   1.149   8.797  0.8466 -0.5242 -0.4207
  101OSM    C1F10220   2.556   1.071  10.401 -0.1131 -0.5884 -0.8001
  101OSM     OF10221   2.581   1.186  10.432  0.1480 -0.1959  0.1105
  101OSM    C2F10222   2.413   1.029  10.403 -0.5383 -0.2025  0.4123
  101OSM    H2F10223   2.365   1.044  10.502 -0.5153 -0.1552  0.4170
  101OSM    H2G10224   2.407   0.921  10.377  0.4452 -0.0200 -0.6261
  101OSM    C3F10225   2.346   1.122  10.297  0.0272  0.4983 -0.1730
  101OSM    H3F10226   2.350   1.223  10.342  0.9434 -0.0116  0.9254
  101OSM    H3G10227   2.236   1.109  10.307 -0.1645  1.4783 -0.9387
  101OSM    C4F10228   2.392   1.123  10.153  0.7349 -0.0778 -0.2379
  101OSM    H4F10229   2.402   1.015  10.129  1.8953  0.1770 -0.9071
  101OSM    H4G10230   2.484   1.184  10.145  0.5561  0.0352 -1.6049
  101OSM    C5F10231   2.286   1.187  10.057 -0.1801  0.1277  0.2019
  101OSM    H5F10232   2.281   1.293  10.089  0.8614  0.5256 -0.9060
  101OSM    H5G10233   2.186   1.141  10.073 -0.1201 -0.6625 -1.6003
  101OSM    C6F10234   2.334   1.166   9.918 -0.7230 -0.0196 -0.2270
  101OSM    H6F10235   2.256   1.207   9.849 -2.0522  1.4363  2.0659
  101OSM    H6G10236   2.353   1.058   9.902 -1.4959 -0.3921  1.2769
  101OSM    C7F10237   2.461   1.243   9.892 -1.8184 -0.0766  0.1552
  101OSM    H7F10238   2.549   1.195   9.940  1.3795  2.5155 -2.8435
  101OSM    H7G10239   2.456   1.337   9.951  0.9549 -1.0427  2.0425
  101OSM    C8F10240   2.511   1.251   9.747 -0.1958  0.0839 -0.6531
  101OSM    H8F10241   2.508   1.146   9.712  0.2083 -0.3810  0.6539
  101OSM    H8G10242   2.620   1.273   9.749 -0.1254 -0.3673  1.3569
  101OSM    C9F10243   2.445   1.355   9.658  0.8887  0.4975  0.1721
  101OSM    H9F10244   2.472   1.461   9.671  0.0062  0.7257  0.2068
  101OSM   C10F10245   2.343   1.324   9.572 -0.5021  0.0473  0.1863
  101OSM   H10F10246   2.295   1.412   9.528 -2.0464 -0.6347  0.4931
  101OSM   C11F10247   2.275   1.204   9.530 -0.0740  0.4172  0.5490
  101OSM   H11F10248   2.169   1.205   9.563 -0.0085 -1.4322  0.8914
  101OSM   H11G10249   2.326   1.118   9.579 -0.5933 -1.0953 -1.5127
  101OSM   C12F10250   2.298   1.188   9.377  0.5794 -0.2354 -0.4912
  101OSM   H12F10251   2.277   1.080   9.359 -1.3457 -0.6034  3.3768
  101OSM   H12G10252   2.403   1.204   9.345 -0.1647  1.2736 -2.2792
  101OSM   C13F10253   2.195   1.286   9.310 -0.0268 -0.1292 -0.1889
  101OSM   H13F10254   2.177   1.384   9.361 -0.5841 -0.2535 -0.1435
  101OSM   H13G10255   2.104   1.223   9.319 -1.2983  1.4489 -1.5497
  101OSM   C14F10256   2.235   1.331   9.169 -0.4308  0.4060  0.4068
  101OSM   H14F10257   2.144   1.380   9.127 -0.1506 -1.0644 -2.0213
  101OSM   H14G10258   2.249   1.244   9.100 -2.4025  0.7478 -0.4493
  101OSM   C15F10259   2.343   1.439   9.153  0.1998  0.2538  0.2268
  101OSM   H15F10260   2.442   1.398   9.182  0.6635  1.6826  0.6993
  101OSM   H15G10261   2.327   1.526   9.220  0.0412 -1.3406  2.2988
  101OSM   C16F10262   2.350   1.494   9.010  0.1856 -0.0595 -0.4443
  101OSM   H16F10263   2.256   1.550   8.990  0.0802 -0.5233 -1.3037
  101OSM   H16G10264   2.347   1.405   8.943 -1.0572 -0.0257 -0.4533
  101OSM   C17F10265   2.468   1.587   8.983  0.5512  0.3157 -0.6131
  101OSM   H17F10266   2.470   1.602   8.873 -0.6726 -1.3113 -0.8772
  101OSM   H17G10267   2.558   1.530   9.014 -0.9298 -2.6037 -1.4805
  101OSM   C18F10268   2.444   1.735   9.039  0.9356  0.5320  0.6336
  101OSM   H18F10269   2.543   1.775   9.071  0.5438  0.5827  1.7772
  101OSM   H18G10270   2.375   1.726   9.125  1.8139 -1.9247  1.1015
  101OSM   H18H10271   2.410   1.808   8.962 -0.9589  0.5704  1.4970
  102OSM      N10272   1.450   0.395  10.906  0.4146  0.1809  0.0389
  102OSM    C1510273   1.580   0.402  10.980  0.1040 -0.3091  0.1014
  102OSM   H15A10274   1.658   0.348  10.929  0.7285  1.0203 -0.3574
  102OSM   H15B10275   1.546   0.354  11.071  2.5057 -1.0238  0.6674
  102OSM   H15C10276   1.605   0.506  10.993 -0.4949 -0.3376  1.5897
  102OSM    C1410277   1.397   0.251  10.906  0.2122 -0.3429  0.9079
  102OSM   H14A10278   1.307   0.245  10.847  1.4150  0.3157 -1.0495
  102OSM   H14B10279   1.368   0.216  11.003  0.8806 -0.8462  0.9306
  102OSM   H14C10280   1.469   0.182  10.864  0.3640  0.6073 -0.4366
  102OSM    C1310281   1.349   0.473  10.983 -0.5251 -0.2650 -0.0590
  102OSM   H13A10282   1.255   0.473  10.928 -0.5949  0.0579  0.0548
  102OSM   H13B10283   1.370   0.579  10.990  0.2163 -0.5505  2.4823
  102OSM   H13C10284   1.321   0.431  11.078  0.0370  0.3371  0.3702
  102OSM    C1210285   1.462   0.446  10.760 -0.2868  0.2128  0.1635
  102OSM   H12A10286   1.368   0.442  10.706  1.3148 -0.8150 -2.6445
  102OSM   H12B10287   1.536   0.390  10.705 -0.6549 -1.3986  1.2959
  102OSM    C1110288   1.522   0.588  10.751 -0.3631  0.0054 -0.3789
  102OSM   H11A10289   1.445   0.652  10.800  0.1763  0.7429 -0.4874
  102OSM   H11B10290   1.527   0.616  10.644  1.8023  1.0813 -0.0194
  102OSM      P10291   1.783   0.546  10.732 -0.1866  0.0388  0.1822
  102OSM    O1310292   1.891   0.637  10.781 -0.1637  0.1871  0.0766
  102OSM    O1410293   1.804   0.399  10.745  0.5184  0.3168  0.2295
  102OSM    O1110294   1.752   0.580  10.581  0.2293 -0.0119  0.6120
  102OSM    O1210295   1.647   0.598  10.810  0.4380  0.2689 -0.4238
  102OSM    C1S10296   1.772   0.708  10.525  0.5893 -0.5737  0.3995
  102OSM    H1S10297   1.853   0.766  10.575  0.8807 -1.2297  0.6841
  102OSM    H1T10298   1.681   0.770  10.545  0.9331  0.1550 -0.2719
  102OSM     NF10299   1.806   0.844  10.317 -0.2753  0.1137 -0.4744
  102OSM    HNF10300   1.737   0.878  10.253 -0.4278  1.9407  0.6532
  102OSM    C2S10301   1.802   0.701  10.368  0.6034 -0.2932  0.0227
  102OSM    H2S10302   1.903   0.653  10.367 -0.0180 -1.6656  1.2501
  102OSM    C3S10303   1.703   0.598  10.295 -0.3155 -0.4663 -0.8241
  102OSM    H3S10304   1.600   0.626  10.325 -0.4420 -0.3585 -1.3441
  102OSM     O310305   1.721   0.464  10.340  0.0780 -0.1817  0.0399
  102OSM    HO310306   1.790   0.473  10.406  1.0522  0.6286 -1.0556
  102OSM    C4S10307   1.707   0.601  10.143  0.1927  0.4334 -0.3520
  102OSM    H4S10308   1.792   0.540  10.108 -0.5216 -0.9193  0.2221
  102OSM    C5S10309   1.624   0.648  10.050 -0.3161  0.6216  0.1757
  102OSM    H5S10310   1.534   0.708  10.071 -2.8815 -3.4927  1.4374
  102OSM    C6S10311   1.636   0.638   9.904 -0.3302 -0.1316  0.7419
  102OSM    H6S10312   1.661   0.737   9.861 -0.2761 -0.1308  0.7743
  102OSM    H6T10313   1.538   0.609   9.862 -0.6734  0.5750  1.0512
  102OSM    C7S10314   1.737   0.542   9.850 -0.4782 -0.1213 -0.1146
  102OSM    H7S10315   1.702   0.437   9.863  2.6562 -1.3714 -1.3181
  102OSM    H7T10316   1.838   0.555   9.894 -0.9357  0.3569  0.8046
  102OSM    C8S10317   1.757   0.557   9.700 -0.5758 -0.4211 -0.0161
  102OSM    H8S10318   1.853   0.513   9.665 -0.7262 -0.6291 -0.1696
  102OSM    H8T10319   1.764   0.666   9.683 -0.4460 -0.5563 -0.8495
  102OSM    C9S10320   1.646   0.512   9.604  0.4543 -0.0073  0.6195
  102OSM    H9S10321   1.562   0.581   9.628  0.7813  0.4828  0.3829
  102OSM    H9T10322   1.607   0.413   9.632  1.6183 -1.4233 -2.4823
  102OSM   C10S10323   1.694   0.502   9.459 -0.5487 -0.1022  0.1751
  102OSM   H10S10324   1.794   0.453   9.457  1.4292  3.5536  2.3479
  102OSM   H10T10325   1.711   0.608   9.429 -0.8116 -0.1819 -0.2550
  102OSM   C11S10326   1.587   0.447   9.371  0.3581  0.3251 -0.1682
  102OSM   H11S10327   1.498   0.508   9.399 -1.8401 -2.7296 -0.2570
  102OSM   H11T10328   1.568   0.342   9.401 -2.1493  0.8968  0.4620
  102OSM   C12S10329   1.620   0.462   9.222  0.3879  0.0699  0.9095
  102OSM   H12S10330   1.544   0.406   9.162 -1.0023  0.4742  2.2545
  102OSM   H12T10331   1.716   0.416   9.192  0.3076  0.3790  0.1539
  102OSM   C13S10332   1.618   0.610   9.182 -0.3732 -0.4536  0.1209
  102OSM   H13S10333   1.678   0.676   9.249 -2.9270  2.6044 -0.4903
  102OSM   H13T10334   1.515   0.649   9.195 -0.8016 -1.0120 -1.4339
  102OSM   C14S10335   1.679   0.629   9.044  0.3149 -0.2416 -0.8328
  102OSM   H14S10336   1.619   0.571   8.971  0.2137  1.2133 -1.9487
  102OSM   H14T10337   1.784   0.592   9.049  0.5492  0.4181 -0.7906
  102OSM   C15S10338   1.675   0.779   9.015 -0.2380  0.3772  0.6641
  102OSM   H15S10339   1.764   0.815   9.070 -0.1089  1.6520 -0.3594
  102OSM   H15T10340   1.588   0.841   9.047 -0.1273  0.1623  1.3850
  102OSM   C16S10341   1.696   0.805   8.864  0.0496 -0.6419  0.1969
  102OSM   H16S10342   1.712   0.914   8.849 -0.2714 -0.7678 -1.1350
  102OSM   H16T10343   1.606   0.760   8.816  0.9129 -3.0818  0.8129
  102OSM   C17S10344   1.820   0.734   8.799 -0.2100  0.2449  0.1008
  102OSM   H17S10345   1.811   0.623   8.803  0.3730  0.1143 -1.9756
  102OSM   H17T10346   1.908   0.765   8.859  0.4548 -2.0750  0.3679
  102OSM   C18S10347   1.848   0.755   8.645  0.3920  0.3658  1.0154
  102OSM   H18S10348   1.869   0.861   8.619  0.6809  0.2510  0.7781
  102OSM   H18T10349   1.764   0.721   8.580  0.1781 -0.0588  1.5125
  102OSM   H18U10350   1.936   0.696   8.612 -0.2445  0.2826 -0.6069
  102OSM    C1F10351   1.893   0.940  10.350  0.1765  0.2453  0.2639
  102OSM     OF10352   1.972   0.933  10.441  0.1792 -0.5241  0.7413
  102OSM    C2F10353   1.881   1.066  10.272 -0.2373 -0.3591 -0.5443
  102OSM    H2F10354   1.775   1.082  10.243  0.2466  1.1682 -1.5504
  102OSM    H2G10355   1.946   1.070  10.182 -1.0028 -0.0955 -1.0961
  102OSM    C3F10356   1.930   1.190  10.353  0.3199 -0.4988 -0.3253
  102OSM    H3F10357   2.038   1.209  10.336  0.4541 -0.1900  0.8595
  102OSM    H3G10358   1.923   1.184  10.464 -1.9337 -1.5739 -0.4947
  102OSM    C4F10359   1.862   1.326  10.326 -0.2621  1.1073 -0.3649
  102OSM    H4F10360   1.864   1.393  10.414 -1.3406 -0.9791  1.2847
  102OSM    H4G10361   1.752   1.320  10.316 -0.5294  1.0037  2.3815
  102OSM    C5F10362   1.906   1.410  10.204  0.5303  0.2155  0.1258
  102OSM    H5F10363   1.881   1.341  10.121  1.1336  0.9908 -0.7190
  102OSM    H5G10364   2.016   1.423  10.196  0.4857  0.2528 -0.4709
  102OSM    C6F10365   1.844   1.548  10.196  0.6301 -0.5271 -0.0187
  102OSM    H6F10366   1.912   1.618  10.145 -2.0951  2.5526  0.4169
  102OSM    H6G10367   1.835   1.582  10.301 -1.9003 -1.7274  0.1859
  102OSM    C7F10368   1.708   1.555  10.125  0.2341  0.0108  0.4145
  102OSM    H7F10369   1.639   1.487  10.180  0.3569 -0.6423 -0.2255
  102OSM    H7G10370   1.738   1.515  10.026  1.5290  1.5982  0.1603
  102OSM    C8F10371   1.636   1.690  10.113  0.1031 -0.2172  0.3478
  102OSM    H8F10372   1.712   1.750  10.058  1.0048  0.6342  2.4555
  102OSM    H8G10373   1.614   1.727  10.216  1.0041 -0.4455  0.6257
  102OSM    C9F10374   1.500   1.680  10.041  0.5973 -0.4737  0.3137
  102OSM    H9F10375   1.419   1.642  10.105  1.0223  0.7496  1.6195
  102OSM   C10F10376   1.473   1.705   9.911 -0.5364  0.7398 -0.2804
  102OSM   H10F10377   1.377   1.674   9.867 -0.3803 -1.6206  0.9232
  102OSM   C11F10378   1.576   1.755   9.804  0.4638 -0.5153  0.3626
  102OSM   H11F10379   1.678   1.737   9.846  0.0493  0.4354  1.8127
  102OSM   H11G10380   1.559   1.864   9.789 -0.8564 -0.8089 -0.2837
  102OSM   C12F10381   1.572   1.670   9.677 -0.8324  0.7119 -0.2151
  102OSM   H12F10382   1.579   1.561   9.697 -1.6139  0.7440  0.2452
  102OSM   H12G10383   1.661   1.688   9.614 -0.2838 -0.3531  0.2556
  102OSM   C13F10384   1.449   1.705   9.600  0.8726 -0.3984  0.4721
  102OSM   H13F10385   1.449   1.807   9.556 -1.6796 -0.9330 -0.8843
  102OSM   H13G10386   1.356   1.691   9.660  0.5452  3.2379  0.9817
  102OSM   C14F10387   1.420   1.606   9.482  0.5006 -0.5903  0.3501
  102OSM   H14F10388   1.407   1.512   9.541 -1.7406  0.2208  1.2380
  102OSM   H14G10389   1.507   1.610   9.413  0.1165 -0.4223 -0.1280
  102OSM   C15F10390   1.287   1.637   9.403  0.4310 -0.1407  0.4727
  102OSM   H15F10391   1.305   1.734   9.352  0.0255 -0.7132 -0.7834
  102OSM   H15G10392   1.196   1.658   9.463 -1.9559 -0.9089 -2.7413
  102OSM   C16F10393   1.264   1.537   9.289 -0.3531 -0.1755 -0.0081
  102OSM   H16F10394   1.178   1.568   9.225 -1.0741 -0.6954  0.6839
  102OSM   H16G10395   1.258   1.436   9.334 -1.7043  1.1664  2.9619
  102OSM   C17F10396   1.384   1.540   9.187 -0.1979 -0.1587  0.5871
  102OSM   H17F10397   1.460   1.468   9.224  0.5078  0.6708  0.7615
  102OSM   H17G10398   1.440   1.635   9.193  1.2987 -1.0602  1.1265
  102OSM   C18F10399   1.342   1.512   9.040  0.2207 -0.2973  0.3249
  102OSM   H18F10400   1.256   1.571   9.003  3.7902  4.8859 -0.2817
  102OSM   H18G10401   1.317   1.406   9.020  0.3701 -0.2730  0.0062
  102OSM   H18H10402   1.425   1.525   8.967  0.1896 -2.4578 -0.1210
  103OSM      N10403   2.807   3.125  10.908  0.2030 -0.0105 -0.6855
  103OSM    C1510404   2.658   3.159  10.895 -0.2307 -0.4300 -0.6690
  103OSM   H15A10405   2.629   3.143  10.792  3.8042 -0.6590 -1.8297
  103OSM   H15B10406   2.637   3.262  10.918 -1.0104 -0.1329 -2.6214
  103OSM   H15C10407   2.604   3.093  10.962 -1.0949  0.7109 -0.2265
  103OSM    C1410408   2.825   2.973  10.914  0.6457  0.3868  0.1539
  103OSM   H14A10409   2.761   2.933  10.991  1.4600  1.7300  1.5709
  103OSM   H14B10410   2.927   2.939  10.922  0.3234 -0.2073  1.7566
  103OSM   H14C10411   2.783   2.928  10.825 -0.4762  1.9864 -0.1597
  103OSM    C1310412   2.891   3.180  10.802  0.5121 -1.2608 -0.0144
  103OSM   H13A10413   2.856   3.156  10.703 -1.7537  1.4621  0.0682
  103OSM   H13B10414   2.986   3.129  10.801  1.4336  0.2308  4.0264
  103OSM   H13C10415   2.909   3.286  10.810  1.0361 -1.2580 -1.1690
  103OSM    C1210416   2.864   3.172  11.043  0.1080 -0.7833 -0.4358
  103OSM   H12A10417   2.969   3.148  11.034  0.5955  1.6260 -1.5495
  103OSM   H12B10418   2.808   3.119  11.119  3.7688 -1.1084  2.1203
  103OSM    C1110419   2.882   3.321  11.075 -0.0020  0.3806  0.1084
  103OSM   H11A10420   2.909   3.337  11.182 -0.4996  1.8582  0.0276
  103OSM   H11B10421   2.784   3.373  11.070 -0.5755 -0.7245 -0.3186
  103OSM      P10422   3.007   3.525  10.971 -0.1794 -0.4952  0.2326
  103OSM    O1310423   2.898   3.609  11.013 -0.4141  0.0364 -0.1505
  103OSM    O1410424   3.135   3.541  11.052 -0.6259  0.7055  0.1191
  103OSM    O1110425   3.029   3.557  10.820  0.5445 -0.2929  0.0746
  103OSM    O1210426   2.968   3.373  10.977  0.7763 -0.4232  0.5414
  103OSM    C1S10427   2.913   3.574  10.737  0.1849  1.4496  0.8459
  103OSM    H1S10428   2.863   3.671  10.756 -2.0069  0.0083  2.6833
  103OSM    H1T10429   2.830   3.504  10.760 -0.4509  2.2986  1.1740
  103OSM     NF10430   2.844   3.619  10.504  0.2459  0.3279  0.5971
  103OSM    HNF10431   2.792   3.540  10.473 -0.1030 -0.1162  2.2994
  103OSM    C2S10432   2.959   3.579  10.588  0.9564  0.1575 -0.3520
  103OSM    H2S10433   3.032   3.662  10.586  1.8855 -0.6446 -0.3721
  103OSM    C3S10434   3.025   3.448  10.549 -0.9851  0.4079  0.0976
  103OSM    H3S10435   2.952   3.367  10.568  0.1317 -0.2241  1.7619
  103OSM     O310436   3.135   3.403  10.630  0.0052  0.4074 -0.1184
  103OSM    HO310437   3.125   3.461  10.706 -2.3889  0.2151 -0.2491
  103OSM    C4S10438   3.049   3.454  10.407 -0.2824  0.1734  0.0299
  103OSM    H4S10439   2.965   3.412  10.351  0.0634  1.6286 -1.6237
  103OSM    C5S10440   3.160   3.499  10.347 -0.5838 -0.2158 -0.0440
  103OSM    H5S10441   3.245   3.523  10.413 -1.2502  0.0786  0.7176
  103OSM    C6S10442   3.186   3.519  10.202  0.0059 -0.3349  0.3473
  103OSM    H6S10443   3.224   3.424  10.159 -1.5810 -0.6886 -0.2855
  103OSM    H6T10444   3.244   3.614  10.200  2.7102 -1.9721 -1.6658
  103OSM    C7S10445   3.062   3.548  10.116 -0.4844  0.5254  0.2815
  103OSM    H7S10446   3.005   3.632  10.160 -0.8593  1.1575 -1.4196
  103OSM    H7T10447   3.012   3.449  10.106 -0.7157  0.6487  0.2251
  103OSM    C8S10448   3.107   3.604   9.980 -0.1012 -0.3922 -0.0451
  103OSM    H8S10449   3.186   3.548   9.925  0.9796  1.9253 -0.9281
  103OSM    H8T10450   3.152   3.705   9.991 -1.4779  0.7966 -4.3420
  103OSM    C9S10451   2.979   3.614   9.885 -0.3135  0.0465 -1.9270
  103OSM    H9S10452   2.899   3.663   9.946  1.5969 -0.1114  0.7771
  103OSM    H9T10453   2.940   3.511   9.874  0.3881 -1.1822  4.9083
  103OSM   C10S10454   3.012   3.702   9.760  0.1199 -0.2328 -0.2679
  103OSM   H10S10455   3.085   3.653   9.693  0.5322  0.2372 -0.1675
  103OSM   H10T10456   3.048   3.804   9.786 -3.5147  1.1484 -0.3106
  103OSM   C11S10457   2.878   3.717   9.674 -0.1113  0.1965 -0.0100
  103OSM   H11S10458   2.793   3.755   9.735 -0.2288  1.8102 -1.1555
  103OSM   H11T10459   2.835   3.618   9.647  1.8264 -1.2628  2.0227
  103OSM   C12S10460   2.899   3.780   9.535  0.0877 -0.1202 -0.6342
  103OSM   H12S10461   2.980   3.724   9.482  1.6383  2.5296 -1.1388
  103OSM   H12T10462   2.945   3.880   9.551  0.6273 -0.5071  0.2908
  103OSM   C13S10463   2.768   3.781   9.458  0.5696  0.2060 -0.2525
  103OSM   H13S10464   2.686   3.843   9.500 -1.7325 -2.3962 -0.8024
  103OSM   H13T10465   2.730   3.677   9.450  2.5057 -0.5300 -0.1256
  103OSM   C14S10466   2.779   3.839   9.317  0.2605  0.0751  1.0814
  103OSM   H14S10467   2.853   3.775   9.266 -0.7761 -0.7539  0.6186
  103OSM   H14T10468   2.813   3.945   9.316 -2.4431  0.9807 -2.1893
  103OSM   C15S10469   2.650   3.837   9.222 -0.5053 -0.4891 -0.4454
  103OSM   H15S10470   2.574   3.906   9.264 -1.1181  0.2377 -2.6819
  103OSM   H15T10471   2.609   3.734   9.222 -1.8116  0.0174  0.3111
  103OSM   C16S10472   2.691   3.877   9.083 -0.6716  0.0890  0.1135
  103OSM   H16S10473   2.788   3.824   9.068 -1.9652 -2.1883 -0.4934
  103OSM   H16T10474   2.716   3.984   9.068 -2.4711  0.4738 -0.2470
  103OSM   C17S10475   2.603   3.831   8.965  0.0573 -0.1271 -0.3177
  103OSM   H17S10476   2.523   3.908   8.974 -0.1434 -0.2720 -0.8432
  103OSM   H17T10477   2.576   3.728   8.997  2.1160 -0.3393  0.7691
  103OSM   C18S10478   2.663   3.837   8.831  0.4717 -0.1066  0.4147
  103OSM   H18S10479   2.600   3.793   8.751  0.1997 -1.4973  1.3687
  103OSM   H18T10480   2.763   3.790   8.825 -0.1769 -1.1599 -3.1338
  103OSM   H18U10481   2.685   3.940   8.795 -0.4451 -0.7231 -1.9776
  103OSM    C1F10482   2.805   3.743  10.500 -0.6354  0.1559  0.2480
  103OSM     OF10483   2.872   3.831  10.548  0.0579 -0.1759  0.8801
  103OSM    C2F10484   2.679   3.775  10.431  0.6554 -0.1395 -0.2014
  103OSM    H2F10485   2.595   3.797  10.501 -0.0270 -2.2698 -0.2968
  103OSM    H2G10486   2.644   3.688  10.371  1.1310 -0.8923  0.5906
  103OSM    C3F10487   2.689   3.905  10.338 -0.3569  0.0471 -0.0237
  103OSM    H3F10488   2.733   3.998  10.380  0.8976 -1.3484  1.8652
  103OSM    H3G10489   2.586   3.936  10.311  0.1757  3.1741  1.3353
  103OSM    C4F10490   2.772   3.878  10.211  0.2834 -0.4308 -0.3181
  103OSM    H4F10491   2.733   3.800  10.142 -1.2965  1.1496 -1.2239
  103OSM    H4G10492   2.880   3.857  10.229  0.3425 -0.1936 -0.3982
  103OSM    C5F10493   2.768   4.008  10.125 -0.4170 -0.1753 -0.5000
  103OSM    H5F10494   2.842   4.078  10.170 -0.3466 -0.0835 -0.7605
  103OSM    H5G10495   2.666   4.052  10.122 -0.7943 -1.0705 -1.1765
  103OSM    C6F10496   2.804   3.983   9.980  0.0113 -0.1466 -0.5394
  103OSM    H6F10497   2.760   3.887   9.946  0.8053  0.1346 -2.4209
  103OSM    H6G10498   2.911   3.952   9.979 -0.5251 -2.0051 -1.4976
  103OSM    C7F10499   2.779   4.111   9.897  0.3832  0.3028 -0.4297
  103OSM    H7F10500   2.808   4.189   9.971  0.8191  0.0959 -0.3784
  103OSM    H7G10501   2.672   4.132   9.877  0.0489 -0.7446  0.2324
  103OSM    C8F10502   2.847   4.117   9.759  0.2629  0.5687  0.7119
  103OSM    H8F10503   2.788   4.068   9.680 -1.5529  0.8758  1.8455
  103OSM    H8G10504   2.941   4.058   9.757  0.0865  0.3400 -1.2800
  103OSM    C9F10505   2.860   4.264   9.731  0.8078  0.3852 -0.5934
  103OSM    H9F10506   2.939   4.309   9.792  1.2335 -1.8800  0.5882
  103OSM   C10F10507   2.791   4.340   9.643  0.0257 -1.1917  1.1251
  103OSM   H10F10508   2.827   4.443   9.634 -1.6160 -0.7778 -1.0273
  103OSM   C11F10509   2.686   4.291   9.549  0.3845  0.2490  0.3900
  103OSM   H11F10510   2.590   4.347   9.558 -0.0992 -0.0632 -2.4729
  103OSM   H11G10511   2.658   4.187   9.579  3.5799 -0.9121 -0.5007
  103OSM   C12F10512   2.720   4.279   9.398  0.4010 -0.7482 -0.8288
  103OSM   H12F10513   2.645   4.210   9.354 -0.6479 -0.6666  0.7866
  103OSM   H12G10514   2.810   4.216   9.384  0.5449 -0.3878 -1.5086
  103OSM   C13F10515   2.719   4.413   9.329 -0.3587 -0.1620 -0.2927
  103OSM   H13F10516   2.613   4.445   9.340 -0.3605 -0.7135  1.4776
  103OSM   H13G10517   2.784   4.484   9.385 -1.1895  0.8862 -0.6361
  103OSM   C14F10518   2.764   4.388   9.187  0.7646 -0.0246  0.6587
  103OSM   H14F10519   2.693   4.320   9.135 -0.4456  1.5403  0.2175
  103OSM   H14G10520   2.870   4.356   9.195  0.4760 -1.7574 -1.8218
  103OSM   C15F10521   2.768   4.528   9.124 -0.2363 -0.5558 -0.3107
  103OSM   H15F10522   2.840   4.595   9.176 -2.5966  0.9296  1.1675
  103OSM   H15G10523   2.670   4.582   9.130  0.7883  1.3169  0.0181
  103OSM   C16F10524   2.813   4.516   8.974 -0.3765  0.0676 -0.0315
  103OSM   H16F10525   2.751   4.444   8.916  1.7817 -1.6033 -0.2897
  103OSM   H16G10526   2.912   4.467   8.967 -0.3869 -0.3006  2.0906
  103OSM   C17F10527   2.802   4.645   8.898 -1.6598  0.0268 -0.2923
  103OSM   H17F10528   2.868   4.711   8.958  0.0993 -1.2090 -0.8232
  103OSM   H17G10529   2.694   4.669   8.901 -1.2498  2.1096 -0.9941
  103OSM   C18F10530   2.849   4.637   8.753 -1.2959  0.2686  0.1499
  103OSM   H18F10531   2.822   4.728   8.695  0.6687  0.4959 -0.4409
  103OSM   H18G10532   2.803   4.553   8.697 -1.3933  0.5519 -0.2030
  103OSM   H18H10533   2.959   4.641   8.742 -1.4336  0.8456 -1.1729
  104OSM      N10534   0.560   2.611  10.868  0.4877 -1.1987 -0.6197
  104OSM    C1510535   0.612   2.497  10.947  1.1085 -0.0380  0.1531
  104OSM   H15A10536   0.676   2.434  10.887  0.8078  0.7846 -1.0561
  104OSM   H15B10537   0.534   2.453  11.008 -0.0321  2.1371  0.3284
  104OSM   H15C10538   0.681   2.536  11.020  0.6383 -0.1846  0.6842
  104OSM    C1410539   0.486   2.704  10.961 -0.4646  0.0445 -0.3697
  104OSM   H14A10540   0.541   2.729  11.051  2.3552  0.3191 -2.1073
  104OSM   H14B10541   0.393   2.652  10.979 -2.1225  1.8051 -3.4056
  104OSM   H14C10542   0.468   2.796  10.907  0.5234  0.4467 -0.0420
  104OSM    C1310543   0.674   2.681  10.801 -0.4849  0.2695 -0.1390
  104OSM   H13A10544   0.744   2.726  10.870 -1.3726 -1.0764  1.6796
  104OSM   H13B10545   0.640   2.742  10.718  1.5552 -0.8889 -1.8800
  104OSM   H13C10546   0.738   2.608  10.754 -0.9324  0.1718 -0.6018
  104OSM    C1210547   0.461   2.546  10.771  0.3373 -0.1463  0.1477
  104OSM   H12A10548   0.389   2.482  10.820 -1.4916  1.0669 -0.8876
  104OSM   H12B10549   0.534   2.490  10.715  0.3333 -1.4195  1.4161
  104OSM    C1110550   0.377   2.637  10.680  0.6850  0.2913 -0.8014
  104OSM   H11A10551   0.332   2.575  10.599  0.9767 -1.0901  0.0794
  104OSM   H11B10552   0.440   2.719  10.638  2.3875 -1.7425 -2.3109
  104OSM      P10553   0.120   2.664  10.732 -0.0737  0.1540  0.0981
  104OSM    O1310554   0.102   2.520  10.767 -0.1396 -0.1413 -0.0162
  104OSM    O1410555   0.035   2.756  10.803  0.6737  0.2813 -0.2788
  104OSM    O1110556   0.104   2.671  10.575  0.4087 -0.6908  0.2950
  104OSM    O1210557   0.271   2.707  10.755  0.1210  0.7266 -0.0895
  104OSM    C1S10558   0.132   2.797  10.515  0.1587  0.4916  0.2318
  104OSM    H1S10559   0.208   2.854  10.573  1.2890  0.7235 -1.4321
  104OSM    H1T10560   0.041   2.860  10.511 -1.0258 -1.0566  2.1721
  104OSM     NF10561   0.216   2.925  10.337 -0.3977  0.9986 -0.4049
  104OSM    HNF10562   0.148   2.983  10.293  1.6675  3.5583 -0.2705
  104OSM    C2S10563   0.192   2.789  10.378  0.0436  0.3737 -0.0540
  104OSM    H2S10564   0.288   2.734  10.386  0.0850 -0.0102 -2.7690
  104OSM    C3S10565   0.095   2.704  10.290 -0.5198 -0.2825  0.4950
  104OSM    H3S10566  -0.003   2.757  10.283 -0.0055  0.7075  0.6408
  104OSM     O310567   0.080   2.575  10.336 -0.1828  0.1854 -1.0140
  104OSM    HO310568   0.128   2.586  10.419  0.2070 -1.4139 -1.0235
  104OSM    C4S10569   0.147   2.693  10.154  0.0897 -0.0163  0.1721
  104OSM    H4S10570   0.230   2.621  10.153 -1.0266 -1.3348  0.4762
  104OSM    C5S10571   0.105   2.761  10.046  0.1272 -0.5637 -0.2195
  104OSM    H5S10572   0.022   2.832  10.056 -0.5079 -0.6526 -4.0273
  104OSM    C6S10573   0.163   2.758   9.908  0.0452  0.0314  0.7402
  104OSM    H6S10574   0.184   2.862   9.876 -0.8094  0.3921  1.3582
  104OSM    H6T10575   0.086   2.718   9.839  0.3127  0.9360 -0.0993
  104OSM    C7S10576   0.286   2.668   9.900  0.4759  0.4547 -0.1708
  104OSM    H7S10577   0.260   2.561   9.914  1.5509  0.1445 -0.4896
  104OSM    H7T10578   0.367   2.693   9.972  1.1253  0.1220 -0.7780
  104OSM    C8S10579   0.346   2.685   9.761  0.8577 -0.2676  0.8448
  104OSM    H8S10580   0.452   2.651   9.766  0.2230 -2.0969  2.5380
  104OSM    H8T10581   0.358   2.792   9.736 -0.3243 -0.5349 -1.0327
  104OSM    C9S10582   0.258   2.602   9.653  0.1164 -0.3968  0.2152
  104OSM    H9S10583   0.172   2.665   9.621 -0.2983 -1.4262 -0.7090
  104OSM    H9T10584   0.221   2.506   9.694  0.6805 -1.5616 -1.9413
  104OSM   C10S10585   0.340   2.576   9.530  0.7505 -0.2103  0.4105
  104OSM   H10S10586   0.428   2.515   9.557  0.5801 -0.9030 -0.5659
  104OSM   H10T10587   0.376   2.672   9.488 -1.3311  0.0685 -0.8257
  104OSM   C11S10588   0.253   2.490   9.427 -0.2789 -0.0073 -0.7912
  104OSM   H11S10589   0.151   2.533   9.424 -0.0306  0.6067 -0.5673
  104OSM   H11T10590   0.248   2.388   9.470  0.4145  0.4592  0.4339
  104OSM   C12S10591   0.306   2.494   9.281 -0.7438  0.1418  0.8531
  104OSM   H12S10592   0.407   2.452   9.260 -0.7511  1.3241 -1.7295
  104OSM   H12T10593   0.315   2.599   9.246 -1.0464 -0.1864 -0.2147
  104OSM   C13S10594   0.194   2.429   9.193 -0.3885 -0.5200  0.1251
  104OSM   H13S10595   0.093   2.473   9.206  0.2987  1.3475 -0.5987
  104OSM   H13T10596   0.184   2.327   9.236  0.6318 -0.5106  0.3920
  104OSM   C14S10597   0.223   2.440   9.037 -0.2836  0.1651 -0.0211
  104OSM   H14S10598   0.158   2.374   8.976  2.2891 -2.6482  0.1787
  104OSM   H14T10599   0.326   2.399   9.034 -0.4631 -0.3867  1.2400
  104OSM   C15S10600   0.208   2.587   8.983  0.2742 -0.1740 -0.8267
  104OSM   H15S10601   0.288   2.623   8.914 -0.1042  1.8409 -0.2505
  104OSM   H15T10602   0.225   2.655   9.069  0.1395 -0.3612 -0.6538
  104OSM   C16S10603   0.071   2.622   8.925 -0.4454  0.1037  1.4805
  104OSM   H16S10604   0.050   2.730   8.940 -1.3366 -0.1013  1.7740
  104OSM   H16T10605  -0.006   2.583   8.995 -2.7709 -0.6772 -1.4198
  104OSM   C17S10606   0.062   2.582   8.778  0.4411 -0.3613  0.2890
  104OSM   H17S10607  -0.048   2.592   8.767  0.7391  2.0770 -0.8043
  104OSM   H17T10608   0.074   2.473   8.758  0.8864 -0.5551  1.5327
  104OSM   C18S10609   0.139   2.669   8.685  0.4574  0.4255 -0.0909
  104OSM   H18S10610   0.100   2.638   8.586 -0.5518 -0.6548  0.6311
  104OSM   H18T10611   0.247   2.645   8.693  0.5391  0.2013 -1.6017
  104OSM   H18U10612   0.115   2.773   8.716  0.4384  0.3332  0.2080
  104OSM    C1F10613   0.327   2.990  10.373 -0.1186  1.0013  0.9989
  104OSM     OF10614   0.423   2.937  10.435  0.1742  0.0272  0.3362
  104OSM    C2F10615   0.326   3.139  10.357 -0.4978  0.3784 -0.1819
  104OSM    H2F10616   0.431   3.177  10.363 -0.6744  1.1740 -2.1047
  104OSM    H2G10617   0.263   3.172  10.443 -1.9382 -2.4554 -0.0883
  104OSM    C3F10618   0.255   3.190  10.229 -0.7643 -0.6906 -0.2625
  104OSM    H3F10619   0.242   3.299  10.247  1.0748 -0.1526 -1.9808
  104OSM    H3G10620   0.151   3.150  10.229 -0.1698 -2.3872  3.0345
  104OSM    C4F10621   0.322   3.161  10.094 -0.2169  0.4664 -0.0900
  104OSM    H4F10622   0.345   3.054  10.080  0.9538  0.8374 -1.0196
  104OSM    H4G10623   0.417   3.219  10.090  1.9468 -3.0201 -1.2626
  104OSM    C5F10624   0.237   3.217   9.976  0.3723  0.0866 -0.2664
  104OSM    H5F10625   0.188   3.312  10.006 -0.4622 -1.0886  2.2432
  104OSM    H5G10626   0.145   3.155   9.970  1.5379 -1.6028 -1.2441
  104OSM    C6F10627   0.313   3.232   9.844  0.3616  0.5741 -1.1635
  104OSM    H6F10628   0.422   3.256   9.845  0.5582 -0.3375  0.6525
  104OSM    H6G10629   0.257   3.317   9.799 -0.4619  0.2612 -0.7306
  104OSM    C7F10630   0.295   3.101   9.759  0.0105  0.2928  0.6836
  104OSM    H7F10631   0.187   3.077   9.766 -0.8151  2.9335 -1.9357
  104OSM    H7G10632   0.356   3.023   9.810 -2.0539 -1.5834  0.3275
  104OSM    C8F10633   0.323   3.123   9.615  0.2838  0.1670 -0.6627
  104OSM    H8F10634   0.429   3.158   9.610  1.2265 -2.3514  0.9393
  104OSM    H8G10635   0.258   3.210   9.590  2.4080  1.8178 -0.6081
  104OSM    C9F10636   0.313   3.004   9.519 -0.7324 -0.2368  0.1212
  104OSM    H9F10637   0.311   2.906   9.571  1.6178  0.2039  1.1023
  104OSM   C10F10638   0.294   3.008   9.384  0.1006 -0.6515 -0.5386
  104OSM   H10F10639   0.276   2.914   9.330 -1.8156 -1.1108  0.8337
  104OSM   C11F10640   0.297   3.124   9.294 -0.0292  0.3140  0.5346
  104OSM   H11F10641   0.365   3.110   9.207  0.1178  2.3209  0.2967
  104OSM   H11G10642   0.333   3.209   9.355  1.9903 -1.6534  2.2027
  104OSM   C12F10643   0.165   3.161   9.230 -0.2976  0.2659 -0.2809
  104OSM   H12F10644   0.183   3.248   9.163  0.9188 -0.6284 -1.1351
  104OSM   H12G10645   0.090   3.192   9.306 -1.6452 -0.3033 -1.3455
  104OSM   C13F10646   0.113   3.052   9.148  0.0499  0.7318 -0.4837
  104OSM   H13F10647   0.070   2.970   9.210  1.3968  0.3652 -0.0258
  104OSM   H13G10648   0.201   3.013   9.093  2.1214  2.3057  1.6261
  104OSM   C14F10649   0.011   3.094   9.037 -0.1465  0.7068 -0.2835
  104OSM   H14F10650  -0.068   3.150   9.092  1.0612  2.6055 -0.4725
  104OSM   H14G10651  -0.035   3.001   8.996 -0.1194 -0.4904  2.2603
  104OSM   C15F10652   0.073   3.190   8.933  0.2290 -0.1653  0.2143
  104OSM   H15F10653   0.166   3.139   8.900  0.5982  0.8669 -0.3644
  104OSM   H15G10654   0.098   3.285   8.985  0.2531 -0.1405  0.1581
  104OSM   C16F10655  -0.034   3.216   8.822  1.4069 -0.8747 -0.1255
  104OSM   H16F10656  -0.122   3.253   8.880 -0.7011 -1.2502 -2.9534
  104OSM   H16G10657  -0.072   3.129   8.763  1.5800 -1.1465  0.1606
  104OSM   C17F10658   0.011   3.330   8.722  0.8736  1.3890 -0.5852
  104OSM   H17F10659   0.049   3.408   8.791 -1.2397  1.1606  0.9097
  104OSM   H17G10660  -0.076   3.380   8.674  1.1164  0.5541 -1.9066
  104OSM   C18F10661   0.104   3.284   8.615 -0.3412  0.2096 -0.5182
  104OSM   H18F10662   0.196   3.238   8.658  1.3783  2.0133 -2.0979
  104OSM   H18G10663   0.137   3.363   8.544  1.9110 -1.1872 -1.1041
  104OSM   H18H10664   0.047   3.213   8.551 -0.5410 -0.7742  0.7477
  105OSM      N10665   6.161   2.545  10.542 -0.5437  0.5566 -0.2610
  105OSM    C1510666   6.254   2.524  10.436  0.7120 -0.6550  0.2476
  105OSM   H15A10667   6.311   2.613  10.414 -0.4817  0.4683  1.5521
  105OSM   H15B10668   6.208   2.485  10.346 -1.2619  1.5393  0.2444
  105OSM   H15C10669   6.324   2.448  10.468  0.4806 -0.3724  1.4478
  105OSM    C1410670   6.217   2.638  10.644 -0.5124  0.0648  0.1768
  105OSM   H14A10671   6.243   2.728  10.591 -1.1665  0.9312  1.3051
  105OSM   H14B10672   6.310   2.607  10.689 -0.3264 -0.4269 -0.5389
  105OSM   H14C10673   6.150   2.662  10.726 -0.1819  0.8356  0.2218
  105OSM    C1310674   6.044   2.611  10.478 -0.1661 -0.1818 -0.1024
  105OSM   H13A10675   6.001   2.547  10.402  0.0381 -0.9371  0.4053
  105OSM   H13B10676   6.072   2.701  10.426 -1.6634  0.5825  0.4043
  105OSM   H13C10677   5.974   2.638  10.556  1.6864 -2.1317  2.3173
  105OSM    C1210678   6.127   2.411  10.601 -0.4110  0.4706 -0.2494
  105OSM   H12A10679   6.059   2.371  10.527 -0.1529 -0.2349 -0.1037
  105OSM   H12B10680   6.069   2.426  10.691  0.8613 -3.5667  1.3525
  105OSM    C1110681   6.237   2.306  10.630 -0.6093  0.5805 -0.7669
  105OSM   H11A10682   6.291   2.281  10.536  0.0997  0.6306 -0.3798
  105OSM   H11B10683   6.188   2.210  10.658 -0.8109  1.4639  2.0457
  105OSM      P10684   6.470   2.373  10.732  0.5147 -0.1913  0.1474
  105OSM    O1310685   6.504   2.516  10.733  0.5158  0.4261  0.1336
  105OSM    O1410686   6.526   2.304  10.847  0.0278  0.1087  0.0774
  105OSM    O1110687   6.523   2.304  10.595 -0.7972 -0.2370  0.5038
  105OSM    O1210688   6.316   2.349  10.736  0.4152 -0.0941 -0.0332
  105OSM    C1S10689   6.667   2.318  10.570  0.3572 -0.0973 -0.8228
  105OSM    H1S10690   6.723   2.251  10.639 -1.0784  1.1912  1.6851
  105OSM    H1T10691   6.690   2.427  10.577 -3.0962  0.6759 -0.5576
  105OSM     NF10692   6.833   2.287  10.398 -0.1761  0.1050 -0.0342
  105OSM    HNF10693   6.856   2.367  10.343 -0.3799 -0.6129 -1.1632
  105OSM    C2S10694   6.693   2.272  10.428 -0.0350 -0.0233 -0.2748
  105OSM    H2S10695   6.673   2.163  10.416 -2.9420  0.1788  2.0590
  105OSM    C3S10696   6.602   2.346  10.317  1.0528 -0.2454 -0.1255
  105OSM    H3S10697   6.603   2.455  10.337 -0.8867 -0.5298  1.7374
  105OSM     O310698   6.468   2.320  10.349  0.4430 -0.1476 -0.1369
  105OSM    HO310699   6.478   2.276  10.434  1.1835 -1.5178 -0.9131
  105OSM    C4S10700   6.642   2.305  10.176 -0.4965 -0.1831 -0.5178
  105OSM    H4S10701   6.589   2.222  10.127  1.6004 -1.1822 -1.1184
  105OSM    C5S10702   6.723   2.365  10.096 -1.1405  0.0705  0.5583
  105OSM    H5S10703   6.754   2.468  10.121 -0.8663 -0.3709  2.0993
  105OSM    C6S10704   6.765   2.331   9.957 -0.0306  0.4646  0.1757
  105OSM    H6S10705   6.872   2.302   9.970 -0.1296  0.0782  0.1369
  105OSM    H6T10706   6.782   2.419   9.893  1.3162  0.6359  0.7499
  105OSM    C7S10707   6.683   2.218   9.879  0.5299  0.3712 -0.0422
  105OSM    H7S10708   6.575   2.246   9.879  0.5356  0.4067 -1.2650
  105OSM    H7T10709   6.695   2.124   9.938  1.8365  2.0926  2.5421
  105OSM    C8S10710   6.730   2.178   9.737 -0.7385 -0.2118 -0.5339
  105OSM    H8S10711   6.693   2.076   9.712  1.9242 -1.5529  0.7793
  105OSM    H8T10712   6.840   2.178   9.723 -0.4309 -2.2246  1.6455
  105OSM    C9S10713   6.659   2.256   9.617 -1.0693 -0.3205 -1.0437
  105OSM    H9S10714   6.689   2.359   9.646  0.8339 -2.1997  4.3027
  105OSM    H9T10715   6.549   2.237   9.618 -1.0061 -0.6932 -1.1323
  105OSM   C10S10716   6.700   2.210   9.476 -0.0293 -0.1161  0.4066
  105OSM   H10S10717   6.681   2.101   9.481 -2.2170  0.1582 -0.9262
  105OSM   H10T10718   6.808   2.230   9.462  0.1577  0.5404  2.6293
  105OSM   C11S10719   6.625   2.274   9.359  0.2736 -0.5700  0.1823
  105OSM   H11S10720   6.650   2.382   9.347  0.6804 -0.5809  0.9362
  105OSM   H11T10721   6.515   2.260   9.366  0.4361 -2.0890 -0.0631
  105OSM   C12S10722   6.661   2.208   9.219  0.2684  0.2313 -0.1195
  105OSM   H12S10723   6.652   2.098   9.229 -1.3206  0.4443  1.0120
  105OSM   H12T10724   6.770   2.224   9.202  0.6403 -0.5503  1.4303
  105OSM   C13S10725   6.579   2.263   9.106  0.0869 -0.1945  0.7632
  105OSM   H13S10726   6.602   2.372   9.100  2.0145 -0.6210 -0.1759
  105OSM   H13T10727   6.470   2.246   9.117 -0.4877 -0.8081 -4.3743
  105OSM   C14S10728   6.608   2.215   8.961  0.1309 -0.4856 -0.2108
  105OSM   H14S10729   6.562   2.115   8.947 -2.5664  0.8420 -1.1251
  105OSM   H14T10730   6.718   2.201   8.966  0.2155  0.7720  3.4597
  105OSM   C15S10731   6.560   2.319   8.862  0.1109 -0.4007  0.4442
  105OSM   H15S10732   6.619   2.410   8.885  1.8431 -0.5308 -3.0463
  105OSM   H15T10733   6.451   2.333   8.876 -0.1151  0.8334 -2.1202
  105OSM   C16S10734   6.592   2.272   8.721 -0.0905 -0.2815  0.2620
  105OSM   H16S10735   6.701   2.258   8.706 -0.2833 -1.2506 -0.3254
  105OSM   H16T10736   6.577   2.356   8.650  0.6984  0.5482  1.0716
  105OSM   C17S10737   6.515   2.139   8.679 -0.0269 -0.3480 -0.5518
  105OSM   H17S10738   6.415   2.126   8.725  1.8895 -2.4790  3.3105
  105OSM   H17T10739   6.573   2.056   8.727  1.1258  1.0675  0.5488
  105OSM   C18S10740   6.514   2.127   8.529 -0.3245  0.8011 -0.3209
  105OSM   H18S10741   6.618   2.136   8.492  0.3747 -1.8411  0.8520
  105OSM   H18T10742   6.440   2.198   8.486  0.3665  1.7015 -0.0404
  105OSM   H18U10743   6.482   2.026   8.495  0.8078  0.3059  0.0344
  105OSM    C1F10744   6.929   2.223  10.448 -0.0630  0.0090 -0.3414
  105OSM     OF10745   6.919   2.129  10.529  0.0220  0.2418  0.0576
  105OSM    C2F10746   7.065   2.274  10.407  0.4264 -0.1348  0.7690
  105OSM    H2F10747   7.144   2.201  10.437  0.1775 -0.1978  1.2730
  105OSM    H2G10748   7.081   2.369  10.462  0.8221 -0.9610  2.1140
  105OSM    C3F10749   7.073   2.295  10.252  0.5868  0.6345 -0.1788
  105OSM    H3F10750   6.994   2.365  10.217 -0.3370 -0.3621 -0.1212
  105OSM    H3G10751   7.037   2.200  10.207  0.5852  0.5353  0.0338
  105OSM    C4F10752   7.202   2.349  10.209 -0.1827 -0.1287 -0.3903
  105OSM    H4F10753   7.293   2.311  10.259 -0.2404  1.5083  0.9930
  105OSM    H4G10754   7.201   2.457  10.235  0.1825 -0.0875 -0.5444
  105OSM    C5F10755   7.216   2.332  10.059 -0.0274  0.3384  0.4251
  105OSM    H5F10756   7.120   2.366  10.014 -0.7683 -0.7886  1.1325
  105OSM    H5G10757   7.221   2.221  10.056 -3.0608  0.1423  1.0370
  105OSM    C6F10758   7.332   2.413  10.007  0.0289 -0.3445 -0.5179
  105OSM    H6F10759   7.426   2.378  10.055  1.8091  2.5594 -1.7181
  105OSM    H6G10760   7.313   2.522  10.016  1.4235 -0.1601  0.3730
  105OSM    C7F10761   7.348   2.400   9.851 -0.6578 -0.0189 -0.3618
  105OSM    H7F10762   7.250   2.437   9.812 -1.6159 -0.0403  1.9547
  105OSM    H7G10763   7.353   2.293   9.821 -0.8097 -0.1759  0.1602
  105OSM    C8F10764   7.466   2.483   9.792  0.1726 -0.0321 -0.0731
  105OSM    H8F10765   7.472   2.572   9.858  2.0593  1.0815 -1.6669
  105OSM    H8G10766   7.439   2.520   9.691  0.6512  0.8132  0.1096
  105OSM    C9F10767   7.598   2.407   9.781 -0.2486 -0.7792  0.1321
  105OSM    H9F10768   7.662   2.430   9.867 -0.5703 -0.9553  0.4236
  105OSM   C10F10769   7.629   2.329   9.677  0.2040  0.0519 -0.0698
  105OSM   H10F10770   7.730   2.285   9.666  0.6466  0.6378  1.4470
  105OSM   C11F10771   7.534   2.291   9.559  0.2707  0.0472  0.4036
  105OSM   H11F10772   7.433   2.322   9.593  1.0963  2.3528  0.8235
  105OSM   H11G10773   7.540   2.185   9.527 -0.2917  0.9364 -2.8173
  105OSM   C12F10774   7.584   2.359   9.426 -0.4432 -0.4014 -0.5397
  105OSM   H12F10775   7.692   2.337   9.418 -0.9375 -2.5048 -1.8033
  105OSM   H12G10776   7.567   2.469   9.438  0.6689  0.1091 -3.2972
  105OSM   C13F10777   7.502   2.326   9.305 -0.1418 -0.6709  0.0539
  105OSM   H13F10778   7.399   2.363   9.318  0.4289  0.4281  1.5249
  105OSM   H13G10779   7.492   2.218   9.281 -0.9231 -0.0966 -2.3593
  105OSM   C14F10780   7.562   2.388   9.176 -0.3817  0.4050  0.3255
  105OSM   H14F10781   7.669   2.358   9.174 -0.2130  1.0379 -2.5547
  105OSM   H14G10782   7.552   2.498   9.178  2.7140  0.7185  1.2658
  105OSM   C15F10783   7.495   2.328   9.053 -0.5141  0.0675  0.2610
  105OSM   H15F10784   7.391   2.365   9.059 -0.7316 -0.6160  0.6898
  105OSM   H15G10785   7.485   2.218   9.067 -1.8384  0.0868 -0.4971
  105OSM   C16F10786   7.568   2.368   8.922  0.3140 -0.1489 -0.7752
  105OSM   H16F10787   7.673   2.335   8.934  0.3449 -0.6584 -2.3542
  105OSM   H16G10788   7.575   2.478   8.905  1.3558 -0.1846 -0.5718
  105OSM   C17F10789   7.506   2.293   8.803  0.3106  0.4521  0.2169
  105OSM   H17F10790   7.507   2.182   8.806  2.5473  0.4375 -0.3781
  105OSM   H17G10791   7.574   2.319   8.719  0.4876  0.8751  0.4886
  105OSM   C18F10792   7.360   2.340   8.783 -0.1781 -0.1788 -0.0611
  105OSM   H18F10793   7.365   2.447   8.753  0.9896 -0.1528  0.2064
  105OSM   H18G10794   7.303   2.329   8.877  1.6321 -0.4123  1.0357
  105OSM   H18H10795   7.311   2.277   8.705 -1.3519 -0.0043  0.5271
  106OSM      N10796   1.816   1.253  10.788 -0.0309  0.1134 -0.0576
  106OSM    C1510797   1.718   1.262  10.906 -0.3432 -0.0674 -0.5202
  106OSM   H15A10798   1.703   1.362  10.943  3.1383  1.2883 -2.4935
  106OSM   H15B10799   1.744   1.205  10.993 -2.7586  1.9538  1.5937
  106OSM   H15C10800   1.623   1.230  10.867 -0.9546  1.1637 -0.0704
  106OSM    C1410801   1.787   1.360  10.699 -0.2222  0.0614  0.0341
  106OSM   H14A10802   1.826   1.340  10.600 -0.0034  1.1944 -0.1174
  106OSM   H14B10803   1.832   1.452  10.737 -0.1710 -1.2262  3.2304
  106OSM   H14C10804   1.681   1.369  10.681 -0.3884 -0.1301  0.9026
  106OSM    C1310805   1.959   1.259  10.833 -0.6200 -0.4092 -0.2412
  106OSM   H13A10806   1.989   1.187  10.908  1.1159  1.1917  0.6635
  106OSM   H13B10807   1.976   1.356  10.876  0.2635 -1.2181  1.2913
  106OSM   H13C10808   2.022   1.254  10.745  2.0665  0.2931  1.5970
  106OSM    C1210809   1.798   1.121  10.713  0.4424 -0.2648  0.3238
  106OSM   H12A10810   1.780   1.045  10.788  1.3650 -0.1439  0.6769
  106OSM   H12B10811   1.890   1.094  10.663 -1.1788 -2.6713 -1.4501
  106OSM    C1110812   1.693   1.114  10.602  0.0736 -0.0681  0.5505
  106OSM   H11A10813   1.702   1.018  10.547 -3.8154 -0.4619  0.4854
  106OSM   H11B10814   1.699   1.196  10.527 -1.3916 -0.6242 -0.1868
  106OSM      P10815   1.494   0.992  10.725 -0.3790 -0.4859  0.1010
  106OSM    O1310816   1.586   0.909  10.800  0.1261  0.1289 -0.6557
  106OSM    O1410817   1.375   1.040  10.802  0.6494  0.1068  0.5344
  106OSM    O1110818   1.439   0.912  10.599 -0.2876  0.6177 -0.6228
  106OSM    O1210819   1.557   1.123  10.660 -0.5626 -0.8925  0.8753
  106OSM    C1S10820   1.408   0.971  10.474 -0.4010  0.0614  0.2390
  106OSM    H1S10821   1.489   1.036  10.436  0.2285 -0.1283  1.2374
  106OSM    H1T10822   1.335   1.054  10.490 -0.9044 -0.1035 -1.1630
  106OSM     NF10823   1.329   0.930  10.232  0.1155  0.1304  1.1263
  106OSM    HNF10824   1.235   0.930  10.201 -0.1404 -0.7727  1.8582
  106OSM    C2S10825   1.358   0.872  10.365  0.2863 -0.2592  0.4637
  106OSM    H2S10826   1.440   0.797  10.364  0.6171  0.0740 -1.7222
  106OSM    C3S10827   1.237   0.792  10.412 -0.5725  0.6794 -0.6931
  106OSM    H3S10828   1.145   0.854  10.405 -0.1043  1.2461 -2.0366
  106OSM     O310829   1.250   0.731  10.540  0.1214 -0.0542 -0.7720
  106OSM    HO310830   1.331   0.766  10.578 -0.6120 -1.1560  1.9230
  106OSM    C4S10831   1.213   0.680  10.317  0.4761 -0.4816  0.2122
  106OSM    H4S10832   1.137   0.711  10.244  0.3371  1.6759  1.2311
  106OSM    C5S10833   1.250   0.555  10.304  1.0321 -0.1064  0.1156
  106OSM    H5S10834   1.309   0.513  10.387  0.6677  0.4184  0.6468
  106OSM    C6S10835   1.204   0.462  10.196 -0.2187 -0.3134 -1.0623
  106OSM    H6S10836   1.140   0.503  10.114 -0.2353 -1.3612 -1.5885
  106OSM    H6T10837   1.143   0.382  10.242 -0.4428  1.1710  1.3127
  106OSM    C7S10838   1.328   0.410  10.118 -0.7402 -0.6700  0.1585
  106OSM    H7S10839   1.391   0.345  10.184 -3.2194  0.1729  3.5211
  106OSM    H7T10840   1.383   0.502  10.090  1.8291 -1.6139  1.9048
  106OSM    C8S10841   1.297   0.344   9.984 -0.2752  0.2983  0.5928
  106OSM    H8S10842   1.241   0.417   9.923  0.2370  1.3167  1.3225
  106OSM    H8T10843   1.239   0.251  10.006  0.4883 -0.4621 -0.5871
  106OSM    C9S10844   1.419   0.285   9.913 -0.3663  0.3932 -0.7751
  106OSM    H9S10845   1.475   0.214   9.979 -3.7862  0.4608  2.3685
  106OSM    H9T10846   1.488   0.367   9.883 -0.5903  2.1644  3.1602
  106OSM   C10S10847   1.379   0.206   9.789  0.0029 -0.0905  0.0546
  106OSM   H10S10848   1.304   0.136   9.831 -3.5251  3.3087 -0.2691
  106OSM   H10T10849   1.462   0.147   9.744  0.3668 -0.8407  1.6860
  106OSM   C11S10850   1.320   0.290   9.673  0.9035 -0.3005 -0.5396
  106OSM   H11S10851   1.386   0.375   9.645  0.3690  0.7753  1.3841
  106OSM   H11T10852   1.230   0.336   9.719  1.2302 -1.7185  1.6244
  106OSM   C12S10853   1.289   0.204   9.547 -0.3819  0.2971  0.2568
  106OSM   H12S10854   1.211   0.127   9.566 -0.7445  0.3438 -0.9935
  106OSM   H12T10855   1.364   0.128   9.515 -1.1061 -0.6345  0.7419
  106OSM   C13S10856   1.248   0.301   9.436  0.6859  0.3880  0.0978
  106OSM   H13S10857   1.333   0.372   9.426 -0.1255  1.8220  2.9262
  106OSM   H13T10858   1.149   0.349   9.454  0.5173  0.2233 -0.3660
  106OSM   C14S10859   1.227   0.228   9.304 -0.2592  0.5595  0.3920
  106OSM   H14S10860   1.286   0.135   9.289 -0.7803  0.3583 -0.4732
  106OSM   H14T10861   1.266   0.291   9.221 -1.1576  2.6777  1.5372
  106OSM   C15S10862   1.080   0.196   9.264 -0.2880  0.1862  0.2484
  106OSM   H15S10863   1.027   0.293   9.253 -1.2277 -0.2463  0.9044
  106OSM   H15T10864   1.040   0.138   9.350  0.9636 -1.4748 -0.2645
  106OSM   C16S10865   1.072   0.107   9.134 -0.2750 -0.1657  0.3187
  106OSM   H16S10866   1.022   0.012   9.163 -1.0448  0.1460  0.0309
  106OSM   H16T10867   1.174   0.092   9.093 -0.0455  0.0707  0.8058
  106OSM   C17S10868   0.987   0.180   9.029 -0.2242  0.4499  0.2671
  106OSM   H17S10869   1.035   0.279   9.010  1.5403 -0.7081 -1.4851
  106OSM   H17T10870   0.888   0.197   9.076  0.1768 -0.6572  1.5283
  106OSM   C18S10871   0.970   0.107   8.897 -0.0873 -0.5178  0.0422
  106OSM   H18S10872   0.911   0.012   8.897 -1.4893  0.3276 -1.5160
  106OSM   H18T10873   1.067   0.077   8.853  0.2739 -0.6192  0.8969
  106OSM   H18U10874   0.922   0.171   8.820  1.1641 -0.6515 -0.8646
  106OSM    C1F10875   1.433   0.991  10.175 -0.3418 -0.2589 -1.1602
  106OSM     OF10876   1.550   0.954  10.185 -0.4310 -0.3377 -0.2746
  106OSM    C2F10877   1.387   1.114  10.096 -0.0950  0.6561  0.2970
  106OSM    H2F10878   1.350   1.191  10.167 -2.3036  0.3517 -0.4580
  106OSM    H2G10879   1.307   1.080  10.025  0.3600 -0.4020  0.2832
  106OSM    C3F10880   1.505   1.178  10.018  1.1413 -0.2400  0.6695
  106OSM    H3F10881   1.588   1.197  10.090  3.2492 -0.2396 -1.6810
  106OSM    H3G10882   1.483   1.276   9.973  0.8499 -1.0493 -0.9656
  106OSM    C4F10883   1.524   1.078   9.904 -0.5684  0.0939  0.4791
  106OSM    H4F10884   1.438   1.058   9.837  0.8229  1.2798 -1.6959
  106OSM    H4G10885   1.548   0.977   9.945 -0.3298  0.4934  1.3346
  106OSM    C5F10886   1.620   1.127   9.795 -0.2776 -0.1955  0.3989
  106OSM    H5F10887   1.570   1.207   9.737  2.6385 -1.5082 -4.1204
  106OSM    H5G10888   1.650   1.055   9.716 -0.6572 -0.3125  0.3612
  106OSM    C6F10889   1.756   1.176   9.847 -0.8361  0.4336  0.4155
  106OSM    H6F10890   1.810   1.103   9.911  0.4910 -0.7335 -1.9674
  106OSM    H6G10891   1.742   1.258   9.920  0.6015  0.4792  0.6482
  106OSM    C7F10892   1.856   1.238   9.749 -0.5998  0.1976  0.4824
  106OSM    H7F10893   1.867   1.170   9.662  1.3129  1.2443 -0.1163
  106OSM    H7G10894   1.958   1.222   9.790 -0.9616 -3.8553  0.0145
  106OSM    C8F10895   1.820   1.379   9.687  0.7639  0.1317 -0.3855
  106OSM    H8F10896   1.771   1.440   9.766  3.1504  1.4660  0.1032
  106OSM    H8G10897   1.747   1.363   9.604  0.2973  0.3171 -0.0143
  106OSM    C9F10898   1.944   1.445   9.634 -0.2369  0.6280  0.7592
  106OSM    H9F10899   1.979   1.394   9.543 -1.4216  1.2178 -0.0442
  106OSM   C10F10900   2.012   1.552   9.677  0.3102 -0.8224 -0.2067
  106OSM   H10F10901   2.098   1.596   9.624 -0.5637 -0.5045 -1.3896
  106OSM   C11F10902   1.968   1.643   9.788  0.1134  0.6553  1.0389
  106OSM   H11F10903   1.894   1.583   9.845  1.1778 -1.5581  0.1443
  106OSM   H11G10904   1.915   1.731   9.746 -1.4629 -0.1984  1.2045
  106OSM   C12F10905   2.081   1.677   9.881  0.0723 -0.6690  0.3765
  106OSM   H12F10906   2.030   1.736   9.960 -0.2573 -0.7229  0.2054
  106OSM   H12G10907   2.139   1.762   9.838  2.0136 -1.5849  1.0991
  106OSM   C13F10908   2.165   1.561   9.939  0.3431 -0.3154  0.2214
  106OSM   H13F10909   2.211   1.499   9.859 -0.0244  0.3242 -0.4960
  106OSM   H13G10910   2.086   1.499   9.986 -0.4732 -1.0427 -2.0209
  106OSM   C14F10911   2.262   1.606  10.055 -0.1465  0.1193  0.2078
  106OSM   H14F10912   2.313   1.691  10.004 -1.7911  0.9711 -0.0860
  106OSM   H14G10913   2.333   1.526  10.082 -1.7676 -1.6498 -0.6816
  106OSM   C15F10914   2.200   1.659  10.179 -0.4204  0.4442  0.3498
  106OSM   H15F10915   2.153   1.577  10.238  0.6130  0.3618  1.0992
  106OSM   H15G10916   2.108   1.715  10.155  0.2450  0.9193 -1.1485
  106OSM   C16F10917   2.299   1.735  10.264 -0.7694  0.3136  0.0529
  106OSM   H16F10918   2.343   1.823  10.213  1.7199 -1.0871 -0.2823
  106OSM   H16G10919   2.385   1.671  10.293 -2.4189 -1.3409  1.4336
  106OSM   C17F10920   2.238   1.785  10.396  0.3034  0.0038  0.9195
  106OSM   H17F10921   2.179   1.709  10.451 -1.4309 -0.6953 -1.7996
  106OSM   H17G10922   2.161   1.854  10.356  0.3291 -0.1117  0.6693
  106OSM   C18F10923   2.337   1.861  10.483  0.2686 -0.2725  0.3069
  106OSM   H18F10924   2.421   1.795  10.513 -0.6821 -1.7058 -0.0804
  106OSM   H18G10925   2.296   1.896  10.580  1.7167  1.3982  0.3303
  106OSM   H18H10926   2.384   1.943  10.425  0.4422 -0.2466  0.4862
  107OSM      N10927   2.029   5.291  10.748 -0.7101 -0.7792 -0.5006
  107OSM    C1510928   1.914   5.373  10.802 -0.0211 -0.9650 -0.3039
  107OSM   H15A10929   1.833   5.318  10.846  0.6587 -1.7956 -0.0958
  107OSM   H15B10930   1.872   5.439  10.727 -1.8352 -1.2402  0.4576
  107OSM   H15C10931   1.952   5.431  10.885 -0.1619 -0.7116 -0.4123
  107OSM    C1410932   2.057   5.184  10.850 -0.3124 -0.2885 -0.4223
  107OSM   H14A10933   1.986   5.103  10.851 -0.2691 -0.3598 -2.0810
  107OSM   H14B10934   2.065   5.227  10.948  0.0085  0.0213 -0.5827
  107OSM   H14C10935   2.156   5.149  10.824 -0.0997 -0.0387  0.0635
  107OSM    C1310936   1.973   5.228  10.624 -0.4415  0.1448  0.2203
  107OSM   H13A10937   1.981   5.292  10.538 -0.2450 -0.3349 -0.1206
  107OSM   H13B10938   1.870   5.199  10.633 -0.5818  1.6047  4.6252
  107OSM   H13C10939   2.038   5.147  10.593 -1.4542 -0.5311 -0.1636
  107OSM    C1210940   2.140   5.385  10.722 -0.3018 -0.0613  0.1243
  107OSM   H12A10941   2.106   5.444  10.638  0.7678  0.0728 -0.2239
  107OSM   H12B10942   2.233   5.339  10.692 -1.3048 -2.6858  0.9532
  107OSM    C1110943   2.187   5.489  10.829  0.3157 -0.2766 -0.3857
  107OSM   H11A10944   2.104   5.550  10.870 -0.2763 -0.6740 -0.9696
  107OSM   H11B10945   2.254   5.566  10.786 -0.0637 -0.9559 -2.2525
  107OSM      P10946   2.400   5.368  10.936 -0.1974  0.0955 -0.4586
  107OSM    O1310947   2.493   5.450  11.019  0.4025 -0.3455 -0.5382
  107OSM    O1410948   2.396   5.216  10.961  0.1600 -0.2873 -0.2460
  107OSM    O1110949   2.431   5.397  10.785  0.1938  0.0057  0.3614
  107OSM    O1210950   2.250   5.425  10.940  0.0241 -0.0812 -0.2317
  107OSM    C1S10951   2.451   5.288  10.689 -0.3225 -0.5036  0.1734
  107OSM    H1S10952   2.360   5.224  10.687 -1.3727  1.0094 -0.9497
  107OSM    H1T10953   2.539   5.223  10.710  2.3401  2.2091 -2.1080
  107OSM     NF10954   2.448   5.257  10.448 -0.1847  0.5164  0.2405
  107OSM    HNF10955   2.527   5.225  10.397  0.8430  1.4157  1.2355
  107OSM    C2S10956   2.479   5.354  10.550 -0.3701  0.1896 -0.7082
  107OSM    H2S10957   2.412   5.442  10.539 -0.4603  0.3189  0.7695
  107OSM    C3S10958   2.628   5.404  10.555 -0.1603 -0.3005 -0.2886
  107OSM    H3S10959   2.690   5.319  10.590  0.0843 -0.9496 -2.2286
  107OSM     O310960   2.663   5.507  10.651 -0.1719 -0.1542  0.4117
  107OSM    HO310961   2.585   5.524  10.705  1.0275  2.0760  1.4798
  107OSM    C4S10962   2.674   5.442  10.418  0.6360  0.0091  0.4247
  107OSM    H4S10963   2.666   5.355  10.352 -0.0257 -0.2736  0.8727
  107OSM    C5S10964   2.718   5.553  10.360 -0.5208  0.2355 -0.0631
  107OSM    H5S10965   2.739   5.643  10.421  2.7708 -0.2622 -0.3757
  107OSM    C6S10966   2.754   5.578  10.218  0.1050  0.5083  0.2244
  107OSM    H6S10967   2.842   5.646  10.212  0.5818  0.0627  1.8988
  107OSM    H6T10968   2.672   5.634  10.169 -0.7223  0.3574  1.4302
  107OSM    C7S10969   2.787   5.455  10.126  0.8311  0.3815  0.0607
  107OSM    H7S10970   2.721   5.366  10.136  0.2062  0.9520  1.1300
  107OSM    H7T10971   2.885   5.415  10.163  0.6263 -0.1190  0.0653
  107OSM    C8S10972   2.804   5.495   9.978 -0.2881  0.2695 -0.5358
  107OSM    H8S10973   2.900   5.551   9.967  1.1788 -2.5199 -2.8736
  107OSM    H8T10974   2.726   5.566   9.946 -1.1787 -0.3340  0.2788
  107OSM    C9S10975   2.806   5.364   9.891 -0.3117 -0.4461 -0.0791
  107OSM    H9S10976   2.705   5.318   9.885 -0.0137 -0.9556 -1.5331
  107OSM    H9T10977   2.866   5.286   9.942 -0.4777 -0.6764 -0.2364
  107OSM   C10S10978   2.868   5.381   9.751 -0.1517 -0.0245 -0.2168
  107OSM   H10S10979   2.958   5.445   9.755  0.1339 -0.5553  2.3645
  107OSM   H10T10980   2.799   5.432   9.680  1.6347  0.2832 -1.7734
  107OSM   C11S10981   2.893   5.237   9.689 -0.5826  0.2435 -0.4848
  107OSM   H11S10982   2.797   5.185   9.672 -1.2205  1.1493  0.2767
  107OSM   H11T10983   2.973   5.177   9.737 -0.7898  1.1854  1.1040
  107OSM   C12S10984   2.955   5.257   9.549  0.1624  0.1756  0.2434
  107OSM   H12S10985   3.064   5.270   9.566 -0.0991  0.1289  1.9966
  107OSM   H12T10986   2.919   5.354   9.507 -0.7655  0.8534  2.5185
  107OSM   C13S10987   2.937   5.144   9.450  0.7698 -0.1505 -0.8479
  107OSM   H13S10988   2.827   5.127   9.448  0.7714 -0.3798  0.4327
  107OSM   H13T10989   2.981   5.048   9.485  0.6063  0.1341  0.1795
  107OSM   C14S10990   2.995   5.194   9.319 -0.5223 -0.3613 -0.5272
  107OSM   H14S10991   3.101   5.221   9.335 -1.0456  0.1187  2.3867
  107OSM   H14T10992   2.938   5.284   9.285 -1.4352 -1.5495 -2.2359
  107OSM   C15S10993   2.995   5.110   9.191  0.0731 -0.4834  0.0737
  107OSM   H15S10994   3.041   5.011   9.210  1.0317 -0.6474 -2.8343
  107OSM   H15T10995   3.066   5.160   9.121 -1.3252  0.7270 -0.5181
  107OSM   C16S10996   2.861   5.074   9.140  0.4042  0.0644 -0.4808
  107OSM   H16S10997   2.806   5.168   9.116 -2.1781 -1.3355 -0.2045
  107OSM   H16T10998   2.812   5.015   9.220  4.6106 -0.3523  1.9734
  107OSM   C17S10999   2.861   4.972   9.025 -0.0729  0.8901  0.3244
  107OSM   H17S11000   2.765   4.917   9.022  0.6412 -0.3027 -1.1213
  107OSM   H17T11001   2.944   4.901   9.044 -1.2710 -0.6605 -0.2108
  107OSM   C18S11002   2.879   5.037   8.888  0.2878 -0.2420  0.6089
  107OSM   H18S11003   2.784   5.089   8.864  0.2471 -0.0779  1.1233
  107OSM   H18T11004   2.898   4.961   8.809  1.4612  3.1701 -2.5020
  107OSM   H18U11005   2.962   5.110   8.896  0.4421 -0.1770 -1.3414
  107OSM    C1F11006   2.320   5.223  10.413 -0.4142 -0.4893  0.1859
  107OSM     OF11007   2.231   5.283  10.467  0.1028  0.0712 -0.2014
  107OSM    C2F11008   2.298   5.111  10.314 -0.1362  0.0888  0.1226
  107OSM    H2F11009   2.313   5.020  10.376 -0.7172 -0.7513 -0.9718
  107OSM    H2G11010   2.379   5.120  10.238 -0.4918  0.8833 -0.1686
  107OSM    C3F11011   2.167   5.106  10.241 -0.7480 -0.9984  0.1885
  107OSM    H3F11012   2.154   5.205  10.192  0.8712  0.2526  2.1997
  107OSM    H3G11013   2.092   5.085  10.321 -1.1432  2.1879  0.7254
  107OSM    C4F11014   2.163   4.996  10.133 -0.0409 -0.0347 -0.3662
  107OSM    H4F11015   2.171   4.896  10.181 -1.0275 -0.7019 -1.5839
  107OSM    H4G11016   2.256   5.013  10.074 -0.7881 -1.6977 -2.0857
  107OSM    C5F11017   2.048   5.013  10.035  0.5924  0.3086  0.4785
  107OSM    H5F11018   2.047   5.115   9.992 -1.1871  0.0715 -0.0707
  107OSM    H5G11019   1.960   5.003  10.101  1.1937  1.0039  1.3997
  107OSM    C6F11020   2.052   4.906   9.918 -0.8501 -0.6909  0.4527
  107OSM    H6F11021   2.011   4.807   9.947  2.9582 -2.4237  0.1509
  107OSM    H6G11022   2.161   4.893   9.906 -0.9069  0.1484 -1.0915
  107OSM    C7F11023   1.978   4.952   9.791 -0.1062  0.5134  0.1123
  107OSM    H7F11024   2.011   5.052   9.757  1.9086  0.7259  2.5849
  107OSM    H7G11025   1.871   4.965   9.814  0.2015 -0.3744  2.1207
  107OSM    C8F11026   1.989   4.853   9.679 -0.1529  0.4933 -0.8728
  107OSM    H8F11027   1.911   4.885   9.607  0.3124  1.2209 -1.0593
  107OSM    H8G11028   1.954   4.753   9.713  1.3535  0.5526  0.9905
  107OSM    C9F11029   2.125   4.860   9.623 -0.9530  0.7134  0.1790
  107OSM    H9F11030   2.211   4.828   9.683  0.1761 -0.8922 -2.2063
  107OSM   C10F11031   2.148   4.910   9.500  0.3303 -0.0687 -0.1950
  107OSM   H10F11032   2.254   4.913   9.471 -0.1873 -2.3891 -2.5521
  107OSM   C11F11033   2.053   4.958   9.385 -0.2701  0.3387 -0.2542
  107OSM   H11F11034   1.956   4.905   9.389  0.2422 -0.5339  0.8245
  107OSM   H11G11035   2.108   4.929   9.293  0.4987  1.7229 -0.2515
  107OSM   C12F11036   2.011   5.105   9.368  0.0977  0.0302 -0.0000
  107OSM   H12F11037   1.959   5.122   9.272  0.0540  1.0660  0.2043
  107OSM   H12G11038   2.103   5.167   9.369 -0.9353  1.5884  0.3363
  107OSM   C13F11039   1.911   5.142   9.480  0.7221 -0.1565 -0.0094
  107OSM   H13F11040   1.966   5.130   9.576  0.3963 -1.2146  0.0532
  107OSM   H13G11041   1.828   5.069   9.465  0.5659 -0.3511  1.7167
  107OSM   C14F11042   1.856   5.287   9.464 -0.4989  0.0782 -0.3583
  107OSM   H14F11043   1.934   5.365   9.470  0.3787 -0.7118 -1.2696
  107OSM   H14G11044   1.793   5.302   9.554 -0.8793  0.7249 -0.7309
  107OSM   C15F11045   1.774   5.318   9.342 -0.1220  0.3744  0.9980
  107OSM   H15F11046   1.686   5.250   9.337 -0.5051  0.8546  1.1298
  107OSM   H15G11047   1.845   5.306   9.258  0.8709 -1.1914  2.0292
  107OSM   C16F11048   1.714   5.456   9.337 -0.4373 -0.4682  0.5720
  107OSM   H16F11049   1.799   5.525   9.351 -0.7114  0.2726 -1.2835
  107OSM   H16G11050   1.644   5.478   9.421 -1.0250 -0.4225  0.0762
  107OSM   C17F11051   1.651   5.502   9.202  0.5168 -0.1484 -0.3030
  107OSM   H17F11052   1.736   5.509   9.132 -0.8710 -0.6459 -2.0706
  107OSM   H17G11053   1.607   5.602   9.222  1.9859  0.2748  0.9170
  107OSM   C18F11054   1.542   5.422   9.139  0.7829  0.3195  0.3158
  107OSM   H18F11055   1.459   5.422   9.214  0.9559  1.3581  0.5126
  107OSM   H18G11056   1.578   5.320   9.113 -0.4408  0.1033 -0.5803
  107OSM   H18H11057   1.494   5.468   9.050  0.2089  1.2917  1.1153
  108OSM      N11058   6.234   2.005  10.997  0.2459 -0.0542 -0.5962
  108OSM    C1511059   6.315   1.879  10.995 -0.4486  0.4501  0.0342
  108OSM   H15A11060   6.316   1.840  11.096 -0.9855  0.6707  0.1267
  108OSM   H15B11061   6.413   1.910  10.962  0.0930 -0.9888  0.2276
  108OSM   H15C11062   6.271   1.805  10.930  1.0964  0.3191 -0.8890
  108OSM    C1411063   6.258   2.064  11.133 -0.2622  0.3814  0.1995
  108OSM   H14A11064   6.360   2.037  11.155  0.3110  1.5980 -0.8713
  108OSM   H14B11065   6.188   2.025  11.206 -1.6650 -0.2042 -1.4150
  108OSM   H14C11066   6.249   2.171  11.125 -1.0146  0.3293  0.3129
  108OSM    C1311067   6.274   2.092  10.882 -0.4926  0.5144 -0.3736
  108OSM   H13A11068   6.213   2.179  10.863 -0.8468  0.3346 -0.0789
  108OSM   H13B11069   6.278   2.024  10.797 -0.7252 -1.0200  0.8150
  108OSM   H13C11070   6.374   2.128  10.898 -0.6645  0.5159  0.7143
  108OSM    C1211071   6.085   1.972  10.984 -0.4974 -0.8616  0.2472
  108OSM   H12A11072   6.071   1.882  11.041  2.1332 -0.0174  2.3193
  108OSM   H12B11073   6.067   1.937  10.883 -0.1550  2.3792 -0.9883
  108OSM    C1111074   5.973   2.069  11.038 -0.0510 -0.5647 -0.3787
  108OSM   H11A11075   5.976   2.076  11.149  1.4501  0.5856 -0.4653
  108OSM   H11B11076   5.874   2.032  11.005  0.0726  0.2034 -1.6641
  108OSM      P11077   5.885   2.269  10.893 -0.3687  0.3878 -0.2970
  108OSM    O1311078   5.760   2.280  10.967  0.5042  0.1136 -0.2283
  108OSM    O1411079   5.937   2.395  10.832 -0.1240  0.0892  0.7885
  108OSM    O1111080   5.875   2.165  10.772 -0.1287  0.4189  0.3904
  108OSM    O1211081   5.995   2.199  10.982 -0.8107  0.2051 -0.4265
  108OSM    C1S11082   5.765   2.190  10.687  0.3860  0.0601  0.3177
  108OSM    H1S11083   5.755   2.295  10.650 -0.4482  0.0935  0.6296
  108OSM    H1T11084   5.680   2.149  10.746 -0.0382  0.4340 -0.0287
  108OSM     NF11085   5.662   2.135  10.458  0.0006  0.1656 -0.1600
  108OSM    HNF11086   5.581   2.078  10.472 -0.9242  1.5354  0.2071
  108OSM    C2S11087   5.777   2.108  10.552 -0.1142 -0.0123  0.3832
  108OSM    H2S11088   5.870   2.146  10.505 -0.7589  0.7979 -0.2629
  108OSM    C3S11089   5.807   1.953  10.572 -0.8186  0.0503 -0.7241
  108OSM    H3S11090   5.713   1.911  10.613 -0.0241 -1.6616 -0.6183
  108OSM     O311091   5.901   1.918  10.673  0.0589  0.2767  0.7273
  108OSM    HO311092   5.916   2.005  10.710 -1.6042  0.2515  1.5186
  108OSM    C4S11093   5.824   1.885  10.441 -0.5063  0.0384 -0.1848
  108OSM    H4S11094   5.730   1.835  10.412 -0.4121 -0.6432  0.6888
  108OSM    C5S11095   5.936   1.887  10.365  0.5560  0.1982 -0.1260
  108OSM    H5S11096   6.032   1.933  10.394  0.9417  2.0641 -4.0106
  108OSM    C6S11097   5.941   1.815  10.232  0.0874  0.1521  0.2050
  108OSM    H6S11098   5.843   1.763  10.221 -1.5120  2.5632  2.4223
  108OSM    H6T11099   6.028   1.747  10.217  1.0979  1.5861 -0.5687
  108OSM    C7S11100   5.948   1.920  10.121 -0.5456 -0.8960  0.1755
  108OSM    H7S11101   6.047   1.970  10.115 -1.4658  0.9049 -0.3058
  108OSM    H7T11102   5.875   1.998  10.153 -0.2747 -0.0798 -1.1553
  108OSM    C8S11103   5.893   1.865   9.984  1.2201  0.9743 -0.3298
  108OSM    H8S11104   5.791   1.824  10.000  2.7132 -1.6164  3.3210
  108OSM    H8T11105   5.956   1.779   9.952 -1.3293 -0.0714 -2.7533
  108OSM    C9S11106   5.890   1.970   9.876 -0.2979 -0.2881  0.4209
  108OSM    H9S11107   5.988   2.016   9.850  0.4305 -1.4657  1.0448
  108OSM    H9T11108   5.828   2.060   9.891 -1.3508 -0.8909 -0.2661
  108OSM   C10S11109   5.826   1.925   9.743 -0.4058 -0.2626  0.1940
  108OSM   H10S11110   5.728   1.879   9.766 -0.3808 -0.6084 -0.3965
  108OSM   H10T11111   5.880   1.840   9.698 -0.0939 -0.6950  1.3532
  108OSM   C11S11112   5.826   2.027   9.625 -0.2539  0.3764 -0.0489
  108OSM   H11S11113   5.931   2.048   9.596 -0.3795 -0.2541 -0.9872
  108OSM   H11T11114   5.774   2.123   9.647  1.7379  1.5648 -0.4519
  108OSM   C12S11115   5.778   1.963   9.488  0.2167 -0.2716  0.6417
  108OSM   H12S11116   5.668   1.952   9.480  0.5121 -1.4267 -2.7826
  108OSM   H12T11117   5.822   1.865   9.461 -0.8039 -0.3400 -0.8613
  108OSM   C13S11118   5.817   2.051   9.361 -0.1486 -0.4216  0.6447
  108OSM   H13S11119   5.928   2.056   9.355 -0.2602  0.2244 -1.4265
  108OSM   H13T11120   5.777   2.154   9.368 -0.1581 -0.5154  1.9449
  108OSM   C14S11121   5.750   1.995   9.237  0.1808 -0.5295 -0.3249
  108OSM   H14S11122   5.640   1.996   9.247  0.2700 -0.2392  0.6391
  108OSM   H14T11123   5.780   1.889   9.218 -0.6133 -1.1702  1.8808
  108OSM   C15S11124   5.770   2.098   9.125 -0.7290 -0.7599  1.1409
  108OSM   H15S11125   5.875   2.131   9.111 -0.2619 -2.0230  1.6045
  108OSM   H15T11126   5.705   2.184   9.149  0.4705  0.2613  0.7766
  108OSM   C16S11127   5.725   2.038   8.992  0.4533  0.7038 -0.1711
  108OSM   H16S11128   5.623   1.995   9.003  1.5014 -2.3119 -1.5931
  108OSM   H16T11129   5.791   1.953   8.963 -0.8678 -0.5486  0.3999
  108OSM   C17S11130   5.714   2.127   8.864  0.1000 -0.4583 -0.4271
  108OSM   H17S11131   5.690   2.052   8.785  0.0402  0.5634 -1.3962
  108OSM   H17T11132   5.815   2.164   8.838  0.2979 -0.8153 -0.1635
  108OSM   C18S11133   5.610   2.240   8.892  0.2748 -0.0755 -0.2139
  108OSM   H18S11134   5.628   2.283   8.992  2.1673 -2.8767  0.7331
  108OSM   H18T11135   5.517   2.181   8.908 -0.6596  1.2704 -0.6877
  108OSM   H18U11136   5.615   2.302   8.800  1.3365 -0.2442 -0.2775
  108OSM    C1F11137   5.638   2.252  10.401 -0.4414  0.5008 -0.3960
  108OSM     OF11138   5.723   2.337  10.393 -0.1214 -0.2074 -0.0823
  108OSM    C2F11139   5.501   2.269  10.344 -0.0891 -0.0317 -0.2286
  108OSM    H2F11140   5.479   2.374  10.374  0.6975  0.2764 -0.7027
  108OSM    H2G11141   5.425   2.200  10.384 -0.5731  1.2848  1.1856
  108OSM    C3F11142   5.500   2.262  10.196  0.8668  0.5171  0.1816
  108OSM    H3F11143   5.559   2.341  10.145 -0.9784  0.7136 -1.7335
  108OSM    H3G11144   5.395   2.278  10.164  0.1829  0.5413  2.4193
  108OSM    C4F11145   5.545   2.125  10.137  0.3936 -0.0055 -0.1573
  108OSM    H4F11146   5.464   2.054  10.166 -1.3744  1.0180 -2.4144
  108OSM    H4G11147   5.648   2.097  10.167  0.1800 -0.2048  0.3905
  108OSM    C5F11148   5.552   2.134   9.985  0.0892  0.2804 -0.2372
  108OSM    H5F11149   5.543   2.027   9.955  0.2368 -1.0974  4.2595
  108OSM    H5G11150   5.654   2.163   9.953 -0.1187 -0.4858 -1.6363
  108OSM    C6F11151   5.454   2.227   9.915  0.5313  0.1547 -0.0343
  108OSM    H6F11152   5.484   2.333   9.936 -2.4240  0.9654  0.2770
  108OSM    H6G11153   5.350   2.214   9.952  0.9850 -0.4724  1.0723
  108OSM    C7F11154   5.455   2.208   9.761 -0.0379  0.0712 -0.2428
  108OSM    H7F11155   5.445   2.098   9.746  1.0451 -0.6924  3.9835
  108OSM    H7G11156   5.550   2.243   9.717 -1.6475  1.8555 -2.3777
  108OSM    C8F11157   5.332   2.272   9.700 -0.3561  0.1101  0.9759
  108OSM    H8F11158   5.351   2.382   9.694  1.5001 -0.2879 -1.3274
  108OSM    H8G11159   5.247   2.254   9.769  0.9930  0.4543  2.7553
  108OSM    C9F11160   5.287   2.204   9.571 -0.1091 -0.3287 -0.1475
  108OSM    H9F11161   5.184   2.166   9.573 -0.8598  1.4729 -2.6751
  108OSM   C10F11162   5.362   2.184   9.461  0.2688  0.6095  0.5263
  108OSM   H10F11163   5.318   2.139   9.371 -2.8011  0.7267  1.9331
  108OSM   C11F11164   5.503   2.225   9.432 -0.3784 -0.6550  0.2824
  108OSM   H11F11165   5.547   2.154   9.359  2.2012 -0.6063  1.7322
  108OSM   H11G11166   5.576   2.209   9.513 -0.9008 -2.2505  0.4564
  108OSM   C12F11167   5.510   2.374   9.384  0.3075 -0.3912 -0.0157
  108OSM   H12F11168   5.619   2.392   9.387  0.5557 -1.8514  0.6496
  108OSM   H12G11169   5.464   2.448   9.453 -0.2271 -2.1914  1.5994
  108OSM   C13F11170   5.457   2.390   9.238  0.3579 -0.2044 -0.1559
  108OSM   H13F11171   5.460   2.296   9.178  1.6483  1.1595 -2.3152
  108OSM   H13G11172   5.525   2.463   9.190 -2.2447  1.6465 -1.1577
  108OSM   C14F11173   5.305   2.433   9.239  0.0973 -0.3368  0.3560
  108OSM   H14F11174   5.295   2.532   9.287  0.9006  0.5870 -1.3219
  108OSM   H14G11175   5.251   2.366   9.309 -1.1892  0.8367  0.5088
  108OSM   C15F11176   5.234   2.417   9.102 -0.1292 -0.3074 -0.5808
  108OSM   H15F11177   5.320   2.440   9.036  0.0590  2.2444  0.4908
  108OSM   H15G11178   5.162   2.501   9.091 -0.6958 -0.8160 -0.7972
  108OSM   C16F11179   5.175   2.285   9.047 -0.2109 -0.3040 -0.1764
  108OSM   H16F11180   5.242   2.199   9.069 -2.6231 -1.8174  1.5086
  108OSM   H16G11181   5.168   2.291   8.937  0.7384 -1.3156 -0.3074
  108OSM   C17F11182   5.028   2.256   9.092 -0.1522  0.4952  0.3219
  108OSM   H17F11183   4.957   2.333   9.056 -1.9045 -1.5473 -0.7210
  108OSM   H17G11184   5.014   2.266   9.202  3.6110  0.1721  0.9141
  108OSM   C18F11185   4.972   2.117   9.041 -0.6585 -0.1195 -0.3839
  108OSM   H18F11186   4.869   2.099   9.078  0.0529  0.8055  2.0900
  108OSM   H18G11187   5.040   2.036   9.075  0.7816  0.3586 -2.0163
  108OSM   H18H11188   4.969   2.122   8.930 -1.8596  2.1037 -0.2611
  109OSM      N11189   6.471   3.390  11.072  0.5740 -0.1299 -0.1452
  109OSM    C1511190   6.511   3.534  11.087 -0.6881  0.9649  0.4305
  109OSM   H15A11191   6.596   3.541  11.153  0.9417 -0.6665 -1.4143
  109OSM   H15B11192   6.428   3.582  11.136 -1.1714  1.5398 -0.9149
  109OSM   H15C11193   6.533   3.589  10.997  1.0411  0.5183  0.5523
  109OSM    C1411194   6.578   3.298  11.026 -0.2723 -0.7439  0.0340
  109OSM   H14A11195   6.536   3.199  11.017 -1.4200 -0.3339  0.8117
  109OSM   H14B11196   6.672   3.290  11.080 -0.8240 -0.9185  0.9844
  109OSM   H14C11197   6.608   3.326  10.926 -0.7412  0.8260  0.3354
  109OSM    C1311198   6.443   3.333  11.206 -0.0459 -0.4701  0.3308
  109OSM   H13A11199   6.377   3.404  11.253  1.0758  1.1622 -0.5330
  109OSM   H13B11200   6.536   3.325  11.262  0.8107  0.8893 -0.8624
  109OSM   H13C11201   6.389   3.241  11.191  0.9245 -0.8547 -0.8971
  109OSM    C1211202   6.359   3.386  10.975 -0.0487  0.4127 -0.6503
  109OSM   H12A11203   6.290   3.465  11.002 -0.2295  0.0413 -0.0251
  109OSM   H12B11204   6.305   3.294  10.990  0.6919 -0.0906 -1.0168
  109OSM    C1111205   6.389   3.399  10.821  0.0451 -0.0118 -0.8005
  109OSM   H11A11206   6.415   3.505  10.800 -0.0100  0.2552  0.4361
  109OSM   H11B11207   6.291   3.399  10.770 -0.8879  2.9474  0.9072
  109OSM      P11208   6.445   3.177  10.700  0.0824  0.2428  0.4379
  109OSM    O1311209   6.568   3.105  10.667 -0.3697  0.4239 -0.5713
  109OSM    O1411210   6.341   3.103  10.776  0.5318  0.0542 -0.6324
  109OSM    O1111211   6.384   3.235  10.567 -0.4962 -0.1226 -0.6950
  109OSM    O1211212   6.486   3.309  10.772  0.5733 -0.3678  0.2705
  109OSM    C1S11213   6.443   3.344  10.495 -0.0939 -0.7780  0.3710
  109OSM    H1S11214   6.553   3.335  10.484  0.1874  2.2623  0.0277
  109OSM    H1T11215   6.417   3.448  10.527  0.8742 -0.2653 -0.4633
  109OSM     NF11216   6.450   3.422  10.251 -0.4686  0.1925 -0.0534
  109OSM    HNF11217   6.420   3.517  10.255 -3.4923 -0.6543 -1.0454
  109OSM    C2S11218   6.394   3.330  10.346  0.0757  0.1946 -0.4442
  109OSM    H2S11219   6.406   3.223  10.318  2.3796  0.2952  0.0787
  109OSM    C3S11220   6.239   3.355  10.353  0.8820  0.2024  0.8154
  109OSM    H3S11221   6.221   3.456  10.395 -0.0592 -0.6678  2.5345
  109OSM     O311222   6.162   3.258  10.426  0.7559  0.0539 -0.1804
  109OSM    HO311223   6.222   3.231  10.495 -2.0087 -0.3632  2.1715
  109OSM    C4S11224   6.176   3.347  10.214 -0.2711  0.8544 -0.6163
  109OSM    H4S11225   6.197   3.247  10.174 -0.6894  0.6285 -0.2779
  109OSM    C5S11226   6.111   3.445  10.152  0.0873  0.5077 -0.1152
  109OSM    H5S11227   6.089   3.541  10.200  2.2499  1.6613 -1.3250
  109OSM    C6S11228   6.040   3.429  10.020 -0.6085 -0.1178 -0.3745
  109OSM    H6S11229   6.014   3.535   9.999 -1.9869 -0.1834  0.9062
  109OSM    H6T11230   5.937   3.390  10.036 -0.4104 -0.1784  0.7847
  109OSM    C7S11231   6.119   3.358   9.910  0.7028 -0.3560 -0.4234
  109OSM    H7S11232   6.109   3.248   9.926 -1.2689 -0.1912 -0.3610
  109OSM    H7T11233   6.226   3.387   9.912  1.2412 -2.2302 -1.1130
  109OSM    C8S11234   6.067   3.384   9.769  0.0537 -0.6041  0.1424
  109OSM    H8S11235   6.070   3.495   9.758 -1.9420 -0.5628 -0.1828
  109OSM    H8T11236   5.961   3.352   9.762  0.1065 -0.4810 -1.4279
  109OSM    C9S11237   6.152   3.315   9.663 -0.0450  1.1351  0.5244
  109OSM    H9S11238   6.157   3.207   9.686 -1.0765  1.4035  2.1415
  109OSM    H9T11239   6.258   3.342   9.679  1.2598 -3.3321  0.0900
  109OSM   C10S11240   6.107   3.337   9.513 -0.3565  0.3477  0.2862
  109OSM   H10S11241   6.095   3.447   9.496 -1.9176 -0.2015 -2.5126
  109OSM   H10T11242   6.005   3.294   9.507  0.5061 -1.6737 -0.1004
  109OSM   C11S11243   6.212   3.286   9.416 -0.7247  0.1979  0.1379
  109OSM   H11S11244   6.228   3.180   9.445 -0.0906  0.3439  0.3405
  109OSM   H11T11245   6.308   3.337   9.440  0.3066 -0.5564 -2.1461
  109OSM   C12S11246   6.180   3.332   9.267 -0.4854  0.2205  0.3482
  109OSM   H12S11247   6.185   3.443   9.268  1.0945  0.2486 -3.1576
  109OSM   H12T11248   6.072   3.316   9.252 -0.5572  1.2988 -0.3968
  109OSM   C13S11249   6.261   3.271   9.158 -0.0355 -0.1473 -0.3483
  109OSM   H13S11250   6.259   3.160   9.157  0.1794 -0.1508 -0.5995
  109OSM   H13T11251   6.363   3.307   9.183 -0.9449  0.3097  2.9974
  109OSM   C14S11252   6.226   3.330   9.015  0.5159 -0.8605 -0.1111
  109OSM   H14S11253   6.235   3.441   9.016 -0.3016 -0.7730 -1.5790
  109OSM   H14T11254   6.131   3.301   8.966 -0.2689 -0.5173  1.1772
  109OSM   C15S11255   6.325   3.286   8.913 -0.7636  0.5804 -0.2303
  109OSM   H15S11256   6.299   3.179   8.896  0.4393 -0.0044  1.4233
  109OSM   H15T11257   6.430   3.280   8.948 -0.4437 -2.0302 -1.4910
  109OSM   C16S11258   6.325   3.379   8.789  0.2024 -0.1471 -0.1845
  109OSM   H16S11259   6.372   3.478   8.809 -1.3351  0.4260  0.6925
  109OSM   H16T11260   6.221   3.401   8.758  0.3561  1.2057  0.2404
  109OSM   C17S11261   6.405   3.317   8.669 -0.1277  0.1801 -0.4139
  109OSM   H17S11262   6.503   3.280   8.706 -0.5643  0.1267  0.7128
  109OSM   H17T11263   6.409   3.389   8.584  0.6615 -1.3372 -1.6987
  109OSM   C18S11264   6.324   3.201   8.602  0.0624  0.3522  0.1372
  109OSM   H18S11265   6.232   3.245   8.559  0.7053  0.6525 -0.9358
  109OSM   H18T11266   6.297   3.127   8.680 -1.8853 -1.1381 -1.8959
  109OSM   H18U11267   6.374   3.158   8.512 -0.2919 -0.3339  0.2607
  109OSM    C1F11268   6.577   3.400  10.217 -0.0792  0.2216  0.2292
  109OSM     OF11269   6.629   3.292  10.236 -0.0743 -0.1155  0.5851
  109OSM    C2F11270   6.648   3.524  10.171  0.8934 -0.0476  0.3373
  109OSM    H2F11271   6.699   3.570  10.258  0.5160  2.5212 -0.7506
  109OSM    H2G11272   6.576   3.599  10.132  2.4365  1.6359  0.7165
  109OSM    C3F11273   6.746   3.491  10.056 -1.0154 -0.0788 -0.2484
  109OSM    H3F11274   6.818   3.424  10.109  2.2867  2.7289 -0.9980
  109OSM    H3G11275   6.804   3.579  10.020 -1.0799  0.1930  0.2988
  109OSM    C4F11276   6.677   3.434   9.933 -0.1351  0.2227  0.5987
  109OSM    H4F11277   6.581   3.488   9.921  0.3758  0.9862 -0.0970
  109OSM    H4G11278   6.652   3.327   9.947 -0.3724  0.1194 -0.5524
  109OSM    C5F11279   6.761   3.455   9.806  0.0468 -0.0591 -0.1748
  109OSM    H5F11280   6.865   3.440   9.843 -0.1780  0.5692  0.7209
  109OSM    H5G11281   6.752   3.562   9.780  1.0997  0.0303 -0.2185
  109OSM    C6F11282   6.714   3.367   9.695 -0.0388 -0.7260  0.5079
  109OSM    H6F11283   6.604   3.359   9.681  0.0753 -0.7339 -0.3684
  109OSM    H6G11284   6.743   3.266   9.731  3.2104  0.4666  1.3556
  109OSM    C7F11285   6.787   3.391   9.556 -0.0611 -0.2156  0.3295
  109OSM    H7F11286   6.760   3.308   9.487 -0.6635  1.6358 -1.7064
  109OSM    H7G11287   6.897   3.386   9.570  0.2013  0.9241 -1.1465
  109OSM    C8F11288   6.757   3.518   9.479  0.8529  0.1062 -0.4833
  109OSM    H8F11289   6.790   3.594   9.553  1.0745  0.7468 -1.2384
  109OSM    H8G11290   6.649   3.529   9.455  0.7969 -0.5415 -0.5302
  109OSM    C9F11291   6.828   3.532   9.345 -0.0954  0.3740  0.2950
  109OSM    H9F11292   6.931   3.562   9.369  0.1567  0.3344 -0.7514
  109OSM   C10F11293   6.791   3.509   9.217 -0.3870  0.2804 -0.5301
  109OSM   H10F11294   6.856   3.538   9.133 -1.1887 -1.4013 -1.7367
  109OSM   C11F11295   6.659   3.453   9.172 -0.3178 -1.3120  0.0764
  109OSM   H11F11296   6.616   3.409   9.264  0.1870 -1.9816 -0.0051
  109OSM   H11G11297   6.680   3.371   9.100  1.8558  0.0371 -0.8994
  109OSM   C12F11298   6.580   3.570   9.117 -0.0066  0.5470 -0.5660
  109OSM   H12F11299   6.593   3.659   9.182  1.0064  0.2630 -0.3671
  109OSM   H12G11300   6.475   3.533   9.123  0.7674 -1.8973 -1.5171
  109OSM   C13F11301   6.622   3.614   8.979  0.0248  0.1107  0.2629
  109OSM   H13F11302   6.626   3.531   8.905  0.7161  0.2484  0.1440
  109OSM   H13G11303   6.727   3.647   8.990  0.5838 -0.2303 -3.4059
  109OSM   C14F11304   6.533   3.725   8.919  0.0117  0.7218 -0.0557
  109OSM   H14F11305   6.519   3.801   8.999  0.1745  0.9745 -0.2636
  109OSM   H14G11306   6.431   3.694   8.889  0.4751 -0.3903 -0.4964
  109OSM   C15F11307   6.602   3.807   8.814  0.1451  0.4848  0.1653
  109OSM   H15F11308   6.634   3.741   8.731 -0.7304  1.4719 -0.9702
  109OSM   H15G11309   6.696   3.850   8.856 -0.6184  0.8473  1.5469
  109OSM   C16F11310   6.518   3.927   8.762  0.3186  0.7880  0.7751
  109OSM   H16F11311   6.509   4.014   8.830  1.9257  0.5829  1.2659
  109OSM   H16G11312   6.413   3.897   8.741 -0.0490  2.1283  0.6710
  109OSM   C17F11313   6.582   3.976   8.630 -0.1645  0.6093  0.2006
  109OSM   H17F11314   6.605   3.886   8.569 -2.3116 -0.4542  0.9432
  109OSM   H17G11315   6.673   4.037   8.651  0.3748 -0.0345 -0.2540
  109OSM   C18F11316   6.486   4.063   8.550  0.0385 -0.1192  1.1538
  109OSM   H18F11317   6.536   4.085   8.453  0.2146  2.6298  1.8256
  109OSM   H18G11318   6.486   4.159   8.606 -0.1620  0.4768  0.1533
  109OSM   H18H11319   6.391   4.008   8.534  0.9125 -1.2781 -0.1335
  110OSM      N11320   1.270   2.393  11.043  1.1865 -0.6624  0.4228
  110OSM    C1511321   1.344   2.459  11.158 -0.3995 -0.0040  0.1508
  110OSM   H15A11322   1.305   2.417  11.250 -1.1915 -0.9475 -0.6132
  110OSM   H15B11323   1.327   2.565  11.147  1.6698  0.3288 -0.0781
  110OSM   H15C11324   1.449   2.434  11.149 -0.8180 -0.6359 -3.6075
  110OSM    C1411325   1.274   2.241  11.056  0.4810 -0.1536 -0.1733
  110OSM   H14A11326   1.374   2.213  11.029  0.3005 -1.5125  0.5080
  110OSM   H14B11327   1.205   2.193  10.987  0.2194  0.2874 -0.2193
  110OSM   H14C11328   1.247   2.213  11.156 -0.6540  2.6188  0.3416
  110OSM    C1311329   1.118   2.423  11.043 -0.1137 -0.8700 -0.0566
  110OSM   H13A11330   1.108   2.528  11.024 -0.0092 -0.8106  0.2063
  110OSM   H13B11331   1.081   2.404  11.143 -2.4277  1.6222 -0.3872
  110OSM   H13C11332   1.059   2.371  10.970  1.1707 -0.0821 -1.6939
  110OSM    C1211333   1.322   2.434  10.909  0.9639  0.2010  0.2815
  110OSM   H12A11334   1.259   2.399  10.828  2.1411  0.0333 -0.5640
  110OSM   H12B11335   1.410   2.375  10.891 -0.0143 -0.7630 -1.5439
  110OSM    C1111336   1.343   2.587  10.888  0.1894  0.5179 -0.9572
  110OSM   H11A11337   1.365   2.603  10.780 -0.6217  0.8313 -1.0753
  110OSM   H11B11338   1.417   2.630  10.960 -0.9733  0.7709  0.1087
  110OSM      P11339   1.137   2.754  10.829  0.0781 -0.0801 -0.3434
  110OSM    O1311340   1.026   2.808  10.912  0.3275 -0.0739  0.3874
  110OSM    O1411341   1.227   2.860  10.775  0.0902  0.0635  0.3644
  110OSM    O1111342   1.088   2.672  10.706  0.4661  0.4336  0.2718
  110OSM    O1211343   1.219   2.651  10.914  0.0931  0.0226  0.2134
  110OSM    C1S11344   0.990   2.714  10.617 -1.3346 -0.2264 -0.2056
  110OSM    H1S11345   0.931   2.801  10.652 -2.3382 -1.0380  0.1334
  110OSM    H1T11346   0.919   2.629  10.609 -1.6590  0.0531 -0.3467
  110OSM     NF11347   0.948   2.792  10.391  0.6329 -0.3733 -0.5677
  110OSM    HNF11348   0.906   2.723  10.333 -0.5184 -0.5243  0.4002
  110OSM    C2S11349   1.052   2.731  10.469  0.4353 -0.3558  0.6196
  110OSM    H2S11350   1.143   2.793  10.487  1.4896 -2.1046  1.5049
  110OSM    C3S11351   1.098   2.591  10.426 -0.4418  0.1417 -0.8845
  110OSM    H3S11352   1.017   2.515  10.436  0.7094 -1.2739 -2.0773
  110OSM     O311353   1.207   2.542  10.507  0.1797  0.2392 -0.1852
  110OSM    HO311354   1.202   2.606  10.578 -0.7510  0.5277 -0.4999
  110OSM    C4S11355   1.130   2.584  10.272  0.2752  0.0981  0.2637
  110OSM    H4S11356   1.047   2.613  10.205 -0.6222 -1.2516  0.7652
  110OSM    C5S11357   1.246   2.559  10.214 -0.7212  1.0392  0.1673
  110OSM    H5S11358   1.332   2.532  10.277 -1.5554  0.7557  1.1979
  110OSM    C6S11359   1.287   2.554  10.066 -0.2987 -0.4732  0.8743
  110OSM    H6S11360   1.342   2.461  10.041 -0.1159  0.0139 -0.5859
  110OSM    H6T11361   1.353   2.641  10.045 -0.0911 -1.4690 -2.9869
  110OSM    C7S11362   1.170   2.561   9.962  0.5536 -0.1657 -0.2163
  110OSM    H7S11363   1.119   2.656   9.990  3.2423  1.4917 -0.7605
  110OSM    H7T11364   1.113   2.466   9.977 -2.3764  1.3767 -1.1708
  110OSM    C8S11365   1.218   2.590   9.818 -0.9396 -0.8852  1.3326
  110OSM    H8S11366   1.283   2.505   9.788 -3.1215 -1.9844 -0.4662
  110OSM    H8T11367   1.276   2.685   9.823  0.9729 -1.7240 -3.1099
  110OSM    C9S11368   1.120   2.623   9.704 -0.1143  0.4196 -0.3617
  110OSM    H9S11369   1.073   2.718   9.737  0.9931  0.7458  0.2997
  110OSM    H9T11370   1.035   2.552   9.696 -0.3168  0.6027  0.1130
  110OSM   C10S11371   1.197   2.644   9.572  0.5826 -0.0106 -0.2125
  110OSM   H10S11372   1.245   2.545   9.558 -0.5010 -0.5723  0.0320
  110OSM   H10T11373   1.273   2.725   9.569  1.7074 -0.9662  1.6547
  110OSM   C11S11374   1.099   2.669   9.456  0.4442  0.6063 -0.6736
  110OSM   H11S11375   1.051   2.769   9.465  1.5794  0.9885  1.5756
  110OSM   H11T11376   1.017   2.594   9.456  0.4826  0.5645 -0.6937
  110OSM   C12S11377   1.161   2.661   9.313 -0.1145  0.4337 -0.5552
  110OSM   H12S11378   1.199   2.557   9.305 -1.9247 -0.5492  2.6156
  110OSM   H12T11379   1.242   2.736   9.325 -1.0553  1.3138  0.5101
  110OSM   C13S11380   1.065   2.695   9.202 -0.1166  0.3674 -0.2748
  110OSM   H13S11381   1.016   2.793   9.217 -0.6741 -0.2120  1.7564
  110OSM   H13T11382   0.990   2.613   9.198  1.2150 -1.0004  1.4957
  110OSM   C14S11383   1.140   2.693   9.069  0.3535 -1.1565  0.3858
  110OSM   H14S11384   1.211   2.613   9.041 -0.0409 -1.1064 -0.8090
  110OSM   H14T11385   1.199   2.787   9.065  0.0720 -0.9782  0.3863
  110OSM   C15S11386   1.045   2.710   8.947 -1.1231  0.1484 -0.5868
  110OSM   H15S11387   0.950   2.655   8.966 -0.8029 -0.4097 -0.6018
  110OSM   H15T11388   1.089   2.665   8.855  1.2648 -1.4307  1.2701
  110OSM   C16S11389   1.004   2.850   8.916 -0.3510  0.4124  0.0157
  110OSM   H16S11390   1.094   2.909   8.891 -0.5731 -0.2151 -2.3172
  110OSM   H16T11391   0.957   2.897   9.005 -0.4315  0.8835 -0.2740
  110OSM   C17S11392   0.918   2.864   8.793 -0.2342  0.2938 -0.6192
  110OSM   H17S11393   0.881   2.969   8.801  1.2154  0.7838 -0.1987
  110OSM   H17T11394   0.834   2.793   8.810  0.8016 -1.5753 -3.0824
  110OSM   C18S11395   0.989   2.847   8.658  0.1561  0.1518 -0.2187
  110OSM   H18S11396   1.055   2.760   8.642  0.8711  0.3183  1.6788
  110OSM   H18T11397   1.062   2.930   8.643  1.2951 -1.0241 -1.1898
  110OSM   H18U11398   0.906   2.848   8.585 -0.3336 -0.7894  0.3229
  110OSM    C1F11399   0.902   2.918  10.416  0.2691 -0.3915 -0.3029
  110OSM     OF11400   0.961   2.995  10.483 -0.1105  0.3997 -0.1593
  110OSM    C2F11401   0.771   2.969  10.356 -0.4800  0.4480  0.4633
  110OSM    H2F11402   0.734   3.058  10.413  1.1698  1.5269 -0.1312
  110OSM    H2G11403   0.692   2.891  10.362 -1.0399  0.8692 -1.1934
  110OSM    C3F11404   0.787   3.011  10.207  0.1462 -0.0569  0.6741
  110OSM    H3F11405   0.832   2.928  10.148  3.1743  2.3295 -0.4900
  110OSM    H3G11406   0.858   3.096  10.208  0.7286 -0.5437  2.1592
  110OSM    C4F11407   0.650   3.066  10.142 -0.8514  0.4388  0.5827
  110OSM    H4F11408   0.631   3.153  10.209 -0.4016 -0.1156  1.4437
  110OSM    H4G11409   0.570   2.990  10.155  0.5301 -1.1940 -0.3827
  110OSM    C5F11410   0.672   3.116   9.999  0.1255  1.0020 -0.2541
  110OSM    H5F11411   0.757   3.187   9.996 -0.5396  1.7969 -0.2104
  110OSM    H5G11412   0.583   3.167   9.957 -0.7842 -2.4534 -2.7437
  110OSM    C6F11413   0.699   2.999   9.907  0.5902  0.2009 -0.2843
  110OSM    H6F11414   0.606   2.939   9.899 -1.6897  3.6492 -0.1652
  110OSM    H6G11415   0.784   2.942   9.951 -0.3318  0.7889  2.3434
  110OSM    C7F11416   0.742   3.048   9.768  0.1532  0.1321 -0.6177
  110OSM    H7F11417   0.823   3.123   9.778 -1.4769  1.7440  0.9653
  110OSM    H7G11418   0.653   3.099   9.725 -1.2395  0.0741  2.1200
  110OSM    C8F11419   0.795   2.945   9.674  0.5513  0.0509  0.2405
  110OSM    H8F11420   0.898   2.928   9.714 -0.7081 -1.4604  2.9607
  110OSM    H8G11421   0.801   3.000   9.578  1.5732 -0.8674 -0.2362
  110OSM    C9F11422   0.726   2.812   9.654  0.7420 -0.0692  0.0024
  110OSM    H9F11423   0.692   2.759   9.744  0.1031 -1.8646 -1.2661
  110OSM   C10F11424   0.696   2.760   9.531  0.1609 -0.5243  0.5174
  110OSM   H10F11425   0.647   2.661   9.536  1.3909 -1.1568  0.3385
  110OSM   C11F11426   0.734   2.797   9.389 -0.0915 -0.4547 -0.2402
  110OSM   H11F11427   0.816   2.730   9.356 -0.6375 -0.4934 -1.5411
  110OSM   H11G11428   0.764   2.903   9.380 -2.0624 -0.1016 -3.2351
  110OSM   C12F11429   0.608   2.782   9.303  0.1509  0.7056 -0.1362
  110OSM   H12F11430   0.530   2.858   9.326  1.7010  2.2953  0.0273
  110OSM   H12G11431   0.567   2.681   9.321  2.8596 -0.4772 -0.3962
  110OSM   C13F11432   0.631   2.796   9.148 -0.4667 -0.2351 -1.1127
  110OSM   H13F11433   0.725   2.748   9.112  0.2379 -0.2225  0.6738
  110OSM   H13G11434   0.646   2.904   9.125  1.3743  0.0458  1.2128
  110OSM   C14F11435   0.527   2.720   9.075  0.4345  0.0244  0.6124
  110OSM   H14F11436   0.435   2.782   9.083 -0.0877 -0.8231  1.2613
  110OSM   H14G11437   0.518   2.616   9.113  0.9048 -1.3494 -2.8468
  110OSM   C15F11438   0.545   2.702   8.926  0.3726 -1.3171  0.2119
  110OSM   H15F11439   0.486   2.619   8.881 -1.4603 -0.1744  0.4909
  110OSM   H15G11440   0.650   2.664   8.921  0.9739  0.2727  0.5783
  110OSM   C16F11441   0.530   2.823   8.841 -0.2622 -0.6360 -0.0875
  110OSM   H16F11442   0.594   2.907   8.873  1.8480 -1.4103 -2.1361
  110OSM   H16G11443   0.427   2.863   8.853 -0.0294 -0.4356  1.2818
  110OSM   C17F11444   0.575   2.796   8.695  0.0747  0.0952  0.0257
  110OSM   H17F11445   0.508   2.719   8.649 -0.2458  0.6647 -0.4788
  110OSM   H17G11446   0.678   2.756   8.683  0.6053  1.3288  0.3486
  110OSM   C18F11447   0.550   2.914   8.604  0.4553  0.0913 -0.6333
  110OSM   H18F11448   0.599   3.003   8.651  2.0872 -0.2600 -1.6312
  110OSM   H18G11449   0.444   2.942   8.586  0.4906  0.7659  0.1632
  110OSM   H18H11450   0.598   2.892   8.506  1.6834  0.2709 -0.0912
  111OSM      N11451   2.372   6.284  10.574 -0.4913  0.0697  0.0231
  111OSM    C1511452   2.304   6.171  10.516  0.0105  0.2130 -0.7165
  111OSM   H15A11453   2.320   6.176  10.409 -0.6515 -1.5382 -0.9185
  111OSM   H15B11454   2.200   6.174  10.544  0.5248  1.3132  1.1343
  111OSM   H15C11455   2.358   6.082  10.543  1.0835  1.4110  1.1603
  111OSM    C1411456   2.527   6.260  10.558 -0.4235 -0.1596 -0.8424
  111OSM   H14A11457   2.574   6.350  10.595 -1.0791 -1.0240  2.2371
  111OSM   H14B11458   2.548   6.238  10.454  1.7541  0.8677 -0.6431
  111OSM   H14C11459   2.568   6.172  10.606 -1.2008 -0.9500 -1.6107
  111OSM    C1311460   2.343   6.415  10.505 -0.0524 -0.0778 -0.8533
  111OSM   H13A11461   2.242   6.453  10.515 -0.9596 -2.7718  0.8642
  111OSM   H13B11462   2.368   6.406  10.400  2.3345  0.9424 -0.4069
  111OSM   H13C11463   2.420   6.484  10.536  1.1216 -2.0874  0.8331
  111OSM    C1211464   2.337   6.304  10.724  0.5610  0.3955 -0.7588
  111OSM   H12A11465   2.392   6.387  10.768 -0.5441  1.8953 -2.1298
  111OSM   H12B11466   2.364   6.215  10.778 -0.7792 -0.6665 -1.8127
  111OSM    C1111467   2.196   6.338  10.753  0.3881 -0.1383 -0.3314
  111OSM   H11A11468   2.178   6.440  10.712 -0.9679 -1.3579 -2.9440
  111OSM   H11B11469   2.194   6.353  10.863  1.0734  1.1187 -0.4816
  111OSM      P11470   1.949   6.259  10.676 -0.0099  0.2118  0.7239
  111OSM    O1311471   1.898   6.130  10.618  0.4875 -0.1349  0.7729
  111OSM    O1411472   1.882   6.305  10.798  0.3437 -0.1250  0.2628
  111OSM    O1111473   1.948   6.374  10.557  0.2142  0.4155 -0.1548
  111OSM    O1211474   2.102   6.236  10.717 -0.2233  0.1028 -0.4268
  111OSM    C1S11475   1.961   6.326  10.423 -0.3218 -0.5554 -0.3355
  111OSM    H1S11476   1.887   6.252  10.387 -2.5109  2.0948 -1.4987
  111OSM    H1T11477   2.066   6.299  10.400 -0.0481  0.0481  0.1816
  111OSM     NF11478   1.911   6.397  10.188  0.4014  0.0940  0.9649
  111OSM    HNF11479   1.980   6.425  10.122 -0.5026 -0.1562 -0.1065
  111OSM    C2S11480   1.928   6.449  10.321 -0.1180 -0.3473  0.6203
  111OSM    H2S11481   1.834   6.494  10.360  0.4780  1.2093  0.2916
  111OSM    C3S11482   2.034   6.559  10.345 -0.1342 -0.2620 -0.6375
  111OSM    H3S11483   2.135   6.520  10.318 -0.5842 -1.6929 -0.3204
  111OSM     O311484   2.067   6.609  10.473  0.2094  0.1531  0.0550
  111OSM    HO311485   2.004   6.563  10.528 -0.1536 -2.8655 -2.7913
  111OSM    C4S11486   2.001   6.681  10.254  0.4980  0.2160 -0.6960
  111OSM    H4S11487   2.084   6.705  10.186  0.0528 -2.3013 -2.2160
  111OSM    C5S11488   1.904   6.764  10.268 -0.7241 -0.0471  0.2488
  111OSM    H5S11489   1.836   6.746  10.353  0.9051  0.2634  1.6343
  111OSM    C6S11490   1.864   6.883  10.187 -0.0964 -1.0271 -0.0253
  111OSM    H6S11491   1.882   6.975  10.246 -0.0595 -2.9987  3.2048
  111OSM    H6T11492   1.755   6.874  10.167  0.4706 -0.6400 -3.6778
  111OSM    C7S11493   1.928   6.899  10.051 -0.1458 -0.6489 -0.9344
  111OSM    H7S11494   1.922   6.807   9.989 -0.9372 -0.8941 -0.5071
  111OSM    H7T11495   2.034   6.931  10.050 -0.9724  2.4148  1.4075
  111OSM    C8S11496   1.855   7.009   9.977  0.4776  0.4463  0.0728
  111OSM    H8S11497   1.886   7.108  10.017 -3.8160  2.4157 -1.0767
  111OSM    H8T11498   1.746   6.995   9.994  0.4169 -0.0928 -0.7503
  111OSM    C9S11499   1.896   7.019   9.826 -0.3579 -0.1151  0.0684
  111OSM    H9S11500   1.834   7.097   9.779 -1.8872 -1.1209  0.3766
  111OSM    H9T11501   1.876   6.925   9.771 -0.9342  0.0623 -0.0282
  111OSM   C10S11502   2.044   7.070   9.804 -0.1169 -0.3442  0.5743
  111OSM   H10S11503   2.112   7.032   9.884 -1.0061  0.0638  1.5395
  111OSM   H10T11504   2.031   7.180   9.801 -0.0541 -0.3080  1.4795
  111OSM   C11S11505   2.092   7.033   9.662 -0.5259 -0.3055 -0.2340
  111OSM   H11S11506   2.096   6.923   9.643 -0.3032 -0.2636 -0.4281
  111OSM   H11T11507   2.194   7.070   9.639 -0.2889 -0.4922  0.4932
  111OSM   C12S11508   2.009   7.094   9.550  0.3385 -0.4354  0.1409
  111OSM   H12S11509   2.016   7.204   9.559  0.4465 -0.4302 -0.0131
  111OSM   H12T11510   1.904   7.061   9.565  1.1755 -2.4409  1.8763
  111OSM   C13S11511   2.058   7.047   9.413 -0.3319  0.3320  0.1929
  111OSM   H13S11512   2.002   6.953   9.394  0.4197 -0.4771  1.9452
  111OSM   H13T11513   2.166   7.025   9.426 -0.3414  0.5131  0.6011
  111OSM   C14S11514   2.026   7.138   9.298  0.5892  0.1823 -0.2159
  111OSM   H14S11515   2.086   7.229   9.318 -1.0770  0.9180  1.6187
  111OSM   H14T11516   1.921   7.175   9.294 -0.5740 -2.8994  0.5147
  111OSM   C15S11517   2.042   7.064   9.167 -0.6266  0.4420  0.6759
  111OSM   H15S11518   1.991   6.965   9.169 -0.2877  0.2492  0.0025
  111OSM   H15T11519   2.148   7.037   9.148 -0.1119  1.8384  1.4677
  111OSM   C16S11520   1.993   7.147   9.040 -0.6981 -0.0145  0.0163
  111OSM   H16S11521   1.890   7.186   9.055 -0.4212  0.7095  0.0379
  111OSM   H16T11522   1.988   7.069   8.961 -3.0129 -0.0893  0.1985
  111OSM   C17S11523   2.100   7.248   8.989  0.7860 -0.5500 -0.3747
  111OSM   H17S11524   2.122   7.325   9.066 -0.5728 -1.3517  0.8579
  111OSM   H17T11525   2.053   7.304   8.905 -1.3759  0.4198  1.4178
  111OSM   C18S11526   2.229   7.179   8.942 -0.6596 -0.0993  0.3619
  111OSM   H18S11527   2.292   7.131   9.019 -1.8239 -1.5946  0.3957
  111OSM   H18T11528   2.296   7.248   8.886  1.0268 -2.3561 -0.4835
  111OSM   H18U11529   2.207   7.099   8.868  1.2583 -0.8636  0.5752
  111OSM    C1F11530   1.812   6.322  10.150 -0.1401  0.4156  0.0941
  111OSM     OF11531   1.716   6.292  10.227 -0.1517  0.7303 -0.0299
  111OSM    C2F11532   1.812   6.270  10.010  0.2649  0.0601 -0.7135
  111OSM    H2F11533   1.903   6.207  10.002  0.8179  0.8249 -0.4998
  111OSM    H2G11534   1.823   6.353   9.937  1.6026  1.1604  0.7032
  111OSM    C3F11535   1.683   6.186   9.984  0.4549  1.1677  0.0856
  111OSM    H3F11536   1.597   6.252  10.006  0.3994  1.3185 -0.5749
  111OSM    H3G11537   1.674   6.107  10.061 -1.7643  0.1032 -1.2096
  111OSM    C4F11538   1.669   6.128   9.845  0.2965  0.4297 -0.1897
  111OSM    H4F11539   1.584   6.056   9.847  0.1119  0.6287  3.4638
  111OSM    H4G11540   1.761   6.069   9.831 -0.0168 -0.0867 -0.0967
  111OSM    C5F11541   1.659   6.227   9.733 -0.8534 -0.7508  0.2497
  111OSM    H5F11542   1.758   6.276   9.721 -0.3668 -1.9809 -0.9140
  111OSM    H5G11543   1.577   6.301   9.752  1.0181  0.9149  2.0385
  111OSM    C6F11544   1.630   6.157   9.596  0.2428 -0.3841 -0.1867
  111OSM    H6F11545   1.553   6.077   9.595  3.5311 -3.7329  0.4915
  111OSM    H6G11546   1.727   6.112   9.563  0.3014 -0.7894  0.5240
  111OSM    C7F11547   1.586   6.269   9.495  0.0660 -1.2585 -0.4130
  111OSM    H7F11548   1.653   6.356   9.515 -4.5339  2.0880  1.5489
  111OSM    H7G11549   1.486   6.291   9.539  0.3073  0.5852 -0.7152
  111OSM    C8F11550   1.580   6.235   9.345 -0.5948  0.9281 -0.2741
  111OSM    H8F11551   1.555   6.328   9.288  3.8624  1.8695 -0.8377
  111OSM    H8G11552   1.497   6.162   9.336 -0.1833  0.5103 -0.6480
  111OSM    C9F11553   1.713   6.188   9.291  0.4685 -0.2357  0.6145
  111OSM    H9F11554   1.772   6.124   9.359  0.4414 -1.3768 -0.4300
  111OSM   C10F11555   1.760   6.218   9.171 -0.4936 -0.7930  0.7619
  111OSM   H10F11556   1.849   6.160   9.141 -1.8777 -1.8131 -1.5265
  111OSM   C11F11557   1.702   6.313   9.065  0.6804  0.1395 -0.0560
  111OSM   H11F11558   1.779   6.377   9.016 -1.1311  1.2682 -1.5091
  111OSM   H11G11559   1.623   6.378   9.108  1.5205 -0.6948  2.8250
  111OSM   C12F11560   1.641   6.240   8.945 -0.1425 -0.2988  0.4593
  111OSM   H12F11561   1.610   6.311   8.866  1.2602  1.8436  1.7881
  111OSM   H12G11562   1.551   6.187   8.983  1.0472 -1.1566  2.1537
  111OSM   C13F11563   1.754   6.152   8.880  0.0462  0.3226  0.1786
  111OSM   H13F11564   1.794   6.080   8.955  0.0282 -0.1524 -0.2681
  111OSM   H13G11565   1.834   6.209   8.829 -0.6227  0.7222 -0.4284
  111OSM   C14F11566   1.712   6.067   8.771  0.0183  0.3271  0.3272
  111OSM   H14F11567   1.711   6.128   8.678 -1.5551 -1.3648 -0.8025
  111OSM   H14G11568   1.606   6.038   8.785 -0.6271  1.6335 -1.5578
  111OSM   C15F11569   1.792   5.932   8.750  1.0881 -0.2006 -0.3854
  111OSM   H15F11570   1.764   5.856   8.826 -0.0839  1.5684  0.9877
  111OSM   H15G11571   1.897   5.963   8.764  1.2039 -1.2759  1.2308
  111OSM   C16F11572   1.789   5.869   8.609  0.0473 -0.2243 -0.3243
  111OSM   H16F11573   1.688   5.850   8.567 -0.5725  4.4498 -1.1592
  111OSM   H16G11574   1.828   5.765   8.614  3.6287  1.0324 -0.0728
  111OSM   C17F11575   1.890   5.935   8.515 -0.1444  0.4030  0.2033
  111OSM   H17F11576   1.981   5.945   8.577  0.8346  0.7574 -1.2744
  111OSM   H17G11577   1.848   6.036   8.498 -0.2815  0.5518  1.3951
  111OSM   C18F11578   1.908   5.856   8.378 -0.3162  0.1972  0.3422
  111OSM   H18F11579   1.995   5.890   8.318 -0.3523 -0.0249  0.1615
  111OSM   H18G11580   1.814   5.861   8.318  0.3076 -1.0586 -0.7783
  111OSM   H18H11581   1.921   5.748   8.402  0.2912 -0.1220 -1.3406
  112OSM      N11582   2.411   4.041  10.942  1.1144 -0.4387 -0.3859
  112OSM    C1511583   2.282   4.109  10.924  0.1805 -0.5860 -0.4916
  112OSM   H15A11584   2.305   4.208  10.888  1.5182 -0.1011  1.6016
  112OSM   H15B11585   2.228   4.115  11.018 -0.5432  3.2638 -1.0852
  112OSM   H15C11586   2.218   4.049  10.861 -0.5928 -1.3412  0.9661
  112OSM    C1411587   2.423   3.951  10.823 -0.4445  0.2612  0.1235
  112OSM   H14A11588   2.517   3.898  10.825 -1.0970 -0.8904  0.8552
  112OSM   H14B11589   2.413   3.996  10.725  0.6272  0.3378  0.0452
  112OSM   H14C11590   2.341   3.880  10.827  0.3161 -0.5979  0.6196
  112OSM    C1311591   2.523   4.138  10.943  0.3232  0.3211  0.2375
  112OSM   H13A11592   2.532   4.171  10.841 -0.7933 -1.1156 -0.3493
  112OSM   H13B11593   2.613   4.080  10.953 -0.8996 -1.6227  0.3031
  112OSM   H13C11594   2.512   4.211  11.022 -0.9714  0.3462  0.0508
  112OSM    C1211595   2.409   3.957  11.072  0.7121  0.1988  0.0807
  112OSM   H12A11596   2.398   4.008  11.167  0.4885  0.6634 -0.1923
  112OSM   H12B11597   2.508   3.917  11.083  0.9579  0.2561 -1.8099
  112OSM    C1111598   2.316   3.832  11.094  0.2626 -0.5662  0.4944
  112OSM   H11A11599   2.300   3.815  11.202 -0.7281  0.8537  0.5846
  112OSM   H11B11600   2.362   3.738  11.056 -1.5719 -1.5026  0.5199
  112OSM      P11601   2.082   3.751  10.996 -0.0922  0.0068  0.0084
  112OSM    O1311602   2.151   3.653  10.909  0.3276 -0.6766  0.2127
  112OSM    O1411603   2.019   3.701  11.121  0.3451 -0.0777 -0.1365
  112OSM    O1111604   1.976   3.828  10.909 -0.1914  0.1121 -0.3641
  112OSM    O1211605   2.182   3.866  11.045 -0.4091 -0.5292  0.7550
  112OSM    C1S11606   2.017   3.893  10.792 -0.3550 -0.4746  0.5461
  112OSM    H1S11607   2.120   3.935  10.794  0.1318 -1.7155  2.7263
  112OSM    H1T11608   1.955   3.984  10.779  0.8041  0.4535  1.4376
  112OSM     NF11609   2.043   3.885  10.549  0.6528  0.7121 -0.5244
  112OSM    HNF11610   1.984   3.950  10.502  0.6437  1.9049  1.0673
  112OSM    C2S11611   1.987   3.814  10.662  0.3340  0.1487  0.2649
  112OSM    H2S11612   2.033   3.713  10.670  1.1724  0.5485  0.5831
  112OSM    C3S11613   1.835   3.783  10.654 -0.3043 -0.2776  1.0296
  112OSM    H3S11614   1.784   3.880  10.637  0.6500  0.1801  0.7103
  112OSM     O311615   1.788   3.718  10.768  0.2225  0.0074  0.1545
  112OSM    HO311616   1.862   3.737  10.825 -1.6158  0.8269  2.3521
  112OSM    C4S11617   1.804   3.702  10.532 -0.7403  0.3550 -0.2733
  112OSM    H4S11618   1.784   3.772  10.449 -2.0111  0.8235  0.4211
  112OSM    C5S11619   1.783   3.575  10.514 -0.4568  0.9879  0.1314
  112OSM    H5S11620   1.780   3.500  10.595  0.4974  1.7059  0.8553
  112OSM    C6S11621   1.738   3.516  10.381 -0.1789  0.4762 -0.8669
  112OSM    H6S11622   1.760   3.590  10.301 -0.0674  1.8238  0.3897
  112OSM    H6T11623   1.627   3.509  10.371  0.0097 -0.8167 -2.1183
  112OSM    C7S11624   1.791   3.379  10.362 -0.2387  0.2793 -0.1873
  112OSM    H7S11625   1.759   3.315  10.447 -2.0160  0.5646 -0.6255
  112OSM    H7T11626   1.902   3.385  10.355 -0.3440  2.3961 -0.2509
  112OSM    C8S11627   1.755   3.314  10.221 -0.2822 -0.2779  0.2931
  112OSM    H8S11628   1.644   3.313  10.207 -0.3274 -0.1785  0.6334
  112OSM    H8T11629   1.784   3.207  10.210  0.6841 -0.0223  0.3439
  112OSM    C9S11630   1.812   3.386  10.096 -0.3139 -0.1147  0.9681
  112OSM    H9S11631   1.916   3.357  10.071 -0.2571  1.6316 -1.0130
  112OSM    H9T11632   1.811   3.496  10.113  4.0451  0.0813  0.4127
  112OSM   C10S11633   1.739   3.352   9.960  0.0034  0.3696 -0.1993
  112OSM   H10S11634   1.631   3.377   9.962  0.4035  2.4354 -2.5674
  112OSM   H10T11635   1.751   3.243   9.941 -1.3890  0.5544 -2.3038
  112OSM   C11S11636   1.807   3.414   9.837  0.2103 -0.1327 -0.0946
  112OSM   H11S11637   1.916   3.410   9.857  0.8501  1.2659 -2.9729
  112OSM   H11T11638   1.786   3.523   9.822 -2.2363 -0.5552  0.0592
  112OSM   C12S11639   1.795   3.345   9.702  0.3864 -0.4541 -0.0499
  112OSM   H12S11640   1.687   3.343   9.676 -0.6082 -1.4581  3.7748
  112OSM   H12T11641   1.836   3.241   9.700 -1.8210 -1.3550 -0.9808
  112OSM   C13S11642   1.867   3.414   9.582  0.4349 -0.0137 -0.1304
  112OSM   H13S11643   1.970   3.433   9.618  0.3560 -1.7302  1.0624
  112OSM   H13T11644   1.822   3.514   9.565 -1.1382 -0.6474  0.1931
  112OSM   C14S11645   1.880   3.337   9.448  0.1700  1.0107  0.1113
  112OSM   H14S11646   1.917   3.234   9.463 -3.1855 -0.4244 -1.0503
  112OSM   H14T11647   1.952   3.391   9.383 -2.8874  2.0807 -2.5495
  112OSM   C15S11648   1.747   3.317   9.367  0.0249  0.1197  0.1730
  112OSM   H15S11649   1.671   3.263   9.426 -3.2684  2.0284 -2.1602
  112OSM   H15T11650   1.774   3.249   9.283  0.4569  3.3050 -2.3521
  112OSM   C16S11651   1.687   3.446   9.310  0.0502 -0.1213  0.2212
  112OSM   H16S11652   1.766   3.512   9.271 -0.0940  1.3149  2.2490
  112OSM   H16T11653   1.627   3.477   9.399  0.5842  1.2893  0.0957
  112OSM   C17S11654   1.583   3.420   9.195  0.1320 -0.6529  0.2047
  112OSM   H17S11655   1.496   3.364   9.233 -0.3460  0.4607  0.7792
  112OSM   H17T11656   1.634   3.363   9.114  0.9042  1.3812 -0.7735
  112OSM   C18S11657   1.538   3.556   9.139  0.2190  1.1715 -0.3532
  112OSM   H18S11658   1.616   3.622   9.094  0.5803 -0.5966 -2.3927
  112OSM   H18T11659   1.487   3.615   9.218  0.3427  1.5672 -0.5656
  112OSM   H18U11660   1.460   3.543   9.060  0.7400  1.0207 -0.8433
  112OSM    C1F11661   2.178   3.894  10.531 -0.3600  0.3162  0.3559
  112OSM     OF11662   2.252   3.827  10.602  0.3603 -0.0478 -0.0769
  112OSM    C2F11663   2.236   3.987  10.432  0.0130 -0.1993  0.2953
  112OSM    H2F11664   2.324   4.034  10.480  0.5016 -1.4608  0.6668
  112OSM    H2G11665   2.156   4.061  10.409  0.2847 -1.3358 -4.7875
  112OSM    C3F11666   2.284   3.907  10.314 -0.3644 -0.8581 -0.2604
  112OSM    H3F11667   2.208   3.833  10.279  0.3862 -1.3304 -0.9097
  112OSM    H3G11668   2.368   3.839  10.338  1.6470  2.4891  2.6087
  112OSM    C4F11669   2.303   4.002  10.194 -0.7044  0.4710  0.0658
  112OSM    H4F11670   2.391   4.068  10.213 -0.2942  0.2458 -1.0207
  112OSM    H4G11671   2.207   4.055  10.175 -0.4193  0.4310 -1.5413
  112OSM    C5F11672   2.342   3.930  10.058  0.2219 -0.7592  0.1947
  112OSM    H5F11673   2.258   3.866  10.022 -0.4939 -0.4335  1.2732
  112OSM    H5G11674   2.423   3.855  10.068 -1.1912 -2.5072 -1.1178
  112OSM    C6F11675   2.385   4.039   9.948 -0.2079 -0.5709 -0.7754
  112OSM    H6F11676   2.482   4.081   9.982  0.7498 -2.0618 -1.5896
  112OSM    H6G11677   2.302   4.110   9.929  0.1100  0.4182  1.4420
  112OSM    C7F11678   2.425   3.975   9.808 -0.4855 -0.2438  0.3359
  112OSM    H7F11679   2.501   3.896   9.827 -0.4473 -0.4862 -0.7870
  112OSM    H7G11680   2.477   4.048   9.743  0.3090  0.0545  1.3105
  112OSM    C8F11681   2.299   3.921   9.728 -0.7834 -0.9214  0.5226
  112OSM    H8F11682   2.254   3.833   9.778  0.9353 -2.0078  0.1894
  112OSM    H8G11683   2.352   3.895   9.634 -0.6213  3.7202 -0.7980
  112OSM    C9F11684   2.198   4.035   9.701 -0.8541  0.9151 -0.0166
  112OSM    H9F11685   2.190   4.105   9.786 -1.3142  1.4150 -0.4711
  112OSM   C10F11686   2.147   4.071   9.586 -0.7332 -0.1844 -0.4869
  112OSM   H10F11687   2.074   4.152   9.598  1.2602  1.2826  2.4903
  112OSM   C11F11688   2.173   3.999   9.454  0.0395  0.6157 -0.2216
  112OSM   H11F11689   2.082   3.967   9.400 -0.2696 -0.7305  1.0619
  112OSM   H11G11690   2.232   3.905   9.464  1.7544  1.7203  0.3568
  112OSM   C12F11691   2.253   4.093   9.362  0.2775 -0.0783 -0.2005
  112OSM   H12F11692   2.355   4.110   9.402 -0.8245 -0.5655  3.0166
  112OSM   H12G11693   2.213   4.196   9.377  1.3055 -0.1234  3.4496
  112OSM   C13F11694   2.277   4.053   9.214 -0.0677 -0.0523 -0.2048
  112OSM   H13F11695   2.174   4.047   9.172 -0.2206 -0.6921  0.2489
  112OSM   H13G11696   2.303   3.945   9.218 -2.2580 -0.5439  3.3393
  112OSM   C14F11697   2.374   4.129   9.134 -0.3722 -0.1963  0.2093
  112OSM   H14F11698   2.397   4.075   9.039 -0.1734 -1.6921  1.0985
  112OSM   H14G11699   2.470   4.129   9.190 -1.3392 -3.6360  2.0097
  112OSM   C15F11700   2.330   4.273   9.099 -0.1804 -0.5975  0.2163
  112OSM   H15F11701   2.331   4.334   9.191  0.9512 -0.8098  0.3453
  112OSM   H15G11702   2.223   4.273   9.067  0.3502  2.0065 -1.7669
  112OSM   C16F11703   2.418   4.336   8.992  0.9245  0.6057  0.1056
  112OSM   H16F11704   2.428   4.258   8.913  2.3711 -0.6762  1.5036
  112OSM   H16G11705   2.523   4.354   9.023  1.2166  0.2803 -0.6656
  112OSM   C17F11706   2.342   4.456   8.920  0.0606  0.1876  0.1042
  112OSM   H17F11707   2.316   4.532   8.997  0.3291 -0.4985  0.8759
  112OSM   H17G11708   2.246   4.423   8.875  0.3693 -0.8553  0.1816
  112OSM   C18F11709   2.424   4.537   8.813 -0.2008  0.4747  0.3826
  112OSM   H18F11710   2.356   4.622   8.789 -1.8964 -0.9136  0.1196
  112OSM   H18G11711   2.437   4.479   8.719  2.5706 -1.1151  1.6908
  112OSM   H18H11712   2.525   4.570   8.845  1.1441 -0.3740 -2.7207
  113OSM      N11713   6.549   0.401  11.153 -0.1467 -0.3409  0.0843
  113OSM    C1511714   6.471   0.307  11.227  0.9158  0.7946 -0.5058
  113OSM   H15A11715   6.381   0.276  11.176  0.6507 -2.0179  1.5562
  113OSM   H15B11716   6.456   0.346  11.327 -0.8893 -2.6995  0.6783
  113OSM   H15C11717   6.519   0.211  11.239  0.2033  0.2791 -1.6815
  113OSM    C1411718   6.653   0.466  11.236 -0.7732 -0.1808  0.2851
  113OSM   H14A11719   6.606   0.513  11.321  0.8875 -0.1346  1.2063
  113OSM   H14B11720   6.703   0.542  11.178 -1.9952 -1.4215 -2.4628
  113OSM   H14C11721   6.734   0.401  11.268 -0.1932 -0.3939 -1.5721
  113OSM    C1311722   6.624   0.335  11.041  0.2851 -0.4226 -0.1526
  113OSM   H13A11723   6.546   0.283  10.986 -1.0933 -1.1090  2.3780
  113OSM   H13B11724   6.683   0.251  11.074  0.1726 -0.4631 -0.0570
  113OSM   H13C11725   6.669   0.402  10.969 -1.2555 -0.4258 -1.1640
  113OSM    C1211726   6.449   0.505  11.098 -0.4922 -0.3295 -0.3920
  113OSM   H12A11727   6.508   0.589  11.064  1.9756 -3.3715 -3.9586
  113OSM   H12B11728   6.392   0.545  11.181  0.8720 -3.5999  2.2615
  113OSM    C1111729   6.355   0.463  10.980  0.6141  0.6736 -0.3049
  113OSM   H11A11730   6.422   0.466  10.891  0.3815  4.4849 -0.4650
  113OSM   H11B11731   6.286   0.551  10.984  1.6698  1.6746 -2.6899
  113OSM      P11732   6.233   0.251  10.886 -0.3705 -0.0716  0.5516
  113OSM    O1311733   6.338   0.181  10.813  0.0785 -0.5233  0.0346
  113OSM    O1411734   6.149   0.155  10.959  0.6522  0.4044  0.2746
  113OSM    O1111735   6.156   0.361  10.803  0.4383  0.0473 -0.0855
  113OSM    O1211736   6.295   0.337  11.001 -0.4091  0.0422  0.2686
  113OSM    C1S11737   6.177   0.391  10.661  0.3337  0.0690  0.3041
  113OSM    H1S11738   6.164   0.298  10.602  1.0695 -2.6447  4.1970
  113OSM    H1T11739   6.275   0.442  10.654 -0.6977  2.2531  1.2920
  113OSM     NF11740   6.143   0.547  10.476  0.2943 -0.1692  0.9390
  113OSM    HNF11741   6.194   0.633  10.476 -0.8248  0.5123 -0.0280
  113OSM    C2S11742   6.081   0.504  10.605 -0.0955  0.2314  0.2341
  113OSM    H2S11743   5.985   0.451  10.591  0.1158 -0.5610  1.7277
  113OSM    C3S11744   6.062   0.621  10.703  0.2165  0.4377 -0.0240
  113OSM    H3S11745   6.154   0.681  10.722  1.3319 -1.8130  2.1120
  113OSM     O311746   6.025   0.582  10.832 -0.1833 -0.5993  0.0461
  113OSM    HO311747   6.045   0.488  10.832  1.6772 -0.2223 -1.0023
  113OSM    C4S11748   5.962   0.706  10.656 -0.4236 -0.5473 -0.0743
  113OSM    H4S11749   5.861   0.662  10.665 -1.8075  2.7959  1.9188
  113OSM    C5S11750   5.966   0.825  10.602 -0.5251  0.1850 -0.5315
  113OSM    H5S11751   6.058   0.886  10.598 -0.5014  0.3121  1.5918
  113OSM    C6S11752   5.846   0.901  10.546 -0.1584 -0.0598  0.3040
  113OSM    H6S11753   5.806   0.987  10.603  0.1062 -0.7677  1.5688
  113OSM    H6T11754   5.760   0.831  10.538 -2.4384  2.7996 -1.2425
  113OSM    C7S11755   5.883   0.967  10.411  0.0608  0.3178  0.6949
  113OSM    H7S11756   5.950   1.052  10.436 -1.3551  1.7640 -0.3924
  113OSM    H7T11757   5.787   0.995  10.363 -0.6934  0.2844  2.1578
  113OSM    C8S11758   5.955   0.868  10.308  0.1133  0.5819  0.3307
  113OSM    H8S11759   5.935   0.761  10.327 -0.2656  0.0080 -3.0724
  113OSM    H8T11760   6.063   0.870  10.332  0.3970 -1.5189 -0.6588
  113OSM    C9S11761   5.929   0.913  10.166 -0.8808  0.0300 -1.1799
  113OSM    H9S11762   5.986   1.007  10.154  0.9232 -0.8768  0.1145
  113OSM    H9T11763   5.819   0.923  10.155 -1.2037 -1.8553  0.1812
  113OSM   C10S11764   5.996   0.827  10.063  0.1021 -0.1074 -0.0940
  113OSM   H10S11765   5.933   0.736  10.051  0.6129 -0.2959 -1.5192
  113OSM   H10T11766   6.096   0.794  10.097 -0.0336  0.3897  0.7943
  113OSM   C11S11767   5.993   0.899   9.930 -0.7458 -0.5713  0.7552
  113OSM   H11S11768   6.029   1.004   9.938 -1.5904 -0.0908 -1.4125
  113OSM   H11T11769   5.886   0.919   9.910 -0.4849 -1.8569 -2.0946
  113OSM   C12S11770   6.038   0.817   9.807  0.7999 -0.1773 -0.1789
  113OSM   H12S11771   5.973   0.729   9.789  0.2698  0.3975 -1.0610
  113OSM   H12T11772   6.141   0.780   9.827  0.7250 -0.5768 -0.5198
  113OSM   C13S11773   6.024   0.911   9.676  0.2889 -0.2044  0.0123
  113OSM   H13S11774   6.097   0.994   9.683  1.6935 -1.0706 -3.4610
  113OSM   H13T11775   5.930   0.969   9.688 -0.8737 -2.1929  0.7788
  113OSM   C14S11776   6.027   0.833   9.545  0.8672 -0.9419 -0.1360
  113OSM   H14S11777   5.951   0.752   9.555  0.1754 -0.1436  1.3263
  113OSM   H14T11778   6.122   0.777   9.530  1.2645 -0.4299  0.4708
  113OSM   C15S11779   5.994   0.921   9.416  0.8138 -0.0232  0.5550
  113OSM   H15S11780   6.023   0.852   9.334  1.6482  2.4101 -1.2912
  113OSM   H15T11781   6.061   1.009   9.406  1.1618 -0.2519  0.8997
  113OSM   C16S11782   5.846   0.966   9.410 -0.4563  0.0329 -0.3561
  113OSM   H16S11783   5.835   1.025   9.504  2.0788  0.5960 -0.3781
  113OSM   H16T11784   5.786   0.875   9.393  0.6997 -0.7104 -0.4813
  113OSM   C17S11785   5.838   1.065   9.291  0.6989  0.2908  0.5760
  113OSM   H17S11786   5.938   1.107   9.273  1.5484 -1.5939  0.7251
  113OSM   H17T11787   5.767   1.145   9.320 -0.1511 -0.1704 -0.1823
  113OSM   C18S11788   5.791   0.999   9.155  0.3898  0.2204 -0.0590
  113OSM   H18S11789   5.841   0.906   9.121  0.3905 -0.4948  1.8492
  113OSM   H18T11790   5.806   1.068   9.069  0.3579  0.1626 -0.1116
  113OSM   H18U11791   5.681   0.986   9.166  0.2552  2.1757  1.2674
  113OSM    C1F11792   6.148   0.469  10.370  0.3165 -0.3481 -0.2727
  113OSM     OF11793   6.093   0.360  10.370  0.3786 -0.1217 -0.3270
  113OSM    C2F11794   6.231   0.521  10.250  0.1847 -0.3192  0.3075
  113OSM    H2F11795   6.338   0.526  10.277  0.9034  1.1116 -2.6520
  113OSM    H2G11796   6.196   0.625  10.230 -0.1976 -0.1212  1.9336
  113OSM    C3F11797   6.215   0.440  10.117  0.3147  0.1538  0.0674
  113OSM    H3F11798   6.107   0.445  10.091 -0.0772 -1.9350  1.2222
  113OSM    H3G11799   6.236   0.331  10.127 -1.0647  0.0271  1.9060
  113OSM    C4F11800   6.282   0.515   9.996 -0.0528 -0.0447  0.0745
  113OSM    H4F11801   6.392   0.506  10.006 -0.0964 -2.7310 -1.2471
  113OSM    H4G11802   6.249   0.621   9.997 -1.6340 -0.5066 -0.7451
  113OSM    C5F11803   6.254   0.433   9.862  0.0135  1.0152 -0.0982
  113OSM    H5F11804   6.277   0.332   9.904 -0.2779  1.9991  2.5233
  113OSM    H5G11805   6.326   0.451   9.780 -0.0840  0.4911 -0.3028
  113OSM    C6F11806   6.119   0.451   9.806  0.0730  0.5786  0.0457
  113OSM    H6F11807   6.108   0.561   9.789 -0.1005  0.6771  0.8126
  113OSM    H6G11808   6.052   0.426   9.891 -2.0095  1.0595 -1.4198
  113OSM    C7F11809   6.090   0.367   9.687 -0.7400  0.0813  0.3044
  113OSM    H7F11810   5.988   0.401   9.660 -0.6507 -1.2326 -1.7760
  113OSM    H7G11811   6.088   0.260   9.717 -0.8316 -0.6617 -2.2514
  113OSM    C8F11812   6.186   0.374   9.564 -0.5281 -0.4519  0.9613
  113OSM    H8F11813   6.188   0.283   9.501 -1.0117  2.7155 -3.9714
  113OSM    H8G11814   6.293   0.376   9.593 -0.4572 -0.5246  0.7031
  113OSM    C9F11815   6.161   0.489   9.468  0.2585  0.3721 -0.6853
  113OSM    H9F11816   6.193   0.585   9.512 -1.3220  2.2237 -3.4117
  113OSM   C10F11817   6.107   0.488   9.343 -0.8116  1.1322 -0.5646
  113OSM   H10F11818   6.089   0.588   9.300  1.2308  0.8569 -2.1612
  113OSM   C11F11819   6.053   0.364   9.275 -0.0380 -0.5055 -0.1342
  113OSM   H11F11820   5.955   0.392   9.231  0.0085 -2.3967 -1.4659
  113OSM   H11G11821   6.043   0.272   9.337  2.4088 -1.0382 -0.4828
  113OSM   C12F11822   6.132   0.318   9.150  0.2987 -0.4390 -0.3077
  113OSM   H12F11823   6.231   0.285   9.188 -0.3874 -1.7493  0.4041
  113OSM   H12G11824   6.147   0.410   9.090  1.9460 -0.0970  0.6331
  113OSM   C13F11825   6.061   0.210   9.077 -0.0999 -0.4249 -0.6539
  113OSM   H13F11826   5.955   0.236   9.054 -0.0924  1.1016  0.9494
  113OSM   H13G11827   6.040   0.123   9.143 -1.6161 -0.4940 -1.2000
  113OSM   C14F11828   6.132   0.170   8.946  0.2466 -0.0019  0.3246
  113OSM   H14F11829   6.078   0.089   8.892  2.2977 -0.4746 -1.0944
  113OSM   H14G11830   6.228   0.127   8.980 -0.6346 -0.8079  1.8651
  113OSM   C15F11831   6.143   0.281   8.833 -0.1586  0.2108 -0.2993
  113OSM   H15F11832   6.218   0.253   8.757  0.0258 -0.8573  0.2678
  113OSM   H15G11833   6.196   0.371   8.870 -1.2901  0.7955 -0.0701
  113OSM   C16F11834   6.019   0.341   8.778  0.4051 -0.2294 -0.5901
  113OSM   H16F11835   6.047   0.421   8.706 -0.0261  1.1205  0.7524
  113OSM   H16G11836   5.957   0.393   8.853  0.7563 -3.0936  1.7556
  113OSM   C17F11837   5.922   0.248   8.699 -0.0103  0.2670  0.1427
  113OSM   H17F11838   5.849   0.310   8.643  0.6125 -1.7027 -3.0090
  113OSM   H17G11839   5.876   0.182   8.775  3.0435 -1.4668  0.6021
  113OSM   C18F11840   5.991   0.176   8.579 -0.1972 -0.1465  0.2331
  113OSM   H18F11841   5.919   0.106   8.532 -2.9093  1.8480  1.3006
  113OSM   H18G11842   6.075   0.116   8.619  0.8078  1.0503 -0.0549
  113OSM   H18H11843   6.046   0.246   8.512  1.6070  0.1312  1.9598
  114OSM      N11844   0.778   3.883  11.166 -0.0333 -0.8136  0.3407
  114OSM    C1511845   0.858   3.807  11.273  0.2575  0.2846  0.3364
  114OSM   H15A11846   0.897   3.875  11.347  0.4333  1.0288 -0.4285
  114OSM   H15B11847   0.944   3.762  11.227  0.3707  1.7465 -0.9357
  114OSM   H15C11848   0.800   3.739  11.333  2.3804 -2.6176 -0.8044
  114OSM    C1411849   0.648   3.807  11.152  0.2456  0.0943  0.6378
  114OSM   H14A11850   0.591   3.869  11.084  3.8785  1.4670 -1.3404
  114OSM   H14B11851   0.590   3.790  11.242 -0.8636 -0.3500 -0.1523
  114OSM   H14C11852   0.661   3.706  11.116 -1.0232 -0.5064  1.8127
  114OSM    C1311853   0.750   4.018  11.215 -0.5212  0.3178  0.1075
  114OSM   H13A11854   0.837   4.082  11.217  0.3312 -0.8266  0.5827
  114OSM   H13B11855   0.710   4.011  11.315  0.5428 -0.5068  0.4894
  114OSM   H13C11856   0.690   4.066  11.139 -0.0666  2.7790  1.2613
  114OSM    C1211857   0.846   3.902  11.036 -0.4949 -0.1357  0.0788
  114OSM   H12A11858   0.923   3.974  11.057 -0.1138 -0.7581  0.8324
  114OSM   H12B11859   0.773   3.949  10.972 -0.4321 -0.5675 -0.3093
  114OSM    C1111860   0.896   3.778  10.962  0.2671 -0.5725 -0.1205
  114OSM   H11A11861   0.937   3.813  10.864 -0.6533  0.8486 -0.0140
  114OSM   H11B11862   0.804   3.719  10.941  0.9443 -1.7934  0.2730
  114OSM      P11863   1.150   3.711  11.024  0.7456  0.3198  0.1400
  114OSM    O1311864   1.196   3.829  11.098  0.1084  0.1168 -0.5983
  114OSM    O1411865   1.216   3.582  11.047  0.1412 -0.2288 -0.4028
  114OSM    O1111866   1.166   3.740  10.869 -0.0515 -0.3331  0.0656
  114OSM    O1211867   0.988   3.693  11.031 -0.0920 -0.1652  0.1520
  114OSM    C1S11868   1.148   3.637  10.777 -0.2121 -0.4271  1.2898
  114OSM    H1S11869   1.041   3.610  10.781 -0.4220  0.4913  1.9487
  114OSM    H1T11870   1.210   3.550  10.805 -1.0651 -1.6759 -0.5888
  114OSM     NF11871   1.201   3.565  10.544  0.1379  0.5529 -0.1713
  114OSM    HNF11872   1.294   3.531  10.528  0.0126 -1.3976  2.7515
  114OSM    C2S11873   1.184   3.679  10.626  0.0035 -0.3258  0.6346
  114OSM    H2S11874   1.107   3.742  10.578 -0.9038 -1.4947  0.5392
  114OSM    C3S11875   1.310   3.776  10.624  0.1946  0.8133  0.1151
  114OSM    H3S11876   1.397   3.719  10.665 -1.1575 -0.9704  0.5459
  114OSM     O311877   1.298   3.897  10.703  0.1306 -0.1818  0.2583
  114OSM    HO311878   1.229   3.877  10.766 -0.4376 -1.3986 -0.7454
  114OSM    C4S11879   1.337   3.821  10.481 -0.3104 -0.0545  0.0760
  114OSM    H4S11880   1.271   3.900  10.443 -0.8176 -1.1687 -1.3671
  114OSM    C5S11881   1.433   3.767  10.400 -0.4993 -0.6307  0.6263
  114OSM    H5S11882   1.497   3.684  10.434  0.2602 -0.1488  0.3849
  114OSM    C6S11883   1.456   3.800  10.256  0.0471 -0.2177 -0.6486
  114OSM    H6S11884   1.566   3.811  10.248  0.0006  1.0284  0.1719
  114OSM    H6T11885   1.400   3.894  10.236 -2.0527 -1.2822  0.0795
  114OSM    C7S11886   1.393   3.701  10.164 -0.1486 -0.6330  0.6966
  114OSM    H7S11887   1.282   3.697  10.169 -0.2622  0.1092 -0.9339
  114OSM    H7T11888   1.438   3.603  10.187  0.5730 -1.0784 -2.4124
  114OSM    C8S11889   1.414   3.749  10.022  0.0986  0.9599  0.5853
  114OSM    H8S11890   1.519   3.751   9.988 -0.0502  0.6707  0.1029
  114OSM    H8T11891   1.386   3.855  10.008 -3.6208  0.3379  2.7037
  114OSM    C9S11892   1.339   3.659   9.916 -0.1263  0.1772  0.4920
  114OSM    H9S11893   1.243   3.625   9.961  0.0874 -2.3343 -0.8644
  114OSM    H9T11894   1.401   3.567   9.914 -1.7607 -0.9118 -1.4985
  114OSM   C10S11895   1.330   3.718   9.782 -0.1632 -1.0281  0.3934
  114OSM   H10S11896   1.272   3.812   9.791  1.3843 -0.0261  0.1154
  114OSM   H10T11897   1.274   3.654   9.710  0.1566 -0.5645 -0.2676
  114OSM   C11S11898   1.469   3.767   9.722  0.4773  0.4052 -0.8085
  114OSM   H11S11899   1.545   3.694   9.757 -0.0000  1.3422  2.2613
  114OSM   H11T11900   1.487   3.865   9.770  0.5818 -0.6738  1.4047
  114OSM   C12S11901   1.460   3.784   9.572  0.2410  0.2892  0.3231
  114OSM   H12S11902   1.450   3.691   9.512 -1.6974  1.5237 -1.3211
  114OSM   H12T11903   1.553   3.835   9.541 -0.6008  0.2801 -2.3557
  114OSM   C13S11904   1.343   3.880   9.537 -0.9698  0.2735 -0.8211
  114OSM   H13S11905   1.345   3.977   9.592 -1.3288 -0.6665  0.8879
  114OSM   H13T11906   1.242   3.844   9.566 -1.0470  0.2146 -1.1622
  114OSM   C14S11907   1.349   3.902   9.386 -0.1005 -0.2916 -0.2471
  114OSM   H14S11908   1.349   3.809   9.326  0.5804 -0.5441  0.1399
  114OSM   H14T11909   1.442   3.958   9.359  1.2971 -2.6130 -0.3758
  114OSM   C15S11910   1.231   3.986   9.332 -0.4657  0.3415 -0.3112
  114OSM   H15S11911   1.238   4.087   9.377  0.3710 -0.8019  2.2087
  114OSM   H15T11912   1.134   3.949   9.372 -0.0665 -0.1022  0.2504
  114OSM   C16S11913   1.235   4.018   9.186 -0.1481 -0.0771  0.0055
  114OSM   H16S11914   1.200   3.930   9.128  0.9032  0.7591 -1.9144
  114OSM   H16T11915   1.341   4.035   9.160 -0.4381  0.0574 -1.0967
  114OSM   C17S11916   1.135   4.127   9.140  0.1886 -0.0485  0.1719
  114OSM   H17S11917   1.124   4.124   9.030 -1.2513  1.6302  0.2525
  114OSM   H17T11918   1.189   4.216   9.177  0.4168 -0.6173  1.2372
  114OSM   C18S11919   0.989   4.111   9.199  0.3177  0.5216 -0.1363
  114OSM   H18S11920   0.914   4.173   9.146 -0.3495 -1.4647 -1.5600
  114OSM   H18T11921   0.977   4.131   9.308  1.0884  0.7750 -0.0932
  114OSM   H18U11922   0.959   4.004   9.196  2.4741 -0.0938 -0.9924
  114OSM    C1F11923   1.098   3.490  10.502  0.4792 -1.1456  0.6674
  114OSM     OF11924   0.979   3.512  10.530  0.0563  0.4909 -0.5836
  114OSM    C2F11925   1.141   3.374  10.417 -0.3347  0.3565  0.1098
  114OSM    H2F11926   1.156   3.286  10.482 -0.3684  0.1975 -0.0983
  114OSM    H2G11927   1.244   3.387  10.377 -1.0185 -0.0853 -1.8295
  114OSM    C3F11928   1.045   3.345  10.303 -0.2830  0.5122  0.2555
  114OSM    H3F11929   0.943   3.326  10.343 -0.6644  2.2968  0.1671
  114OSM    H3G11930   1.085   3.247  10.269 -2.4843  0.3176 -1.8576
  114OSM    C4F11931   1.032   3.441  10.188  0.4630  0.3513  0.2846
  114OSM    H4F11932   1.131   3.464  10.142  0.5273 -1.8066 -0.6939
  114OSM    H4G11933   0.975   3.527  10.230 -0.7781 -0.1858 -0.2797
  114OSM    C5F11934   0.957   3.395  10.067  0.0460  1.1019 -0.5249
  114OSM    H5F11935   0.851   3.381  10.099  0.7892 -2.6325  0.5023
  114OSM    H5G11936   1.011   3.300  10.048 -1.1752 -0.0090  1.3186
  114OSM    C6F11937   0.970   3.484   9.943 -0.2402  1.2423  0.0825
  114OSM    H6F11938   1.076   3.487   9.912 -0.3205  0.8785 -0.2314
  114OSM    H6G11939   0.931   3.585   9.969 -1.8106  1.0059 -1.2608
  114OSM    C7F11940   0.879   3.424   9.827 -0.4162  0.1497  0.3759
  114OSM    H7F11941   0.771   3.439   9.847 -1.6422 -1.8264 -4.0435
  114OSM    H7G11942   0.893   3.314   9.826  2.4078  0.4511 -2.3285
  114OSM    C8F11943   0.921   3.483   9.690  0.2917  0.4111  0.3423
  114OSM    H8F11944   1.026   3.451   9.671  0.4031 -0.6839  2.5775
  114OSM    H8G11945   0.926   3.593   9.704 -1.4815  0.3565  1.5325
  114OSM    C9F11946   0.829   3.440   9.584  0.6014  0.2844 -0.0310
  114OSM    H9F11947   0.785   3.341   9.603  0.4847 -0.1969 -2.6611
  114OSM   C10F11948   0.796   3.510   9.480  0.0232  0.2662 -0.0844
  114OSM   H10F11949   0.729   3.460   9.409  0.3583 -2.3293  1.3667
  114OSM   C11F11950   0.841   3.651   9.441 -0.1326  1.1293  0.1807
  114OSM   H11F11951   0.895   3.706   9.521 -0.9517  1.7914  0.2813
  114OSM   H11G11952   0.758   3.724   9.437  1.3594  2.8524 -0.2019
  114OSM   C12F11953   0.941   3.646   9.330  0.5620 -0.4723  1.2474
  114OSM   H12F11954   1.011   3.559   9.334 -2.9323 -3.4280  1.0700
  114OSM   H12G11955   1.001   3.739   9.339  1.9455 -1.1403 -0.6601
  114OSM   C13F11956   0.872   3.647   9.187 -0.0037 -0.6168 -0.3664
  114OSM   H13F11957   0.956   3.648   9.114  1.6572  0.4576  1.5245
  114OSM   H13G11958   0.806   3.736   9.175 -0.8436 -1.0015  1.2874
  114OSM   C14F11959   0.783   3.523   9.161  0.0827  0.0580 -0.2294
  114OSM   H14F11960   0.694   3.515   9.226  0.1230  1.9272  0.0717
  114OSM   H14G11961   0.847   3.440   9.199  0.1902 -0.4054 -1.3884
  114OSM   C15F11962   0.753   3.501   9.017  0.0398 -0.1141 -0.2384
  114OSM   H15F11963   0.848   3.478   8.963  0.0129 -0.9219  0.0602
  114OSM   H15G11964   0.717   3.599   8.979 -0.1014  1.1574  3.0256
  114OSM   C16F11965   0.648   3.392   8.999  0.4118  0.2675 -0.9493
  114OSM   H16F11966   0.553   3.417   9.051 -0.6075  1.8404 -3.5198
  114OSM   H16G11967   0.690   3.299   9.045 -0.2053  0.0175 -0.8833
  114OSM   C17F11968   0.614   3.368   8.853  0.1664  0.2810  0.0115
  114OSM   H17F11969   0.707   3.358   8.794 -1.0631 -0.6791 -1.8206
  114OSM   H17G11970   0.564   3.461   8.818  0.1018 -0.5515 -2.1921
  114OSM   C18F11971   0.516   3.255   8.820  0.4719  0.4666 -0.2962
  114OSM   H18F11972   0.553   3.154   8.848  1.1601  0.8044  0.0150
  114OSM   H18G11973   0.488   3.249   8.713 -1.3110  1.7187  0.0778
  114OSM   H18H11974   0.422   3.262   8.880  1.7734 -0.2927  1.8772
  115OSM      N11975   4.514   2.345  11.205  0.1085  0.1061 -0.7454
  115OSM    C1511976   4.403   2.432  11.239  0.4028  0.0522  0.1918
  115OSM   H15A11977   4.309   2.411  11.190  0.9877  0.2129 -1.0329
  115OSM   H15B11978   4.425   2.536  11.222 -0.0597  0.0897 -0.2033
  115OSM   H15C11979   4.387   2.413  11.344 -0.3089  1.1113  0.2815
  115OSM    C1411980   4.640   2.371  11.289  0.0471  0.2121  0.8841
  115OSM   H14A11981   4.686   2.456  11.240 -0.1664 -1.6663 -2.7797
  115OSM   H14B11982   4.708   2.288  11.274 -0.8743 -0.0058 -2.7865
  115OSM   H14C11983   4.613   2.368  11.393 -0.2719 -0.9074  0.7717
  115OSM    C1311984   4.465   2.201  11.226 -0.5689 -0.1395  0.1083
  115OSM   H13A11985   4.549   2.134  11.210 -2.2226 -2.3398  0.4147
  115OSM   H13B11986   4.381   2.167  11.168 -1.2935 -0.1834  1.1698
  115OSM   H13C11987   4.430   2.188  11.328  0.5238 -0.5748  0.4359
  115OSM    C1211988   4.552   2.363  11.062  0.3851  0.5830  0.1030
  115OSM   H12A11989   4.465   2.341  11.003  1.3473 -1.6228 -0.5549
  115OSM   H12B11990   4.632   2.293  11.044  1.7477  1.6049  1.9572
  115OSM    C1111991   4.611   2.500  11.016  0.0017 -0.4274  0.1723
  115OSM   H11A11992   4.541   2.578  11.052  0.9937 -0.0081  1.2395
  115OSM   H11B11993   4.601   2.496  10.906  1.6157 -1.0471  0.0379
  115OSM      P11994   4.849   2.428  10.984 -0.0933 -0.5147 -0.0845
  115OSM    O1311995   4.990   2.460  11.026 -0.5345 -0.2529 -0.4256
  115OSM    O1411996   4.814   2.285  10.985  0.3864  0.4740  0.1041
  115OSM    O1111997   4.837   2.467  10.832 -0.4438  0.2692  0.0854
  115OSM    O1211998   4.743   2.523  11.059 -0.1154 -0.0236 -0.6932
  115OSM    C1S11999   4.844   2.600  10.781  0.2467 -0.9750  0.1371
  115OSM    H1S12000   4.944   2.643  10.801 -0.3911  0.4781  0.2093
  115OSM    H1T12001   4.772   2.665  10.835  0.5001 -0.2085 -0.4387
  115OSM     NF12002   4.803   2.757  10.585 -0.3851 -0.1765  0.0208
  115OSM    HNF12003   4.719   2.804  10.558 -0.6019 -0.6877 -0.1924
  115OSM    C2S12004   4.790   2.617  10.631 -0.4049  0.4144 -0.2845
  115OSM    H2S12005   4.866   2.556  10.578  0.8266  1.5692  0.1315
  115OSM    C3S12006   4.646   2.556  10.612 -0.0105  0.0738 -0.5499
  115OSM    H3S12007   4.579   2.619  10.674 -1.8741 -1.7079 -0.6840
  115OSM     O312008   4.631   2.419  10.657 -0.4261  0.3710  0.5642
  115OSM    HO312009   4.704   2.404  10.717  0.2565 -1.2144 -0.6224
  115OSM    C4S12010   4.598   2.563  10.472 -0.4275 -0.1616  0.5064
  115OSM    H4S12011   4.634   2.485  10.405  0.5171  1.9976 -1.5630
  115OSM    C5S12012   4.517   2.658  10.420  0.4230 -0.7095 -0.3594
  115OSM    H5S12013   4.483   2.739  10.487 -0.1042 -0.7722 -0.5453
  115OSM    C6S12014   4.465   2.661  10.277  0.4620  0.0987  0.7925
  115OSM    H6S12015   4.522   2.735  10.218  2.4848 -0.7819  1.5681
  115OSM    H6T12016   4.365   2.710  10.274 -0.2810 -1.4314 -0.6962
  115OSM    C7S12017   4.449   2.522  10.208 -0.0740 -0.6024  0.2777
  115OSM    H7S12018   4.388   2.450  10.265  2.1173 -2.5161  0.2817
  115OSM    H7T12019   4.550   2.481  10.185  0.0972 -0.5162  0.8587
  115OSM    C8S12020   4.380   2.549  10.071  0.6847  0.4208  0.2231
  115OSM    H8S12021   4.458   2.610  10.020  1.9976  0.1322  1.8316
  115OSM    H8T12022   4.290   2.609  10.094  2.2357  2.1730  1.8680
  115OSM    C9S12023   4.340   2.414  10.017 -0.4443  0.0502 -0.4578
  115OSM    H9S12024   4.240   2.397  10.060 -1.0949 -0.5183 -2.1370
  115OSM    H9T12025   4.406   2.333  10.056  0.6156  0.5296 -1.2186
  115OSM   C10S12026   4.316   2.415   9.867  0.2454  0.3594 -0.4407
  115OSM   H10S12027   4.284   2.316   9.828 -0.8338  1.7349 -3.1236
  115OSM   H10T12028   4.413   2.432   9.816  0.2388 -1.2148 -1.0179
  115OSM   C11S12029   4.203   2.513   9.816  0.1426  0.9983 -0.2404
  115OSM   H11S12030   4.230   2.616   9.848  0.7827  0.5811  0.5518
  115OSM   H11T12031   4.110   2.466   9.852  2.5167 -2.5538  1.5011
  115OSM   C12S12032   4.206   2.508   9.660 -0.9844 -0.1317 -0.2200
  115OSM   H12S12033   4.202   2.404   9.621  0.5463 -0.4198  0.3794
  115OSM   H12T12034   4.306   2.541   9.625 -1.2315  1.0434  0.1719
  115OSM   C13S12035   4.092   2.578   9.591  0.0270  0.4916 -0.2209
  115OSM   H13S12036   4.107   2.686   9.611  3.1617 -0.1888  1.5232
  115OSM   H13T12037   4.001   2.544   9.645  0.9288  0.9646  1.6613
  115OSM   C14S12038   4.095   2.549   9.443  0.3718  0.3064  0.4975
  115OSM   H14S12039   4.107   2.441   9.424 -1.5315 -0.3952  2.9441
  115OSM   H14T12040   4.184   2.592   9.392 -1.1571  0.0423 -2.5006
  115OSM   C15S12041   3.987   2.614   9.369 -0.1295  0.5227 -0.6278
  115OSM   H15S12042   3.985   2.724   9.383  1.6632  0.3964  0.8889
  115OSM   H15T12043   3.884   2.595   9.406  0.1591  0.0912 -0.0337
  115OSM   C16S12044   3.983   2.564   9.225 -0.1088  0.3265  0.3357
  115OSM   H16S12045   3.973   2.453   9.224  1.5396  0.1561 -0.6280
  115OSM   H16T12046   4.087   2.574   9.186  0.5634 -0.4143  1.8798
  115OSM   C17S12047   3.893   2.640   9.133 -0.0901  0.0867 -0.2917
  115OSM   H17S12048   3.931   2.744   9.137 -1.6327  0.6685 -0.3594
  115OSM   H17T12049   3.793   2.640   9.181 -0.1280  1.5628 -0.3398
  115OSM   C18S12050   3.893   2.603   8.986 -0.0087  0.2457  0.1173
  115OSM   H18S12051   3.987   2.625   8.930 -0.9215 -0.1222 -1.5742
  115OSM   H18T12052   3.810   2.658   8.938 -0.7402 -0.8271  0.1318
  115OSM   H18U12053   3.867   2.495   8.984 -1.6458  0.6253  0.2893
  115OSM    C1F12054   4.913   2.830  10.576 -0.2644 -0.1615  0.0805
  115OSM     OF12055   5.022   2.779  10.584 -0.3463 -0.1849 -0.8308
  115OSM    C2F12056   4.890   2.983  10.581 -0.4186  0.4261 -0.1517
  115OSM    H2F12057   4.968   3.023  10.649 -0.1541 -0.5848  0.1419
  115OSM    H2G12058   4.796   2.997  10.638  0.5347  1.1349  1.2679
  115OSM    C3F12059   4.890   3.049  10.443 -0.3822  0.1576  0.2464
  115OSM    H3F12060   4.989   3.036  10.393 -1.5832 -1.5356 -1.7760
  115OSM    H3G12061   4.881   3.159  10.437  1.6501  0.3054 -0.5780
  115OSM    C4F12062   4.770   2.994  10.358 -0.2957  0.4191  0.7790
  115OSM    H4F12063   4.677   3.008  10.417 -0.2219 -0.8442  1.2023
  115OSM    H4G12064   4.782   2.885  10.345 -0.0268  0.3725  1.4315
  115OSM    C5F12065   4.771   3.046  10.218 -0.4816 -0.1023  0.4794
  115OSM    H5F12066   4.866   3.017  10.169 -1.1118 -0.2073 -0.6975
  115OSM    H5G12067   4.765   3.156  10.234 -1.8652 -0.1932  0.6949
  115OSM    C6F12068   4.647   2.994  10.138 -0.6439 -0.2567 -0.8219
  115OSM    H6F12069   4.547   2.999  10.185 -0.2089  2.0773 -0.0655
  115OSM    H6G12070   4.682   2.888  10.136 -0.9185 -0.3415 -0.9971
  115OSM    C7F12071   4.638   3.040   9.990 -0.4031  0.1848 -0.3434
  115OSM    H7F12072   4.726   3.011   9.929 -1.9817  0.3499 -2.7522
  115OSM    H7G12073   4.645   3.151   9.991 -0.9654  0.2216 -0.5719
  115OSM    C8F12074   4.511   2.995   9.910  0.1506 -0.3963 -0.5929
  115OSM    H8F12075   4.508   3.059   9.820  1.0349 -0.2968 -0.5630
  115OSM    H8G12076   4.427   3.021   9.978  0.3585  0.0146 -0.4939
  115OSM    C9F12077   4.507   2.853   9.879  0.4547  0.4287  0.3644
  115OSM    H9F12078   4.580   2.798   9.941  0.4565  0.3179  0.2607
  115OSM   C10F12079   4.446   2.788   9.776 -0.4172  0.3883 -0.6235
  115OSM   H10F12080   4.469   2.683   9.752  2.8586  1.1594 -1.0949
  115OSM   C11F12081   4.363   2.853   9.670 -0.1174  0.7622  0.2897
  115OSM   H11F12082   4.345   2.958   9.699 -0.2068 -0.0079  3.1669
  115OSM   H11G12083   4.264   2.803   9.668  0.5669 -0.6189 -0.2634
  115OSM   C12F12084   4.430   2.836   9.536 -0.3424  0.1408 -0.1943
  115OSM   H12F12085   4.454   2.730   9.516  2.4579  1.0510 -1.9965
  115OSM   H12G12086   4.530   2.882   9.520 -0.7701  0.7212 -1.2990
  115OSM   C13F12087   4.345   2.883   9.420 -0.2345 -0.2772 -0.2086
  115OSM   H13F12088   4.340   2.993   9.406 -0.6929 -0.5749 -2.4903
  115OSM   H13G12089   4.241   2.854   9.446 -1.2199  1.7627 -1.7499
  115OSM   C14F12090   4.396   2.819   9.288  0.1105  0.0480  0.1719
  115OSM   H14F12091   4.387   2.708   9.282  0.2201  0.0247  0.4129
  115OSM   H14G12092   4.504   2.838   9.273  0.8063 -3.4880  0.1771
  115OSM   C15F12093   4.340   2.885   9.163  0.7924 -0.5331 -0.1170
  115OSM   H15F12094   4.377   2.990   9.162  1.2740 -0.6756  1.5315
  115OSM   H15G12095   4.231   2.878   9.182  0.5935  0.8803 -0.6832
  115OSM   C16F12096   4.381   2.812   9.032 -0.7431 -0.4304 -0.1447
  115OSM   H16F12097   4.390   2.706   9.063  2.0158 -0.3184 -0.4397
  115OSM   H16G12098   4.481   2.837   8.990 -0.4281  1.5311  1.6807
  115OSM   C17F12099   4.269   2.803   8.932 -0.0193 -0.0911  0.3376
  115OSM   H17F12100   4.251   2.905   8.891  1.0058  0.5834  1.5223
  115OSM   H17G12101   4.165   2.796   8.970 -1.5391  0.3460 -3.5294
  115OSM   C18F12102   4.292   2.697   8.819 -0.3187  0.5199  0.2025
  115OSM   H18F12103   4.390   2.698   8.767 -0.2235  2.6360  0.3654
  115OSM   H18G12104   4.218   2.701   8.736  0.4359  0.5123 -0.4754
  115OSM   H18H12105   4.297   2.599   8.871 -1.3005  0.7382  0.7220
  116OSM      N12106   1.669   6.419  11.204  0.5163 -0.1344 -0.1348
  116OSM    C1512107   1.786   6.435  11.293  1.0756 -0.4382 -0.3325
  116OSM   H15A12108   1.826   6.534  11.278  1.0034 -0.7664 -2.8949
  116OSM   H15B12109   1.872   6.372  11.279  0.4024 -1.8648  1.6803
  116OSM   H15C12110   1.759   6.420  11.396 -0.5203  2.7807 -0.2172
  116OSM    C1412111   1.632   6.271  11.204 -0.3551 -1.2937 -0.2273
  116OSM   H14A12112   1.720   6.211  11.192 -1.0009 -1.7611 -2.9664
  116OSM   H14B12113   1.564   6.241  11.126  1.8069 -0.8647 -2.3432
  116OSM   H14C12114   1.596   6.247  11.303 -0.8528  1.9080  0.4353
  116OSM    C1312115   1.555   6.490  11.255  0.0209  0.2294 -0.4852
  116OSM   H13A12116   1.557   6.474  11.362  0.3803 -0.9173 -0.6494
  116OSM   H13B12117   1.469   6.437  11.216  1.1858 -0.8642 -1.6411
  116OSM   H13C12118   1.551   6.593  11.223 -3.0578 -0.5072 -2.7683
  116OSM    C1212119   1.690   6.458  11.050  0.6897  0.0222 -0.2239
  116OSM   H12A12120   1.770   6.397  11.011  2.6296  2.7587 -0.6203
  116OSM   H12B12121   1.709   6.564  11.051  2.2052 -0.2367 -0.1777
  116OSM    C1112122   1.567   6.440  10.950  0.5093  0.4399 -0.0267
  116OSM   H11A12123   1.610   6.453  10.848  1.3403 -0.4759  0.2022
  116OSM   H11B12124   1.496   6.519  10.981 -2.8197 -2.5303  0.1763
  116OSM      P12125   1.361   6.298  10.883  0.2372  0.1097  0.5654
  116OSM    O1312126   1.325   6.155  10.877  0.7358  0.1197  0.1222
  116OSM    O1412127   1.262   6.395  10.941  0.5518  0.5414 -0.1187
  116OSM    O1112128   1.399   6.338  10.738 -0.3562  0.3569 -0.0495
  116OSM    O1212129   1.495   6.311  10.956 -0.6421  0.0775 -0.4931
  116OSM    C1S12130   1.456   6.248  10.641 -0.3308 -0.6961 -0.7810
  116OSM    H1S12131   1.389   6.162  10.617  0.4301 -1.4336 -0.3172
  116OSM    H1T12132   1.557   6.207  10.662  1.1564  2.0641 -2.2260
  116OSM     NF12133   1.488   6.225  10.396 -0.0110  0.5378 -0.1989
  116OSM    HNF12134   1.570   6.228  10.340 -0.2267  2.1792 -0.4630
  116OSM    C2S12135   1.456   6.316  10.498 -0.7368 -0.1712 -0.0794
  116OSM    H2S12136   1.355   6.360  10.491 -1.1106 -0.4810  2.9520
  116OSM    C3S12137   1.555   6.434  10.498  0.4732  0.4110 -0.0332
  116OSM    H3S12138   1.664   6.413  10.507  0.2515 -2.0998 -2.5141
  116OSM     O312139   1.539   6.515  10.609 -0.2300 -0.6611 -0.1641
  116OSM    HO312140   1.464   6.477  10.655 -1.0717  2.2926  0.9944
  116OSM    C4S12141   1.540   6.514  10.372 -0.0400 -0.6348  0.5492
  116OSM    H4S12142   1.620   6.487  10.301 -0.5611 -1.7275  0.3683
  116OSM    C5S12143   1.455   6.611  10.330 -0.1260  0.5131  0.4772
  116OSM    H5S12144   1.366   6.629  10.392 -1.3970 -1.9893 -0.5659
  116OSM    C6S12145   1.467   6.679  10.193  0.9263  0.8514  0.0634
  116OSM    H6S12146   1.495   6.786  10.206 -0.9313  1.3100  0.4529
  116OSM    H6T12147   1.363   6.685  10.153  0.3366 -1.8578  1.0369
  116OSM    C7S12148   1.558   6.607  10.090  0.0829  0.1406  0.1848
  116OSM    H7S12149   1.507   6.510  10.071 -1.8579  1.2588 -0.4951
  116OSM    H7T12150   1.661   6.582  10.123 -0.1531 -0.6052  0.3677
  116OSM    C8S12151   1.573   6.674   9.953  0.4375 -0.2095 -0.4868
  116OSM    H8S12152   1.636   6.766   9.953  1.3873 -0.8545 -1.1050
  116OSM    H8T12153   1.466   6.700   9.936  0.7941  0.1819 -2.2540
  116OSM    C9S12154   1.626   6.576   9.839  1.1082  0.1467  0.3457
  116OSM    H9S12155   1.563   6.485   9.847 -0.9753  1.3966 -1.3900
  116OSM    H9T12156   1.732   6.560   9.869  2.0214  1.0010 -2.2948
  116OSM   C10S12157   1.620   6.633   9.694 -0.1316 -0.1923  0.3620
  116OSM   H10S12158   1.519   6.679   9.690  0.1898  0.4028 -1.5623
  116OSM   H10T12159   1.615   6.550   9.620 -2.2063  1.7849 -1.8247
  116OSM   C11S12160   1.739   6.727   9.666  0.3722  0.1704 -1.1162
  116OSM   H11S12161   1.827   6.663   9.691 -0.8687 -1.8102 -1.7176
  116OSM   H11T12162   1.724   6.812   9.736  2.4311 -0.5377  0.2283
  116OSM   C12S12163   1.749   6.777   9.526  0.1137 -0.4256 -0.1638
  116OSM   H12S12164   1.844   6.833   9.508 -0.7164 -0.0848 -4.0532
  116OSM   H12T12165   1.662   6.839   9.497 -1.3109 -2.2020  0.2865
  116OSM   C13S12166   1.757   6.667   9.424  0.3697 -1.1149  0.1901
  116OSM   H13S12167   1.663   6.609   9.409 -0.0334 -0.0492 -1.5579
  116OSM   H13T12168   1.829   6.591   9.461 -0.3976 -0.7167  2.5707
  116OSM   C14S12169   1.805   6.701   9.279 -0.2091  0.4383 -0.1606
  116OSM   H14S12170   1.813   6.607   9.221 -1.9046 -0.3013  0.7598
  116OSM   H14T12171   1.905   6.747   9.291 -0.1438 -0.0493  1.1921
  116OSM   C15S12172   1.713   6.796   9.203 -0.1841 -0.2409 -1.1524
  116OSM   H15S12173   1.769   6.839   9.117  1.4557 -1.0302 -0.5014
  116OSM   H15T12174   1.677   6.877   9.270 -1.3613 -0.3383 -1.6497
  116OSM   C16S12175   1.589   6.730   9.144 -0.9388  0.1298 -0.0597
  116OSM   H16S12176   1.510   6.719   9.220  0.2054 -1.2779  0.9532
  116OSM   H16T12177   1.607   6.623   9.119  0.3060  0.5354 -0.9990
  116OSM   C17S12178   1.569   6.799   9.012  0.5321  0.0307 -0.2108
  116OSM   H17S12179   1.660   6.786   8.950  2.5656 -1.6761  2.9879
  116OSM   H17T12180   1.557   6.909   9.024 -2.6701 -0.3062 -0.0419
  116OSM   C18S12181   1.454   6.748   8.934 -0.2095  0.1190  0.1196
  116OSM   H18S12182   1.419   6.821   8.858 -0.5453 -1.5509 -1.3712
  116OSM   H18T12183   1.371   6.736   9.006 -2.2520 -0.2423 -2.2241
  116OSM   H18U12184   1.473   6.650   8.886  2.2492  0.0526  1.1676
  116OSM    C1F12185   1.395   6.134  10.359  1.1448  0.3021 -0.3679
  116OSM     OF12186   1.284   6.130  10.399 -0.1754  0.5422 -0.2031
  116OSM    C2F12187   1.444   6.022  10.274 -0.1885 -0.1171  0.5629
  116OSM    H2F12188   1.475   5.941  10.345  0.4532 -1.1603 -0.8760
  116OSM    H2G12189   1.530   6.059  10.214 -1.0522  1.5125  0.2962
  116OSM    C3F12190   1.334   5.960  10.187 -0.1344 -0.0850  0.1180
  116OSM    H3F12191   1.298   6.044  10.124  1.8634  0.6886 -0.0337
  116OSM    H3G12192   1.258   5.914  10.253  0.9369 -1.4128  0.4511
  116OSM    C4F12193   1.398   5.861  10.084 -0.4596 -0.0660  0.1255
  116OSM    H4F12194   1.410   5.759  10.127 -1.9970 -1.2500 -2.1467
  116OSM    H4G12195   1.494   5.907  10.051  0.3711 -0.7802  1.5176
  116OSM    C5F12196   1.303   5.832   9.960  0.6675  0.1887 -0.0865
  116OSM    H5F12197   1.205   5.787   9.987  1.4596 -2.0490 -0.7662
  116OSM    H5G12198   1.362   5.767   9.891  0.1216  1.0878 -1.4283
  116OSM    C6F12199   1.245   5.957   9.884 -0.1776  0.0006  0.8658
  116OSM    H6F12200   1.343   5.988   9.843 -1.6057  0.4314 -2.3776
  116OSM    H6G12201   1.200   6.036   9.947  0.3227  1.3030 -0.3797
  116OSM    C7F12202   1.151   5.918   9.773  0.4647 -0.0425 -0.5917
  116OSM    H7F12203   1.059   5.875   9.818  0.9617 -0.5680 -0.0540
  116OSM    H7G12204   1.197   5.843   9.704 -0.4137  0.6061 -1.8821
  116OSM    C8F12205   1.114   6.042   9.686  0.7192  0.3125 -0.2038
  116OSM    H8F12206   1.103   6.133   9.749  1.7639  1.4775 -1.6546
  116OSM    H8G12207   1.007   6.031   9.658  0.0705  3.3986  0.9075
  116OSM    C9F12208   1.212   6.074   9.579  0.1167 -0.0830 -0.9242
  116OSM    H9F12209   1.313   6.082   9.622 -0.9054  0.3689  1.4847
  116OSM   C10F12210   1.186   6.079   9.452 -0.8169 -0.0273 -0.5581
  116OSM   H10F12211   1.263   6.091   9.374 -1.2762  0.0839 -0.9958
  116OSM   C11F12212   1.048   6.051   9.393  0.7076 -0.6453 -0.5640
  116OSM   H11F12213   0.983   6.140   9.407  2.1194  0.1925  0.8047
  116OSM   H11G12214   1.003   5.967   9.449  1.3697  0.2101  1.2750
  116OSM   C12F12215   1.047   6.000   9.245  0.3214  0.0959 -0.6736
  116OSM   H12F12216   0.947   5.964   9.214  1.0426  0.8352 -4.0434
  116OSM   H12G12217   1.131   5.930   9.229  1.2298  0.6801  1.3096
  116OSM   C13F12218   1.087   6.113   9.141  0.4331  0.0145 -0.4021
  116OSM   H13F12219   1.195   6.132   9.153  0.7762 -1.5445 -0.9057
  116OSM   H13G12220   1.039   6.211   9.161  0.2198  0.1810 -1.7021
  116OSM   C14F12221   1.049   6.067   9.005 -0.6533 -1.2500  0.6326
  116OSM   H14F12222   1.067   5.961   8.975  1.1072 -1.5979  2.7739
  116OSM   H14G12223   1.099   6.134   8.932  0.8447 -0.0334  2.7252
  116OSM   C15F12224   0.893   6.075   8.970 -0.2481  0.2482  0.1806
  116OSM   H15F12225   0.861   6.181   8.964  0.3903  0.4441  0.2360
  116OSM   H15G12226   0.839   6.016   9.048  1.4164 -3.2900 -1.2118
  116OSM   C16F12227   0.859   6.029   8.828 -0.2442  0.3391 -0.7826
  116OSM   H16F12228   0.903   5.928   8.810  0.4187  0.4600  0.1137
  116OSM   H16G12229   0.896   6.103   8.754 -0.6496  0.9447 -0.3888
  116OSM   C17F12230   0.719   6.018   8.796 -0.2336 -0.6896  0.4636
  116OSM   H17F12231   0.678   6.119   8.817  0.6644 -0.1327 -0.4147
  116OSM   H17G12232   0.662   5.943   8.855 -2.3168 -0.7088 -1.4869
  116OSM   C18F12233   0.684   5.982   8.649  0.1244 -0.2307  0.4485
  116OSM   H18F12234   0.694   6.069   8.581  1.9623 -0.0015  0.9980
  116OSM   H18G12235   0.576   5.956   8.650  0.0911 -0.1024  0.1177
  116OSM   H18H12236   0.745   5.903   8.599 -1.8374 -0.4790 -1.6351
  117OSM      N12237   5.694   0.242  11.229  0.4853  0.5469  0.2282
  117OSM    C1512238   5.659   0.352  11.332  0.4002  1.0663  0.3800
  117OSM   H15A12239   5.750   0.397  11.370 -0.0442  1.7360  0.6747
  117OSM   H15B12240   5.599   0.314  11.414  0.9483  1.2129  0.8543
  117OSM   H15C12241   5.609   0.431  11.278  0.2284 -0.3214 -1.5449
  117OSM    C1412242   5.772   0.141  11.297 -0.5118  0.1072 -0.3554
  117OSM   H14A12243   5.858   0.200  11.326 -0.1385  0.3988 -2.0177
  117OSM   H14B12244   5.813   0.055  11.246  0.0889 -1.9914  3.4318
  117OSM   H14C12245   5.724   0.109  11.389  2.6290 -0.0067  1.3532
  117OSM    C1312246   5.558   0.182  11.191 -0.3980 -0.2447 -0.3027
  117OSM   H13A12247   5.505   0.249  11.124  1.7648  0.9187 -0.9047
  117OSM   H13B12248   5.510   0.144  11.279 -1.7897  2.2561  0.0647
  117OSM   H13C12249   5.580   0.095  11.131 -0.8787  0.9002 -2.1878
  117OSM    C1212250   5.770   0.307  11.122  0.1032 -0.1799 -0.3797
  117OSM   H12A12251   5.863   0.357  11.145  0.1809  0.1871 -1.4652
  117OSM   H12B12252   5.712   0.388  11.080  0.2828 -1.4205 -3.1396
  117OSM    C1112253   5.808   0.210  11.010 -0.2570 -0.0470 -0.1585
  117OSM   H11A12254   5.852   0.114  11.046 -0.0199 -0.5394 -1.7324
  117OSM   H11B12255   5.876   0.250  10.933 -0.7135  1.5798  0.2755
  117OSM      P12256   5.673   0.067  10.833  0.1580 -0.0037  0.4209
  117OSM    O1312257   5.770  -0.042  10.851  0.1077 -0.6355  0.3134
  117OSM    O1412258   5.535   0.010  10.836  0.5510 -0.5456  0.5749
  117OSM    O1112259   5.707   0.148  10.693 -0.0392 -0.2754 -0.0035
  117OSM    O1212260   5.690   0.177  10.943 -0.1800 -0.3927  0.8950
  117OSM    C1S12261   5.847   0.166  10.658 -0.4685 -0.7974 -0.2759
  117OSM    H1S12262   5.908   0.095  10.718  0.1250  1.8198  2.3541
  117OSM    H1T12263   5.882   0.270  10.674 -1.2324 -0.4643 -0.7283
  117OSM     NF12264   6.008   0.125  10.471  0.0603 -0.2668 -0.4386
  117OSM    HNF12265   6.045   0.200  10.418 -0.9256 -0.3047 -1.1896
  117OSM    C2S12266   5.868   0.129  10.503 -0.5881  0.7043 -1.0164
  117OSM    H2S12267   5.833   0.024  10.494  1.3956 -0.0387 -0.2072
  117OSM    C3S12268   5.798   0.229  10.409 -0.4934 -0.4483 -0.3309
  117OSM    H3S12269   5.850   0.325  10.429  0.2169 -0.9339  0.2305
  117OSM     O312270   5.669   0.258  10.458 -0.2442  0.0916  0.2988
  117OSM    HO312271   5.691   0.226  10.546 -2.0553  0.4958  0.9193
  117OSM    C4S12272   5.810   0.196  10.260  0.1277  0.8872  0.1461
  117OSM    H4S12273   5.794   0.091  10.233  1.0949  0.3321  1.6737
  117OSM    C5S12274   5.843   0.281  10.167  0.3643  0.2597  0.0354
  117OSM    H5S12275   5.868   0.382  10.202 -3.3418  0.4207  2.5501
  117OSM    C6S12276   5.845   0.257  10.020 -0.2836 -0.2860  0.7347
  117OSM    H6S12277   5.953   0.260   9.993  0.2691  1.0047  2.9327
  117OSM    H6T12278   5.795   0.345   9.973  1.0095 -0.7149 -1.5394
  117OSM    C7S12279   5.779   0.134   9.944  0.3378  0.5119  0.5793
  117OSM    H7S12280   5.676   0.108   9.975  0.0750  0.0169 -0.6985
  117OSM    H7T12281   5.839   0.043   9.962  0.4692  0.7471  1.3817
  117OSM    C8S12282   5.767   0.159   9.795 -0.7341  0.5009  0.3826
  117OSM    H8S12283   5.865   0.203   9.766 -0.4188  0.8202  1.8902
  117OSM    H8T12284   5.687   0.234   9.773 -1.1629  0.0733  0.4867
  117OSM    C9S12285   5.751   0.034   9.711  0.1228  0.5466 -0.4746
  117OSM    H9S12286   5.646   0.001   9.715 -0.3116  1.5895 -2.6350
  117OSM    H9T12287   5.827  -0.043   9.735  2.1920  2.2177 -1.4590
  117OSM   C10S12288   5.778   0.073   9.564  0.6864  0.0089  0.5370
  117OSM   H10S12289   5.885   0.104   9.556  1.4871 -2.6338  0.5277
  117OSM   H10T12290   5.721   0.166   9.547  2.7940  1.2665  0.1344
  117OSM   C11S12291   5.764  -0.037   9.458 -0.2319  0.7378 -0.7609
  117OSM   H11S12292   5.664  -0.085   9.467  0.5449 -0.3326  3.3810
  117OSM   H11T12293   5.837  -0.119   9.474  0.0403  1.3168  1.1198
  117OSM   C12S12294   5.788   0.011   9.314 -0.2961  0.2668  0.0340
  117OSM   H12S12295   5.898   0.009   9.304 -0.0490 -0.3874  2.5502
  117OSM   H12T12296   5.752   0.116   9.319 -0.8363  0.0434  0.9640
  117OSM   C13S12297   5.712  -0.072   9.212 -0.3647 -0.2844 -0.0953
  117OSM   H13S12298   5.601  -0.059   9.216 -0.1644  1.2133  0.8855
  117OSM   H13T12299   5.733  -0.178   9.236 -1.9203 -0.9278 -1.4864
  117OSM   C14S12300   5.752  -0.047   9.064 -0.0169  0.3425  0.4109
  117OSM   H14S12301   5.862  -0.056   9.066  0.0069  0.7300  1.1019
  117OSM   H14T12302   5.723   0.060   9.050  0.9099  0.6260  0.6526
  117OSM   C15S12303   5.687  -0.139   8.963  0.9778  0.3462  0.6460
  117OSM   H15S12304   5.578  -0.122   8.950  1.1624  1.4292  0.4188
  117OSM   H15T12305   5.699  -0.242   9.002 -2.0660 -1.4438 -2.8586
  117OSM   C16S12306   5.760  -0.131   8.833 -0.2317  1.0025  0.6989
  117OSM   H16S12307   5.869  -0.112   8.849 -0.3530  0.8701  1.6894
  117OSM   H16T12308   5.724  -0.034   8.792  0.6690  1.2974  0.5774
  117OSM   C17S12309   5.735  -0.250   8.740  0.5125  1.5034  0.0178
  117OSM   H17S12310   5.780  -0.331   8.801 -1.5422  1.4252  1.4879
  117OSM   H17T12311   5.791  -0.249   8.644  1.4385 -1.8963  0.4738
  117OSM   C18S12312   5.585  -0.273   8.713 -0.3842 -0.6249 -0.7757
  117OSM   H18S12313   5.562  -0.202   8.631  1.6482  0.0917 -0.7724
  117OSM   H18T12314   5.516  -0.255   8.798  0.2449 -0.5347 -0.2811
  117OSM   H18U12315   5.562  -0.378   8.685  0.0618 -1.4495  1.7912
  117OSM    C1F12316   6.085   0.034  10.519 -0.0679 -0.3299 -0.5516
  117OSM     OF12317   6.036  -0.066  10.572  0.0453 -0.4241 -0.1654
  117OSM    C2F12318   6.226   0.052  10.508  0.2542  0.4615 -0.1916
  117OSM    H2F12319   6.274   0.055  10.608 -0.2303 -1.1186  0.1052
  117OSM    H2G12320   6.256   0.146  10.457 -0.4924  0.2979 -0.9254
  117OSM    C3F12321   6.292  -0.071  10.423  0.2668  0.0424  0.5157
  117OSM    H3F12322   6.262  -0.171  10.462  0.9510 -0.7408 -0.9224
  117OSM    H3G12323   6.402  -0.070  10.436  0.3777 -1.1875 -0.2413
  117OSM    C4F12324   6.268  -0.077  10.274  0.1989 -0.2013 -0.0025
  117OSM    H4F12325   6.162  -0.109  10.267  0.2739 -0.1688 -1.5000
  117OSM    H4G12326   6.338  -0.158  10.242 -0.6593 -1.1825  0.5591
  117OSM    C5F12327   6.296   0.051  10.198 -0.5939  0.5645 -0.1158
  117OSM    H5F12328   6.403   0.078  10.214 -1.7726  5.3240  0.4206
  117OSM    H5G12329   6.241   0.134  10.247 -0.5121  0.9536 -0.6802
  117OSM    C6F12330   6.269   0.036  10.048  0.0471 -0.1686  0.0962
  117OSM    H6F12331   6.275   0.140  10.011  3.6495  0.2063  1.5344
  117OSM    H6G12332   6.159   0.020  10.049 -0.3040  2.0079  2.7156
  117OSM    C7F12333   6.347  -0.059   9.958  0.2464 -0.2100  0.0043
  117OSM    H7F12334   6.327  -0.162   9.995  0.6172 -0.3203 -0.1018
  117OSM    H7G12335   6.456  -0.048   9.974  0.4951  0.8441 -2.2129
  117OSM    C8F12336   6.314  -0.043   9.812 -0.7423 -0.1684  0.5581
  117OSM    H8F12337   6.389  -0.112   9.768  1.3454  2.1316  0.3305
  117OSM    H8G12338   6.355   0.055   9.779 -1.1550 -0.6541 -1.4080
  117OSM    C9F12339   6.175  -0.071   9.757  0.2527  0.6178 -0.0196
  117OSM    H9F12340   6.101  -0.125   9.817  1.1318  1.5484  1.9567
  117OSM   C10F12341   6.132  -0.057   9.632  0.0449 -0.5982 -0.1493
  117OSM   H10F12342   6.035  -0.102   9.608 -0.5270 -0.4649  1.8219
  117OSM   C11F12343   6.219  -0.014   9.511 -0.5713  0.2606 -0.6110
  117OSM   H11F12344   6.322   0.018   9.538  1.1669 -2.9618 -3.1200
  117OSM   H11G12345   6.175   0.076   9.462  0.7801  1.3199  0.0541
  117OSM   C12F12346   6.248  -0.123   9.401 -0.1984  0.8715  0.3524
  117OSM   H12F12347   6.274  -0.222   9.444  1.9680 -0.3536 -3.5375
  117OSM   H12G12348   6.336  -0.088   9.343 -0.2592  1.6153  0.7054
  117OSM   C13F12349   6.124  -0.149   9.308 -0.6411  0.8664 -0.2989
  117OSM   H13F12350   6.091  -0.066   9.242 -0.9837  0.8857 -0.1021
  117OSM   H13G12351   6.042  -0.171   9.379 -1.4396  1.6567 -0.9627
  117OSM   C14F12352   6.152  -0.270   9.210 -0.2901  0.8100 -0.3103
  117OSM   H14F12353   6.058  -0.272   9.150  0.5220 -0.8584 -1.5634
  117OSM   H14G12354   6.164  -0.366   9.263  0.7412 -0.5609 -2.9167
  117OSM   C15F12355   6.263  -0.252   9.107  0.2748  0.1886 -0.1593
  117OSM   H15F12356   6.355  -0.238   9.168 -0.3264 -2.8006  1.5322
  117OSM   H15G12357   6.229  -0.164   9.049 -1.8774  0.5684  1.6051
  117OSM   C16F12358   6.288  -0.373   9.015 -0.2706  0.2824 -1.0936
  117OSM   H16F12359   6.339  -0.442   9.085  0.5124  1.7277 -0.2155
  117OSM   H16G12360   6.354  -0.334   8.934  0.0395 -1.0733 -1.5052
  117OSM   C17F12361   6.163  -0.443   8.957  0.2302 -0.1562  0.3795
  117OSM   H17F12362   6.088  -0.457   9.039  0.9040 -2.4537  0.6341
  117OSM   H17G12363   6.184  -0.551   8.940 -0.1447 -0.2638  0.5718
  117OSM   C18F12364   6.110  -0.376   8.833 -0.1089 -0.0705  0.4952
  117OSM   H18F12365   6.020  -0.421   8.786  0.1738  1.7382 -1.8661
  117OSM   H18G12366   6.188  -0.373   8.754  0.9691  2.8998  1.6069
  117OSM   H18H12367   6.091  -0.268   8.849  0.2789 -0.0305  0.7002
  118OSM      N12368   6.132   0.892  11.020  0.2536  0.5392  0.0732
  118OSM    C1512369   6.173   0.989  11.127  0.3012  0.1341  0.2427
  118OSM   H15A12370   6.184   1.079  11.067 -3.2634 -0.9847 -2.2311
  118OSM   H15B12371   6.271   0.956  11.158  0.3483 -1.2302 -1.3367
  118OSM   H15C12372   6.111   0.995  11.216 -0.9520 -0.2826 -0.5885
  118OSM    C1412373   6.239   0.879  10.912 -0.5261 -0.0695 -0.2630
  118OSM   H14A12374   6.268   0.977  10.877 -0.6853 -0.0706 -0.3970
  118OSM   H14B12375   6.207   0.823  10.826  0.2327 -0.7172 -0.1278
  118OSM   H14C12376   6.325   0.827  10.952 -0.9835 -1.1794 -0.6991
  118OSM    C1312377   6.108   0.758  11.084 -0.4722  0.0354 -0.9211
  118OSM   H13A12378   6.192   0.722  11.140  0.7759  2.7110 -0.9574
  118OSM   H13B12379   6.092   0.693  10.999 -2.3267 -1.2812  0.3993
  118OSM   H13C12380   6.018   0.752  11.143 -0.6830 -1.1881 -1.3516
  118OSM    C1212381   5.999   0.945  10.968  1.2382  0.0016  0.0154
  118OSM   H12A12382   5.933   0.958  11.053  1.2302  2.2450 -0.3167
  118OSM   H12B12383   5.948   0.871  10.908  2.2061 -2.0991  1.7037
  118OSM    C1112384   5.994   1.072  10.889 -0.1199  0.5387  0.1220
  118OSM   H11A12385   5.890   1.090  10.855  0.5540  2.3785 -1.0482
  118OSM   H11B12386   6.051   1.069  10.794  2.0975  1.5595  1.3696
  118OSM      P12387   5.963   1.315  10.964 -0.1113 -0.1633  0.4324
  118OSM    O1312388   5.837   1.278  11.034 -0.0971 -0.5464  0.6592
  118OSM    O1412389   6.061   1.411  11.031 -0.2328  0.2418 -0.3488
  118OSM    O1112390   5.939   1.355  10.807 -0.1872  0.3332  0.1703
  118OSM    O1212391   6.049   1.182  10.957 -0.1451 -0.6404 -0.5050
  118OSM    C1S12392   6.053   1.350  10.715  0.0775 -0.7820  0.2352
  118OSM    H1S12393   6.119   1.266  10.746  0.9281 -0.6267 -1.1143
  118OSM    H1T12394   6.118   1.440  10.721 -0.7044 -0.3056  1.9916
  118OSM     NF12395   6.133   1.312  10.491 -0.2083 -0.1769 -0.2709
  118OSM    HNF12396   6.159   1.394  10.441  2.4565 -0.1084  1.1331
  118OSM    C2S12397   6.017   1.326  10.572 -0.3332  0.1893 -0.1665
  118OSM    H2S12398   5.969   1.226  10.576  0.8827 -0.3768  0.8344
  118OSM    C3S12399   5.916   1.427  10.517 -0.2295 -0.4309 -0.0814
  118OSM    H3S12400   5.967   1.525  10.501 -0.5514  0.1493  2.2917
  118OSM     O312401   5.806   1.444  10.605  0.3559 -0.3196 -0.2585
  118OSM    HO312402   5.848   1.403  10.681 -2.5452 -0.0039  1.5845
  118OSM    C4S12403   5.852   1.382  10.388  0.3535  0.1806 -1.0427
  118OSM    H4S12404   5.794   1.291  10.405 -1.3978  1.7693  1.8910
  118OSM    C5S12405   5.874   1.433  10.262  0.4034 -0.2567 -0.0758
  118OSM    H5S12406   5.950   1.511  10.249  2.3105 -2.2896 -1.3729
  118OSM    C6S12407   5.807   1.380  10.136 -0.4559 -0.6875 -0.4160
  118OSM    H6S12408   5.712   1.327  10.156  1.4937 -4.0324  0.4241
  118OSM    H6T12409   5.867   1.305  10.081  1.7772  0.8638 -0.2196
  118OSM    C7S12410   5.789   1.490  10.035  0.4093  0.5022 -0.5532
  118OSM    H7S12411   5.889   1.534  10.019  0.0681  1.2715 -0.5951
  118OSM    H7T12412   5.731   1.570  10.087  3.1029  1.7172  0.6725
  118OSM    C8S12413   5.716   1.443   9.914  0.3200 -0.4089  0.8148
  118OSM    H8S12414   5.611   1.418   9.942 -0.2425 -0.9083 -1.5566
  118OSM    H8T12415   5.761   1.353   9.867  0.2857 -1.2713  2.4103
  118OSM    C9S12416   5.708   1.558   9.812 -0.1469 -0.4290  0.1730
  118OSM    H9S12417   5.806   1.594   9.777 -0.6609  0.1838 -0.6479
  118OSM    H9T12418   5.662   1.647   9.860 -0.0900  1.2835 -2.8091
  118OSM   C10S12419   5.618   1.527   9.687 -0.8231  0.5464 -0.2507
  118OSM   H10S12420   5.516   1.516   9.730 -0.3355 -2.1426  0.3026
  118OSM   H10T12421   5.654   1.442   9.625  2.9646 -0.0411  2.5498
  118OSM   C11S12422   5.599   1.653   9.598 -0.2143  0.4315  0.1210
  118OSM   H11S12423   5.693   1.689   9.551 -0.2338  0.0895 -0.1816
  118OSM   H11T12424   5.568   1.749   9.643  3.2312  1.4537  0.5204
  118OSM   C12S12425   5.506   1.610   9.483 -0.0345  0.4736  0.0877
  118OSM   H12S12426   5.405   1.603   9.527 -0.1136  1.7866  0.1403
  118OSM   H12T12427   5.523   1.508   9.444  1.8389  0.4616  0.8556
  118OSM   C13S12428   5.514   1.721   9.364  0.0522  0.9124 -0.5377
  118OSM   H13S12429   5.621   1.728   9.335 -0.0581 -1.5107 -1.6503
  118OSM   H13T12430   5.490   1.817   9.416 -1.7936  0.0575  0.2084
  118OSM   C14S12431   5.415   1.700   9.242  0.0564 -0.3360  0.8057
  118OSM   H14S12432   5.315   1.684   9.288  0.3634 -0.5697  1.3951
  118OSM   H14T12433   5.438   1.609   9.183 -3.2818  0.4944 -1.9140
  118OSM   C15S12434   5.411   1.824   9.152 -0.3453  0.0914  0.1941
  118OSM   H15S12435   5.502   1.815   9.090 -1.4985 -0.1472 -1.4946
  118OSM   H15T12436   5.422   1.919   9.209  1.7950  1.0969 -1.8182
  118OSM   C16S12437   5.295   1.821   9.057 -0.6282  0.0409 -0.4060
  118OSM   H16S12438   5.198   1.846   9.105 -0.9899 -1.2458 -0.4619
  118OSM   H16T12439   5.297   1.722   9.007  0.7079  0.0390 -0.3682
  118OSM   C17S12440   5.318   1.927   8.943  0.5287  0.2855 -1.0921
  118OSM   H17S12441   5.363   2.021   8.983 -0.7737  0.0269  1.0465
  118OSM   H17T12442   5.220   1.959   8.902 -0.1817 -1.0621 -0.4646
  118OSM   C18S12443   5.410   1.884   8.824 -0.4746 -0.6582  1.0326
  118OSM   H18S12444   5.417   1.958   8.741  1.4121 -1.8774  0.0708
  118OSM   H18T12445   5.375   1.785   8.788  2.1423 -0.9995 -0.7188
  118OSM   H18U12446   5.516   1.873   8.856  0.7437 -0.1964 -2.6567
  118OSM    C1F12447   6.212   1.203  10.497  0.2948  0.9339 -0.0890
  118OSM     OF12448   6.189   1.105  10.565  0.3048  0.4110  0.6688
  118OSM    C2F12449   6.343   1.207  10.418  0.4066 -0.1757  0.5578
  118OSM    H2F12450   6.422   1.159  10.480  0.9128 -0.0591  0.0140
  118OSM    H2G12451   6.380   1.310  10.396  0.6503 -0.8378 -2.4063
  118OSM    C3F12452   6.316   1.128  10.286 -0.2216  0.2852  0.6570
  118OSM    H3F12453   6.271   1.027  10.299  0.1917  0.2167  1.5935
  118OSM    H3G12454   6.410   1.115  10.227 -0.5860  1.3795 -0.1796
  118OSM    C4F12455   6.219   1.197  10.180 -0.7306 -0.5218 -0.1061
  118OSM    H4F12456   6.121   1.216  10.228 -1.2717 -2.4358 -0.4058
  118OSM    H4G12457   6.191   1.129  10.097 -0.3862 -1.3736  0.4611
  118OSM    C5F12458   6.262   1.336  10.141 -0.7247 -0.2410  0.1898
  118OSM    H5F12459   6.368   1.337  10.109 -0.4595  0.7103  1.0690
  118OSM    H5G12460   6.264   1.403  10.230  0.9733 -1.3059  0.9827
  118OSM    C6F12461   6.163   1.385  10.036 -0.5761 -0.1518  0.3870
  118OSM    H6F12462   6.171   1.496  10.039  0.6938 -0.1945 -1.0002
  118OSM    H6G12463   6.059   1.350  10.058 -0.7423  0.2968  0.3263
  118OSM    C7F12464   6.195   1.339   9.888  0.4025 -0.4857 -0.7062
  118OSM    H7F12465   6.229   1.234   9.905 -0.1853 -0.6743 -0.6913
  118OSM    H7G12466   6.279   1.401   9.850 -1.5442  3.2041  0.8517
  118OSM    C8F12467   6.071   1.361   9.797 -0.2799  0.6032  0.2068
  118OSM    H8F12468   6.041   1.468   9.796 -1.7376  0.2192  0.9301
  118OSM    H8G12469   5.990   1.300   9.843 -0.2842  0.5291  0.1016
  118OSM    C9F12470   6.097   1.312   9.658  0.0765  0.1518  0.3110
  118OSM    H9F12471   6.123   1.205   9.656 -0.3370  0.0489 -3.5510
  118OSM   C10F12472   6.077   1.375   9.543 -0.1159 -0.0369  0.7831
  118OSM   H10F12473   6.110   1.332   9.448 -0.2093  0.6395  0.4458
  118OSM   C11F12474   6.034   1.517   9.520 -0.8874  0.6012 -1.2642
  118OSM   H11F12475   6.118   1.574   9.476 -1.4816  3.0210  0.6241
  118OSM   H11G12476   6.007   1.572   9.613 -0.4333 -2.1097  0.5335
  118OSM   C12F12477   5.926   1.532   9.411  0.0268 -0.2228 -0.4043
  118OSM   H12F12478   5.889   1.637   9.406  1.1736  0.0590 -3.8699
  118OSM   H12G12479   5.833   1.487   9.451 -0.0425  0.6594  0.4632
  118OSM   C13F12480   5.945   1.471   9.272 -0.4435  0.3710 -0.0047
  118OSM   H13F12481   5.971   1.364   9.287 -1.2675 -0.2296 -2.5406
  118OSM   H13G12482   6.026   1.529   9.223  0.0936  0.5079  1.0249
  118OSM   C14F12483   5.821   1.478   9.183 -0.0919  0.4622  0.0471
  118OSM   H14F12484   5.799   1.583   9.155  0.1114  0.5239  0.1249
  118OSM   H14G12485   5.731   1.439   9.237  1.1146 -0.2432  1.5961
  118OSM   C15F12486   5.842   1.386   9.060  0.1400 -0.2218  0.3037
  118OSM   H15F12487   5.857   1.278   9.082 -2.1515 -0.2689  1.7838
  118OSM   H15G12488   5.939   1.420   9.018  0.0536  2.8187  2.3849
  118OSM   C16F12489   5.730   1.385   8.950  0.1961  0.5356  0.7463
  118OSM   H16F12490   5.638   1.340   8.994 -0.4015 -0.2648 -1.3117
  118OSM   H16G12491   5.771   1.307   8.884  2.6941  0.4949  2.2547
  118OSM   C17F12492   5.710   1.523   8.882  0.1769  0.7921 -0.3537
  118OSM   H17F12493   5.804   1.566   8.840  0.4698  0.2870 -0.2137
  118OSM   H17G12494   5.671   1.589   8.962 -1.3886 -0.7502  0.2010
  118OSM   C18F12495   5.597   1.519   8.766 -0.4439  0.2443 -0.1406
  118OSM   H18F12496   5.630   1.453   8.683 -0.6595  0.8542 -0.7170
  118OSM   H18G12497   5.574   1.623   8.733 -0.3809  0.3039  0.0005
  118OSM   H18H12498   5.503   1.473   8.802  0.1415 -1.0547 -0.2455
  119OSM      N12499   0.324   0.421  11.250  0.5630 -0.7295 -0.2313
  119OSM    C1512500   0.437   0.346  11.316 -0.0102  0.0582 -0.5263
  119OSM   H15A12501   0.512   0.420  11.340  0.7303 -1.0017  0.4717
  119OSM   H15B12502   0.484   0.268  11.258  1.9025  1.7179 -1.2549
  119OSM   H15C12503   0.404   0.300  11.408 -0.7223  0.6676 -0.4695
  119OSM    C1412504   0.209   0.329  11.220 -0.2236 -0.3223 -0.2819
  119OSM   H14A12505   0.238   0.243  11.160 -2.3393 -1.5217  0.3931
  119OSM   H14B12506   0.131   0.377  11.163  0.3482 -2.6226 -3.1733
  119OSM   H14C12507   0.169   0.284  11.310  0.0231 -1.5981 -0.7939
  119OSM    C1312508   0.276   0.535  11.336  0.8567  0.2086  0.5411
  119OSM   H13A12509   0.199   0.590  11.283  1.0277  0.3129  0.3969
  119OSM   H13B12510   0.351   0.607  11.367 -1.3274  1.9101  2.0793
  119OSM   H13C12511   0.233   0.492  11.425 -0.4235  2.2295  0.9544
  119OSM    C1212512   0.380   0.467  11.113  0.5851 -0.4353 -0.2767
  119OSM   H12A12513   0.455   0.394  11.085  1.3761 -0.0019  0.6354
  119OSM   H12B12514   0.438   0.558  11.123  0.6086 -0.6374  1.6140
  119OSM    C1112515   0.276   0.482  10.993 -0.3268 -0.2885  0.9061
  119OSM   H11A12516   0.259   0.376  10.963  0.6432  0.2371 -1.5777
  119OSM   H11B12517   0.322   0.528  10.903  0.8821 -1.1349  1.0670
  119OSM      P12518   0.129   0.696  11.030  0.0637 -0.0589 -0.5143
  119OSM    O1312519   0.017   0.725  11.122  0.6172  0.2777  0.4476
  119OSM    O1412520   0.252   0.770  11.052  0.4373 -0.7783  0.1160
  119OSM    O1112521   0.081   0.720  10.880 -0.0141  0.1407 -0.2190
  119OSM    O1212522   0.156   0.542  11.031 -0.2856 -0.2619  0.0053
  119OSM    C1S12523   0.006   0.616  10.814 -1.0061 -0.0039 -0.0004
  119OSM    H1S12524  -0.101   0.642  10.829 -0.7502  1.3272 -0.4087
  119OSM    H1T12525   0.023   0.510  10.844 -4.2747 -0.7600 -0.5325
  119OSM     NF12526  -0.034   0.492  10.597 -0.2068 -0.3784  0.0283
  119OSM    HNF12527   0.035   0.422  10.581 -0.5430 -0.2486 -2.0868
  119OSM    C2S12528   0.030   0.609  10.654 -0.4001  0.0289  0.0984
  119OSM    H2S12529  -0.015   0.704  10.617  1.2273  1.0008  0.5848
  119OSM    C3S12530   0.180   0.614  10.619  0.3038 -0.8800  0.5869
  119OSM    H3S12531   0.211   0.508  10.634  2.6860 -0.8277 -3.3160
  119OSM     O312532   0.279   0.693  10.688  0.3071  0.0732 -0.2236
  119OSM    HO312533   0.230   0.716  10.767  3.3140  0.9156  1.4828
  119OSM    C4S12534   0.206   0.632  10.466  0.1606  0.6806 -0.0736
  119OSM    H4S12535   0.143   0.707  10.416  0.9655  0.7750 -0.9584
  119OSM    C5S12536   0.296   0.548  10.403 -0.2051  0.0923 -0.3632
  119OSM    H5S12537   0.349   0.472  10.463 -1.5588 -0.4014  0.2392
  119OSM    C6S12538   0.315   0.534  10.255 -0.4001 -0.4066  0.1404
  119OSM    H6S12539   0.319   0.432  10.213  0.5283  0.1182 -1.0816
  119OSM    H6T12540   0.411   0.573  10.214 -1.0782 -0.5109 -1.5672
  119OSM    C7S12541   0.207   0.599  10.163  0.2245 -0.3562  0.2308
  119OSM    H7S12542   0.184   0.702  10.198  2.2289  0.7342 -1.6186
  119OSM    H7T12543   0.118   0.534  10.179 -0.2536  0.1211 -0.4728
  119OSM    C8S12544   0.254   0.596  10.022 -0.4570  0.1258  0.0836
  119OSM    H8S12545   0.261   0.491   9.989  1.5292 -0.1618  1.3561
  119OSM    H8T12546   0.363   0.617  10.014 -0.0533 -1.6471  0.8158
  119OSM    C9S12547   0.158   0.676   9.930  0.0601  0.4911  0.6523
  119OSM    H9S12548   0.150   0.780   9.969 -1.2703  0.8897 -0.6246
  119OSM    H9T12549   0.059   0.627   9.942  0.3721 -0.3282 -0.0948
  119OSM   C10S12550   0.208   0.675   9.783 -0.6776 -0.5663  0.1558
  119OSM   H10S12551   0.293   0.744   9.769 -2.1325  0.8690 -1.8839
  119OSM   H10T12552   0.122   0.716   9.725 -0.2188  0.9235  0.5069
  119OSM   C11S12553   0.236   0.538   9.707  0.4674  0.2890 -0.2461
  119OSM   H11S12554   0.157   0.461   9.722 -0.9120  1.7751  0.3179
  119OSM   H11T12555   0.334   0.504   9.745 -0.0472  0.3036  1.1275
  119OSM   C12S12556   0.268   0.557   9.558  0.3428 -0.3947 -0.2478
  119OSM   H12S12557   0.321   0.476   9.503 -0.4082  0.5176 -2.3626
  119OSM   H12T12558   0.345   0.636   9.547 -0.2163 -0.2262 -3.4335
  119OSM   C13S12559   0.160   0.623   9.469 -0.4178 -0.3494  0.9633
  119OSM   H13S12560   0.137   0.727   9.502  3.2705  1.1840 -1.1293
  119OSM   H13T12561   0.068   0.560   9.476 -0.1378 -1.0296 -1.2109
  119OSM   C14S12562   0.210   0.638   9.321  0.6429  0.4088  0.0882
  119OSM   H14S12563   0.209   0.541   9.267  2.8693 -0.2565  1.1855
  119OSM   H14T12564   0.308   0.690   9.327  0.3202  1.2278 -1.3895
  119OSM   C15S12565   0.110   0.719   9.237 -0.3013 -0.1524 -0.1872
  119OSM   H15S12566   0.105   0.825   9.271 -3.7561 -0.4758  0.5707
  119OSM   H15T12567   0.008   0.679   9.258  0.0405 -0.7465  0.3561
  119OSM   C16S12568   0.135   0.704   9.091 -0.2903  0.3656 -0.4492
  119OSM   H16S12569   0.102   0.602   9.062 -1.1729 -0.0548  1.9385
  119OSM   H16T12570   0.241   0.720   9.064 -0.6331  2.0824 -0.8780
  119OSM   C17S12571   0.047   0.799   9.006  0.0366  0.5832  0.3201
  119OSM   H17S12572  -0.045   0.810   9.068  0.4758 -1.2389  1.3348
  119OSM   H17T12573   0.024   0.758   8.905  0.8904 -1.1860  0.8183
  119OSM   C18S12574   0.111   0.938   8.971 -0.6631  0.8081 -0.7199
  119OSM   H18S12575   0.221   0.932   8.953 -0.3278 -0.4454  1.6205
  119OSM   H18T12576   0.103   1.006   9.057  1.5693 -0.4887  0.5586
  119OSM   H18U12577   0.060   0.990   8.887 -1.0242  0.0545 -0.9757
  119OSM    C1F12578  -0.162   0.468  10.597  0.2739  0.4160 -0.0034
  119OSM     OF12579  -0.254   0.554  10.607  0.6124 -0.8673  0.2005
  119OSM    C2F12580  -0.197   0.318  10.596  0.1054  0.3672  0.4506
  119OSM    H2F12581  -0.234   0.282  10.695 -0.5050 -1.5528 -0.4477
  119OSM    H2G12582  -0.110   0.253  10.574 -2.2965 -2.6355 -0.5642
  119OSM    C3F12583  -0.295   0.292  10.477  0.0917 -0.6614 -0.0257
  119OSM    H3F12584  -0.395   0.334  10.502 -0.5669 -1.9703 -0.3757
  119OSM    H3G12585  -0.311   0.182  10.471 -0.7066 -0.4285 -2.8209
  119OSM    C4F12586  -0.245   0.337  10.331  0.2623 -0.1530  0.2977
  119OSM    H4F12587  -0.235   0.446  10.311 -0.2215 -0.2761 -0.6863
  119OSM    H4G12588  -0.332   0.318  10.264 -0.0374  1.7480  0.1325
  119OSM    C5F12589  -0.122   0.263  10.292  0.2496 -0.1132 -0.2726
  119OSM    H5F12590  -0.137   0.153  10.298  1.7172 -0.2636  0.7492
  119OSM    H5G12591  -0.041   0.291  10.363  0.2577 -2.1630  0.5695
  119OSM    C6F12592  -0.089   0.284  10.143  0.1587  0.5471 -0.5468
  119OSM    H6F12593   0.013   0.242  10.126 -0.2915 -0.0459 -1.8686
  119OSM    H6G12594  -0.087   0.394  10.126  0.9343  0.4732 -0.9581
  119OSM    C7F12595  -0.187   0.219  10.045  0.8742  0.1855 -0.3964
  119OSM    H7F12596  -0.290   0.262  10.048  1.1466  1.0305 -2.2052
  119OSM    H7G12597  -0.206   0.115  10.079  0.3672  0.1767 -0.6865
  119OSM    C8F12598  -0.128   0.222   9.905 -0.0171  0.0983  0.9579
  119OSM    H8F12599  -0.195   0.167   9.835  3.0370 -0.0772 -1.9187
  119OSM    H8G12600  -0.034   0.164   9.900 -0.9831 -1.4514  0.4526
  119OSM    C9F12601  -0.108   0.362   9.852 -0.4613  0.4242 -0.2384
  119OSM    H9F12602  -0.066   0.439   9.919 -0.5607  0.5446 -0.3146
  119OSM   C10F12603  -0.123   0.388   9.719  0.6214 -0.7383  0.0745
  119OSM   H10F12604  -0.109   0.493   9.690  0.5861 -0.4070  1.2371
  119OSM   C11F12605  -0.172   0.286   9.618  0.2278  0.4292 -0.2884
  119OSM   H11F12606  -0.279   0.283   9.646  0.4602 -0.8885  0.5254
  119OSM   H11G12607  -0.125   0.188   9.642  0.3556  0.4183 -0.5862
  119OSM   C12F12608  -0.129   0.302   9.473  0.7795 -0.1241 -0.2042
  119OSM   H12F12609  -0.171   0.212   9.423 -2.3303  1.5188 -0.7330
  119OSM   H12G12610  -0.019   0.307   9.458  0.7615 -0.5126 -0.4784
  119OSM   C13F12611  -0.200   0.430   9.416 -0.1350  0.0507 -0.4394
  119OSM   H13F12612  -0.156   0.523   9.458 -0.3706  0.9710 -2.1772
  119OSM   H13G12613  -0.307   0.440   9.447 -0.9085  1.6327 -3.4372
  119OSM   C14F12614  -0.198   0.417   9.261 -0.5939 -0.5198 -0.0970
  119OSM   H14F12615  -0.241   0.318   9.234 -1.8194  0.0172 -0.1897
  119OSM   H14G12616  -0.095   0.430   9.222 -0.2985 -4.3744 -0.8162
  119OSM   C15F12617  -0.291   0.520   9.176 -0.1609  0.8046 -0.3244
  119OSM   H15F12618  -0.253   0.623   9.193 -0.7254  1.2182 -1.5553
  119OSM   H15G12619  -0.393   0.519   9.221 -0.6669  2.1438 -1.4281
  119OSM   C16F12620  -0.288   0.477   9.036  0.1212 -0.2302 -0.5374
  119OSM   H16F12621  -0.377   0.415   9.012  1.5334 -1.8776 -1.6438
  119OSM   H16G12622  -0.198   0.414   9.019 -0.1851 -0.7866 -0.0954
  119OSM   C17F12623  -0.289   0.601   8.944  0.3802  0.3846 -0.3450
  119OSM   H17F12624  -0.219   0.679   8.979  1.1334 -0.9769  1.2227
  119OSM   H17G12625  -0.385   0.654   8.958 -0.8017 -2.1249  1.3677
  119OSM   C18F12626  -0.259   0.579   8.790  0.0786 -0.0653 -0.1141
  119OSM   H18F12627  -0.242   0.676   8.739  2.0946  1.0357  2.5487
  119OSM   H18G12628  -0.346   0.524   8.748 -1.0913  1.3768  0.3912
  119OSM   H18H12629  -0.168   0.517   8.776 -0.2079 -0.2206 -1.3584
  120OSM      N12630   5.674   3.934  10.578 -0.9198 -0.4368 -0.4004
  120OSM    C1512631   5.630   4.046  10.659 -0.2058  0.4175 -0.1608
  120OSM   H15A12632   5.719   4.089  10.703  0.7654 -3.8462  2.3180
  120OSM   H15B12633   5.560   4.010  10.734 -0.5185  0.8642 -0.2373
  120OSM   H15C12634   5.577   4.115  10.595  0.9587  0.6748 -0.8564
  120OSM    C1412635   5.737   3.839  10.675  0.7681  0.1295 -0.1038
  120OSM   H14A12636   5.792   3.764  10.620 -2.5258 -0.9323 -2.1117
  120OSM   H14B12637   5.662   3.783  10.730  1.3537 -1.9428 -1.3465
  120OSM   H14C12638   5.800   3.896  10.742  2.7590 -2.1457  0.0393
  120OSM    C1312639   5.563   3.863  10.512 -0.0476 -0.3939  1.1278
  120OSM   H13A12640   5.513   3.939  10.454  2.5346  1.5412  1.3468
  120OSM   H13B12641   5.497   3.802  10.573 -2.5233  0.3598 -0.7078
  120OSM   H13C12642   5.595   3.783  10.448  0.4820 -1.3709  2.5747
  120OSM    C1212643   5.772   3.984  10.474  0.1737 -0.3388 -0.2040
  120OSM   H12A12644   5.861   4.019  10.523 -0.3071 -0.3011  0.6536
  120OSM   H12B12645   5.728   4.064  10.416  1.7785  1.0719  0.4678
  120OSM    C1112646   5.830   3.877  10.374  0.5688  0.2414  0.0488
  120OSM   H11A12647   5.869   3.929  10.284  0.3189  0.5906  0.1399
  120OSM   H11B12648   5.743   3.816  10.340  1.1802 -2.3603  2.9424
  120OSM      P12649   6.072   3.871  10.460 -0.3384 -0.1362 -0.2624
  120OSM    O1312650   6.057   3.998  10.542  0.3967  0.4996 -0.1364
  120OSM    O1412651   6.164   3.769  10.522 -0.7447  0.1517 -0.0185
  120OSM    O1112652   6.112   3.904  10.311 -0.0986  0.0596  0.3635
  120OSM    O1212653   5.927   3.804  10.442  0.1462 -0.4537  0.5669
  120OSM    C1S12654   6.144   4.034  10.276  0.1668 -0.0076 -0.3290
  120OSM    H1S12655   6.225   4.058  10.348 -0.2698 -0.0301  0.1700
  120OSM    H1T12656   6.065   4.110  10.296  0.4065  0.3759 -0.8205
  120OSM     NF12657   6.267   4.163  10.107 -0.0341 -0.2701 -0.1078
  120OSM    HNF12658   6.214   4.246  10.088  0.1130 -0.4105 -1.1443
  120OSM    C2S12659   6.195   4.043  10.133 -0.1106 -0.5556 -0.3664
  120OSM    H2S12660   6.263   3.958  10.107 -0.3352 -0.8877  0.1259
  120OSM    C3S12661   6.073   4.028  10.035 -0.3400 -0.2253  0.0192
  120OSM    H3S12662   5.996   4.100  10.070 -1.2408  0.1740 -2.6747
  120OSM     O312663   6.021   3.898  10.054  0.0696  0.4011 -0.1498
  120OSM    HO312664   6.063   3.881  10.139  2.7964 -1.8178 -1.8509
  120OSM    C4S12665   6.105   4.038   9.888  0.3441  0.3398 -0.1917
  120OSM    H4S12666   6.175   3.965   9.843 -0.8715 -0.1971 -1.2671
  120OSM    C5S12667   6.065   4.132   9.799  0.3958 -0.0098 -0.1196
  120OSM    H5S12668   6.003   4.217   9.830  1.4172  0.2936  1.1471
  120OSM    C6S12669   6.117   4.126   9.657  0.1057 -0.1782  0.3677
  120OSM    H6S12670   6.049   4.185   9.591  0.5463 -1.6821 -1.4689
  120OSM    H6T12671   6.105   4.025   9.612  6.0846 -2.0079  2.4046
  120OSM    C7S12672   6.264   4.164   9.644 -0.1346  0.2024  0.1025
  120OSM    H7S12673   6.323   4.127   9.730  0.0284  0.8327  0.2647
  120OSM    H7T12674   6.261   4.274   9.658 -1.4151  0.1711  0.1058
  120OSM    C8S12675   6.335   4.138   9.504 -0.1182  0.1494  0.4087
  120OSM    H8S12676   6.364   4.031   9.491 -1.4623 -0.2592  0.5876
  120OSM    H8T12677   6.432   4.190   9.510 -0.0217 -0.1902  2.4288
  120OSM    C9S12678   6.260   4.199   9.377  0.1182 -0.0523  0.0585
  120OSM    H9S12679   6.224   4.301   9.403  0.9939  0.2490  0.1039
  120OSM    H9T12680   6.172   4.132   9.368 -0.0462 -0.0711  1.7384
  120OSM   C10S12681   6.352   4.188   9.254 -0.6224  0.6030  0.7178
  120OSM   H10S12682   6.385   4.082   9.245  0.8093  1.1535 -0.6138
  120OSM   H10T12683   6.436   4.261   9.257 -0.8576  0.8471  1.7516
  120OSM   C11S12684   6.286   4.219   9.119  0.2789 -0.5559 -0.8147
  120OSM   H11S12685   6.236   4.318   9.126  0.2744 -0.7055  1.9057
  120OSM   H11T12686   6.202   4.150   9.095 -0.8131  0.4309  0.0876
  120OSM   C12S12687   6.375   4.232   9.002 -0.2376  0.2557 -0.3012
  120OSM   H12S12688   6.410   4.129   8.979  0.3886  0.3216  0.3400
  120OSM   H12T12689   6.468   4.289   9.026 -0.5713  0.1732  1.2441
  120OSM   C13S12690   6.302   4.285   8.876  0.8882 -0.1442 -0.1608
  120OSM   H13S12691   6.372   4.280   8.790 -0.1374 -0.1821 -1.0063
  120OSM   H13T12692   6.275   4.392   8.891  3.9156  0.7311 -0.7134
  120OSM   C14S12693   6.186   4.195   8.836  0.7042  1.0595 -0.6764
  120OSM   H14S12694   6.113   4.200   8.920 -0.4241  0.2111 -1.5882
  120OSM   H14T12695   6.226   4.091   8.831 -0.0167  0.7147  0.4185
  120OSM   C15S12696   6.130   4.233   8.701 -0.7674 -0.5109  0.1249
  120OSM   H15S12697   6.216   4.244   8.632  0.1833  0.9438  1.5255
  120OSM   H15T12698   6.087   4.335   8.712  0.2739 -0.1750  1.1269
  120OSM   C16S12699   6.029   4.133   8.643 -0.0654 -0.9581  0.0204
  120OSM   H16S12700   5.947   4.119   8.717  0.0902  2.9158  1.0212
  120OSM   H16T12701   6.085   4.039   8.622 -1.3338 -1.2708 -2.0461
  120OSM   C17S12702   5.983   4.177   8.511  1.3277  0.8406 -0.4739
  120OSM   H17S12703   6.066   4.207   8.444  1.2145  2.6446  0.1773
  120OSM   H17T12704   5.921   4.267   8.532 -1.9258 -1.7722  1.6400
  120OSM   C18S12705   5.897   4.067   8.446 -0.6718  0.3490 -0.3846
  120OSM   H18S12706   5.862   4.101   8.346 -0.9855  4.0466  0.9049
  120OSM   H18T12707   5.805   4.048   8.506 -0.1694  0.8328  0.5412
  120OSM   H18U12708   5.963   3.978   8.440  0.4128  1.1119  0.1577
  120OSM    C1F12709   6.389   4.181  10.164 -0.1600  0.5240 -0.1692
  120OSM     OF12710   6.454   4.075  10.184 -0.7948 -0.2962 -0.5550
  120OSM    C2F12711   6.443   4.315  10.207 -0.3388  0.0446 -0.4494
  120OSM    H2F12712   6.467   4.309  10.315 -0.3290 -2.5533 -0.5847
  120OSM    H2G12713   6.356   4.384  10.207  0.3322  0.9181  0.5638
  120OSM    C3F12714   6.570   4.367  10.139 -0.0001  0.2427  0.3067
  120OSM    H3F12715   6.660   4.312  10.175 -1.3972 -2.6309 -0.3978
  120OSM    H3G12716   6.586   4.468  10.182  0.3491  0.3879 -0.1630
  120OSM    C4F12717   6.564   4.359   9.984 -0.1574  0.0601  0.2875
  120OSM    H4F12718   6.463   4.391   9.953 -0.4055 -0.9153  0.0672
  120OSM    H4G12719   6.570   4.250   9.962  0.8021 -0.2031  1.7884
  120OSM    C5F12720   6.676   4.438   9.913 -0.3230 -0.4380 -0.2873
  120OSM    H5F12721   6.677   4.428   9.803 -1.7277 -1.6936 -0.1993
  120OSM    H5G12722   6.776   4.410   9.953  0.4171 -0.2513 -1.9872
  120OSM    C6F12723   6.655   4.589   9.928 -0.0401  0.1451 -0.3065
  120OSM    H6F12724   6.752   4.643   9.933 -0.3768  1.1023 -3.0808
  120OSM    H6G12725   6.619   4.606  10.032 -2.1426 -1.6208 -0.6991
  120OSM    C7F12726   6.557   4.646   9.820 -0.4403 -0.3582 -0.0281
  120OSM    H7F12727   6.456   4.604   9.837 -1.1851  1.0861 -0.7925
  120OSM    H7G12728   6.580   4.610   9.717 -2.0979 -1.1363 -0.1364
  120OSM    C8F12729   6.570   4.794   9.830  0.1738  0.0822 -0.1226
  120OSM    H8F12730   6.666   4.829   9.788  0.2792  0.8337  0.7146
  120OSM    H8G12731   6.574   4.814   9.940  0.5676  1.9592 -0.4486
  120OSM    C9F12732   6.453   4.872   9.766 -0.6146 -0.6578 -0.2609
  120OSM    H9F12733   6.360   4.863   9.824 -1.0845 -1.0331 -1.0642
  120OSM   C10F12734   6.447   4.968   9.665 -0.1933 -0.1651  0.1954
  120OSM   H10F12735   6.345   5.005   9.646  0.2699  0.1870 -1.6971
  120OSM   C11F12736   6.555   5.020   9.572  0.2147  0.0394  0.4092
  120OSM   H11F12737   6.651   5.029   9.627  0.2155 -0.3934  0.4795
  120OSM   H11G12738   6.538   5.123   9.533  2.0516  0.1682 -0.1073
  120OSM   C12F12739   6.578   4.919   9.455  0.3058  0.5173  0.1454
  120OSM   H12F12740   6.615   4.822   9.494 -0.7659  0.4914  1.1199
  120OSM   H12G12741   6.663   4.965   9.400  1.9067  0.4210  2.4558
  120OSM   C13F12742   6.461   4.895   9.360  0.5550 -0.1139 -0.0705
  120OSM   H13F12743   6.375   4.889   9.430  2.1066 -0.1391  1.8769
  120OSM   H13G12744   6.476   4.795   9.315  0.5314 -0.2204  0.1624
  120OSM   C14F12745   6.432   5.010   9.259  0.1323  0.1780 -0.4177
  120OSM   H14F12746   6.429   5.109   9.309  1.0430 -0.3135  0.6538
  120OSM   H14G12747   6.337   4.983   9.207  1.0774 -0.8928 -1.6460
  120OSM   C15F12748   6.538   5.016   9.152  0.1670 -0.8757  0.6770
  120OSM   H15F12749   6.561   4.916   9.110  0.3084  0.1720 -1.8330
  120OSM   H15G12750   6.624   5.062   9.205 -1.5819 -1.8111  4.4624
  120OSM   C16F12751   6.494   5.100   9.028  0.2748  0.2766  0.8422
  120OSM   H16F12752   6.449   5.195   9.065  0.2594  0.6389 -0.1018
  120OSM   H16G12753   6.410   5.055   8.971 -2.0163  2.1279  2.6597
  120OSM   C17F12754   6.614   5.142   8.936 -0.6719 -0.5961 -0.0269
  120OSM   H17F12755   6.690   5.065   8.909  1.2949  1.8635 -1.7489
  120OSM   H17G12756   6.680   5.215   8.990 -0.9876 -0.2488 -0.1118
  120OSM   C18F12757   6.580   5.213   8.809 -0.5063 -0.2008 -1.1338
  120OSM   H18F12758   6.660   5.219   8.733 -1.0375  1.1562 -1.5960
  120OSM   H18G12759   6.551   5.313   8.846  0.6365 -0.7544  1.3888
  120OSM   H18H12760   6.491   5.157   8.771 -1.6324 -0.0532  1.2188
  121OSM      N12761   4.961   0.554  11.030  0.2743 -0.2589  0.3478
  121OSM    C1512762   4.852   0.444  11.043 -0.3494  0.1935 -0.5471
  121OSM   H15A12763   4.802   0.419  10.951  0.1626 -0.9156 -0.5331
  121OSM   H15B12764   4.779   0.456  11.122  0.6524  0.2731  0.3754
  121OSM   H15C12765   4.905   0.354  11.071 -0.7032  0.3116  0.5317
  121OSM    C1412766   4.906   0.674  10.970  0.0801  0.0562  0.1791
  121OSM   H14A12767   4.880   0.661  10.866 -1.2790  1.5852  0.3077
  121OSM   H14B12768   4.973   0.759  10.974 -0.6630  0.6460  0.1612
  121OSM   H14C12769   4.820   0.705  11.028  1.6512  0.5449  2.3149
  121OSM    C1312770   5.021   0.588  11.164 -0.0539 -0.6335  0.4995
  121OSM   H13A12771   5.101   0.660  11.156 -0.3935 -0.3659 -0.5971
  121OSM   H13B12772   5.054   0.496  11.211 -2.8587 -2.3782 -0.8030
  121OSM   H13C12773   4.949   0.634  11.231 -0.4207  0.9536 -0.9479
  121OSM    C1212774   5.071   0.501  10.941  0.3102  0.6116  0.2640
  121OSM   H12A12775   5.040   0.477  10.841 -1.6750  1.4512  0.6576
  121OSM   H12B12776   5.110   0.404  10.969  1.7766  1.3477  0.8416
  121OSM    C1112777   5.194   0.593  10.924 -0.5234  0.7050  0.0643
  121OSM   H11A12778   5.160   0.698  10.913 -1.0403  0.4779 -0.5058
  121OSM   H11B12779   5.251   0.566  10.832 -1.0356 -1.3106  0.3097
  121OSM      P12780   5.390   0.476  11.054 -0.7031  0.0779  0.3871
  121OSM    O1312781   5.461   0.511  11.176 -0.1684  0.3237 -0.4447
  121OSM    O1412782   5.316   0.345  11.051 -0.5377  0.1187 -0.2639
  121OSM    O1112783   5.480   0.504  10.924 -0.5276 -0.5002  0.0060
  121OSM    O1212784   5.282   0.595  11.039 -0.3337  0.2850  0.0653
  121OSM    C1S12785   5.512   0.408  10.828  0.1351  0.3949 -0.3381
  121OSM    H1S12786   5.475   0.307  10.856  0.9019  0.0259 -0.6331
  121OSM    H1T12787   5.623   0.401  10.826  0.3171  2.4061  0.6020
  121OSM     NF12788   5.436   0.348  10.586 -0.1971  0.1057 -0.5091
  121OSM    HNF12789   5.508   0.325  10.521 -0.1217  1.1420 -0.8016
  121OSM    C2S12790   5.466   0.451  10.685  0.0830 -0.0085 -0.0335
  121OSM    H2S12791   5.370   0.507  10.689 -0.0682 -0.1604 -1.3002
  121OSM    C3S12792   5.574   0.551  10.637  0.5101 -0.5429  0.1480
  121OSM    H3S12793   5.670   0.495  10.629  0.6859 -0.2116 -0.0621
  121OSM     O312794   5.596   0.653  10.728  0.4501  0.0271  0.0613
  121OSM    HO312795   5.567   0.606  10.807 -0.4898  1.0734  0.3558
  121OSM    C4S12796   5.517   0.606  10.507 -0.0060 -0.7345  0.3914
  121OSM    H4S12797   5.407   0.609  10.499 -0.0498 -2.3458  0.2641
  121OSM    C5S12798   5.597   0.647  10.405 -0.2485  0.2370  0.3462
  121OSM    H5S12799   5.705   0.638  10.423 -0.5372 -0.8137  1.5439
  121OSM    C6S12800   5.561   0.705  10.274  0.9101  0.5567 -0.1341
  121OSM    H6S12801   5.584   0.813  10.265 -2.4548  1.1353 -3.0209
  121OSM    H6T12802   5.452   0.690  10.263  0.7930 -1.0706  2.7377
  121OSM    C7S12803   5.639   0.630  10.165  0.1061 -0.1619 -0.0472
  121OSM    H7S12804   5.615   0.523  10.187 -0.7287  0.2123  0.8742
  121OSM    H7T12805   5.747   0.638  10.188  0.4060  2.6644 -2.1580
  121OSM    C8S12806   5.608   0.672  10.019 -0.4097 -0.0382 -0.0481
  121OSM    H8S12807   5.635   0.780  10.019  0.7959 -0.3137  1.6329
  121OSM    H8T12808   5.500   0.661   9.992 -0.7952 -0.3408  1.5619
  121OSM    C9S12809   5.690   0.606   9.907 -0.9195 -0.4780  0.2153
  121OSM    H9S12810   5.680   0.495   9.912  0.0251 -0.5478  0.6673
  121OSM    H9T12811   5.791   0.641   9.936 -1.7302  2.2097 -0.0911
  121OSM   C10S12812   5.651   0.656   9.770 -0.3143  0.0954 -0.7173
  121OSM   H10S12813   5.692   0.757   9.745 -0.5475  1.2855  3.3517
  121OSM   H10T12814   5.542   0.645   9.752 -0.2050  1.9628 -2.7314
  121OSM   C11S12815   5.702   0.558   9.666 -0.1015  0.0591  1.0628
  121OSM   H11S12816   5.674   0.452   9.686  3.1903 -0.8869  0.9996
  121OSM   H11T12817   5.812   0.569   9.652  0.0156 -2.0025  0.1012
  121OSM   C12S12818   5.646   0.597   9.530 -0.0099  0.0174 -0.7224
  121OSM   H12S12819   5.647   0.708   9.528  0.6668 -0.0025 -2.9143
  121OSM   H12T12820   5.543   0.556   9.531 -0.3818  0.9349  1.4943
  121OSM   C13S12821   5.716   0.525   9.411  0.0714  0.5429  0.2426
  121OSM   H13S12822   5.742   0.424   9.449  0.8588  0.1810 -1.1963
  121OSM   H13T12823   5.817   0.566   9.391  0.7700 -1.9041 -1.4843
  121OSM   C14S12824   5.643   0.524   9.271 -0.0892 -0.5322  0.4643
  121OSM   H14S12825   5.539   0.485   9.281 -0.2768 -0.6639 -1.6890
  121OSM   H14T12826   5.694   0.453   9.202  0.3957  0.0152  0.2658
  121OSM   C15S12827   5.647   0.672   9.225 -0.4549  0.3708  0.4761
  121OSM   H15S12828   5.753   0.696   9.201 -0.7818  3.4017  1.9183
  121OSM   H15T12829   5.605   0.746   9.296 -1.3548  0.1237  0.2070
  121OSM   C16S12830   5.561   0.698   9.095  0.6325  0.8567  0.4579
  121OSM   H16S12831   5.553   0.808   9.100  2.3718  1.0877 -1.4965
  121OSM   H16T12832   5.460   0.652   9.098  0.6732  0.8164  1.6689
  121OSM   C17S12833   5.627   0.656   8.966 -0.1032 -0.1529 -0.4142
  121OSM   H17S12834   5.618   0.546   8.953  3.3136 -0.5667  0.2463
  121OSM   H17T12835   5.735   0.681   8.971 -0.7560  3.3117 -1.9430
  121OSM   C18S12836   5.576   0.712   8.827 -0.6177  0.6276  0.2211
  121OSM   H18S12837   5.609   0.816   8.804 -0.7958  0.8609  0.9797
  121OSM   H18T12838   5.466   0.702   8.821 -0.6611  1.3102 -0.1479
  121OSM   H18U12839   5.628   0.649   8.752 -0.2183  2.3045 -0.9434
  121OSM    C1F12840   5.333   0.267  10.611  0.2213 -0.0416  0.1219
  121OSM     OF12841   5.256   0.293  10.701  0.3074  0.2087 -0.1547
  121OSM    C2F12842   5.335   0.144  10.531 -0.9016  0.1280  0.4346
  121OSM    H2F12843   5.327   0.065  10.609 -2.3813 -0.1112  0.0581
  121OSM    H2G12844   5.433   0.126  10.482 -0.8107 -0.3110  0.7634
  121OSM    C3F12845   5.218   0.141  10.428 -0.2985 -0.8056  0.0269
  121OSM    H3F12846   5.124   0.156  10.486 -0.4778  2.0229 -0.9431
  121OSM    H3G12847   5.220   0.041  10.381  0.6506 -0.0019 -1.6634
  121OSM    C4F12848   5.219   0.252  10.314 -0.6196  0.7245  0.0957
  121OSM    H4F12849   5.231   0.349  10.368 -0.4752  0.3732  0.6934
  121OSM    H4G12850   5.122   0.262  10.262 -0.6616  1.4015  0.3000
  121OSM    C5F12851   5.337   0.227  10.221 -0.3897  0.1380  0.2783
  121OSM    H5F12852   5.333   0.125  10.178  1.0604 -0.4057  1.4218
  121OSM    H5G12853   5.431   0.245  10.276 -0.0842  1.2233 -0.5792
  121OSM    C6F12854   5.344   0.326  10.104  0.1012 -0.6976  0.9598
  121OSM    H6F12855   5.354   0.425  10.153  1.3081 -0.5510  0.4164
  121OSM    H6G12856   5.249   0.330  10.046  0.1561 -0.6478  0.8752
  121OSM    C7F12857   5.451   0.309  10.000 -0.4933 -0.2928 -0.0294
  121OSM    H7F12858   5.460   0.200   9.986 -1.9778 -0.4992  0.4998
  121OSM    H7G12859   5.544   0.354  10.041 -1.4189  0.0254  1.7698
  121OSM    C8F12860   5.432   0.375   9.866 -0.8219 -0.6225  0.7714
  121OSM    H8F12861   5.535   0.371   9.825 -0.4903  3.0936  1.1337
  121OSM    H8G12862   5.417   0.484   9.877  0.3354 -0.4030  0.1898
  121OSM    C9F12863   5.331   0.302   9.786  0.4388 -0.0647 -0.1536
  121OSM    H9F12864   5.231   0.289   9.831 -0.1307 -0.3158 -1.4554
  121OSM   C10F12865   5.348   0.241   9.674 -0.0630  0.0776  0.8036
  121OSM   H10F12866   5.264   0.183   9.633  1.3326 -1.6251  0.3134
  121OSM   C11F12867   5.469   0.220   9.581  0.2535  0.1704  0.4939
  121OSM   H11F12868   5.494   0.112   9.571 -0.9589  0.0099 -1.1302
  121OSM   H11G12869   5.558   0.274   9.620  0.8250 -1.8314  2.0057
  121OSM   C12F12870   5.445   0.266   9.430 -0.4521 -0.4212 -0.3459
  121OSM   H12F12871   5.543   0.252   9.380 -0.2340  4.3861 -1.5065
  121OSM   H12G12872   5.436   0.377   9.424  1.8231  0.1043  3.8634
  121OSM   C13F12873   5.337   0.185   9.364  0.1622 -0.3939 -0.8617
  121OSM   H13F12874   5.236   0.191   9.409  0.7839  0.4067  0.4572
  121OSM   H13G12875   5.357   0.076   9.370  0.0146 -0.3165  1.2831
  121OSM   C14F12876   5.306   0.224   9.225 -0.0232  0.3820 -0.6972
  121OSM   H14F12877   5.287   0.334   9.228  1.0919  0.5936 -1.1146
  121OSM   H14G12878   5.210   0.175   9.199 -1.0290  0.7452  2.1801
  121OSM   C15F12879   5.406   0.191   9.122  0.4381  0.3229 -0.2904
  121OSM   H15F12880   5.423   0.084   9.098  2.0107  0.4148  0.3556
  121OSM   H15G12881   5.500   0.232   9.164  0.3982 -1.5618  1.7156
  121OSM   C16F12882   5.371   0.250   8.982  0.0323  0.0493  0.2593
  121OSM   H16F12883   5.364   0.360   8.981  1.1080  0.1606  2.5627
  121OSM   H16G12884   5.276   0.208   8.943 -0.1995  0.0670  0.7991
  121OSM   C17F12885   5.491   0.235   8.892 -0.1482 -0.0502 -0.5635
  121OSM   H17F12886   5.501   0.126   8.871  0.0451 -0.3148  0.8340
  121OSM   H17G12887   5.587   0.278   8.927 -0.1006  0.7089 -1.6258
  121OSM   C18F12888   5.459   0.308   8.755 -0.2620  0.3540 -0.5027
  121OSM   H18F12889   5.429   0.414   8.768  0.3935  0.5492 -0.5626
  121OSM   H18G12890   5.375   0.260   8.701  0.2743 -0.1087 -0.9354
  121OSM   H18H12891   5.555   0.304   8.698  0.5738 -0.4318  0.9097
  122OSM      N12892   6.294   5.352  11.253 -0.6791 -0.1579 -0.7202
  122OSM    C1512893   6.385   5.459  11.195  0.3016 -0.1313 -0.1442
  122OSM   H15A12894   6.364   5.479  11.090 -1.2551 -0.5932  0.0709
  122OSM   H15B12895   6.486   5.427  11.213  0.6056 -1.3029 -3.4671
  122OSM   H15C12896   6.380   5.556  11.243 -0.0656  0.2329 -0.9028
  122OSM    C1412897   6.339   5.330  11.395  0.1199 -0.1430 -0.1543
  122OSM   H14A12898   6.293   5.241  11.434  0.0266 -0.0154  0.0290
  122OSM   H14B12899   6.298   5.410  11.455  1.8292  0.1178  0.7061
  122OSM   H14C12900   6.446   5.339  11.405  0.2869 -0.5098 -1.5432
  122OSM    C1312901   6.150   5.390  11.255  0.3060  0.6486  0.5418
  122OSM   H13A12902   6.138   5.483  11.309 -2.2686  0.5979  0.1399
  122OSM   H13B12903   6.090   5.312  11.300  1.2319  0.2742  1.1216
  122OSM   H13C12904   6.124   5.415  11.153  0.0876 -1.4162  0.0689
  122OSM    C1212905   6.314   5.223  11.181 -0.2717 -0.1425 -0.4898
  122OSM   H12A12906   6.244   5.156  11.228 -0.3519  0.6222  0.5104
  122OSM   H12B12907   6.417   5.196  11.197 -0.2365  1.2620  2.0576
  122OSM    C1112908   6.277   5.230  11.030  0.4147  0.4936  0.4026
  122OSM   H11A12909   6.284   5.131  10.982  2.3030  0.8369 -0.0476
  122OSM   H11B12910   6.353   5.299  10.988  0.9019 -0.6881 -0.6894
  122OSM      P12911   6.038   5.206  10.920  0.3755 -0.2168 -0.4072
  122OSM    O1312912   6.005   5.083  10.996 -0.0090 -0.1937 -0.0745
  122OSM    O1412913   5.920   5.288  10.879 -0.2706 -0.2726  0.5595
  122OSM    O1112914   6.115   5.159  10.792  0.7037  0.3786 -0.3318
  122OSM    O1212915   6.145   5.287  11.005 -0.5121  0.5777 -0.0272
  122OSM    C1S12916   6.194   5.238  10.713  0.3506 -0.2638  0.1525
  122OSM    H1S12917   6.296   5.236  10.756 -0.7328 -3.2402  2.7822
  122OSM    H1T12918   6.155   5.342  10.709 -0.7049 -0.7045 -1.5352
  122OSM     NF12919   6.316   5.235  10.511  0.3093 -0.0436 -0.0628
  122OSM    HNF12920   6.295   5.304  10.442 -0.3713  1.1817  1.3370
  122OSM    C2S12921   6.198   5.187  10.569  0.6236  0.4028  0.0183
  122OSM    H2S12922   6.188   5.076  10.572  1.6103  0.3591  2.1935
  122OSM    C3S12923   6.068   5.236  10.491 -0.7610  0.5741  0.2006
  122OSM    H3S12924   6.075   5.347  10.495  0.3457  0.5636 -0.9837
  122OSM     O312925   5.950   5.186  10.554 -0.0657  0.0314 -0.2680
  122OSM    HO312926   5.973   5.151  10.641 -2.3783  1.8050  1.1327
  122OSM    C4S12927   6.080   5.198  10.342 -0.2993 -0.5398 -0.6907
  122OSM    H4S12928   6.120   5.281  10.282  0.5534  0.5658  1.3404
  122OSM    C5S12929   6.060   5.079  10.279  0.4969  0.0444  0.1185
  122OSM    H5S12930   6.036   4.995  10.346  0.6866  0.3067  0.5144
  122OSM    C6S12931   6.066   5.064  10.131  0.0900 -0.5391  0.8723
  122OSM    H6S12932   6.118   4.966  10.119 -2.3863 -1.9320  1.2654
  122OSM    H6T12933   6.125   5.148  10.089 -1.2415  0.5333  1.1169
  122OSM    C7S12934   5.928   5.056  10.066 -0.1887 -0.3729 -0.8082
  122OSM    H7S12935   5.877   5.154  10.082 -1.7090 -1.3890  0.7730
  122OSM    H7T12936   5.870   4.972  10.109  2.1104 -1.5470  0.0682
  122OSM    C8S12937   5.926   5.009   9.918 -0.6360  0.2827  0.6111
  122OSM    H8S12938   5.819   4.986   9.897 -1.3945  2.3705  2.1092
  122OSM    H8T12939   5.979   4.911   9.911 -0.8593  0.2098 -0.1305
  122OSM    C9S12940   5.965   5.117   9.818 -0.2861 -0.2885  0.7833
  122OSM    H9S12941   6.074   5.140   9.823 -0.5671  1.3624 -0.3519
  122OSM    H9T12942   5.907   5.209   9.837  0.1426 -0.0215  0.8149
  122OSM   C10S12943   5.935   5.077   9.672 -0.0551 -0.4579 -0.3799
  122OSM   H10S12944   5.829   5.047   9.671 -0.7142  1.8191 -1.1143
  122OSM   H10T12945   6.002   4.993   9.643 -0.9659 -0.6177 -2.0473
  122OSM   C11S12946   5.947   5.202   9.577  0.2748 -0.2834  0.1336
  122OSM   H11S12947   6.040   5.255   9.608 -0.1625 -0.3017  1.4874
  122OSM   H11T12948   5.868   5.276   9.601 -0.2394 -1.1471  1.1216
  122OSM   C12S12949   5.958   5.145   9.430  0.6611 -0.4384 -0.2486
  122OSM   H12S12950   5.859   5.130   9.384  0.6590 -1.1313 -0.0304
  122OSM   H12T12951   6.009   5.046   9.439  1.2946 -0.1257 -0.3940
  122OSM   C13S12952   6.036   5.240   9.336  0.3008  0.6471 -0.5992
  122OSM   H13S12953   6.139   5.242   9.377 -0.9157  0.1633  2.6486
  122OSM   H13T12954   5.999   5.344   9.355 -0.3768  0.0972  1.2411
  122OSM   C14S12955   6.033   5.207   9.195  0.1356 -0.6608  0.2733
  122OSM   H14S12956   5.931   5.188   9.157 -0.3097 -2.2648  2.1893
  122OSM   H14T12957   6.100   5.120   9.182  1.3508  0.0902  1.3485
  122OSM   C15S12958   6.088   5.325   9.111 -0.3924  0.3358  0.1804
  122OSM   H15S12959   6.194   5.339   9.139 -0.0579 -1.7523  0.0854
  122OSM   H15T12960   6.026   5.415   9.130 -1.5091 -0.6782  1.4735
  122OSM   C16S12961   6.095   5.309   8.957 -0.8709 -0.3296  0.3973
  122OSM   H16S12962   6.010   5.364   8.911  0.4653  0.1981 -1.5171
  122OSM   H16T12963   6.089   5.202   8.928  2.5642 -0.0427 -1.6447
  122OSM   C17S12964   6.214   5.385   8.898 -0.5585  0.0263  0.6803
  122OSM   H17S12965   6.309   5.344   8.940  0.2250  0.8875 -0.2174
  122OSM   H17T12966   6.211   5.491   8.932  0.5032  0.4600 -0.5441
  122OSM   C18S12967   6.234   5.382   8.747 -0.1791  0.4827 -0.5336
  122OSM   H18S12968   6.306   5.460   8.715  1.9843 -1.3471 -0.2557
  122OSM   H18T12969   6.140   5.391   8.689 -0.4151  1.2604 -0.0503
  122OSM   H18U12970   6.284   5.290   8.711 -0.5173  0.1138 -0.0805
  122OSM    C1F12971   6.442   5.199  10.541  0.4490 -0.2277 -0.7577
  122OSM     OF12972   6.471   5.124  10.634  0.1297 -0.2688 -0.1522
  122OSM    C2F12973   6.554   5.248  10.445  0.0818 -0.1762 -0.0035
  122OSM    H2F12974   6.651   5.244  10.499 -0.3957 -2.2948  0.7572
  122OSM    H2G12975   6.538   5.351  10.407 -1.7030  0.4141  2.2256
  122OSM    C3F12976   6.561   5.145  10.331  0.5926  0.1129  0.0283
  122OSM    H3F12977   6.467   5.145  10.272  0.8583  2.3995 -0.4235
  122OSM    H3G12978   6.579   5.040  10.362  1.2657  0.7370  1.7935
  122OSM    C4F12979   6.677   5.190  10.232  0.8298 -0.3334  0.7468
  122OSM    H4F12980   6.779   5.172  10.272  1.9102 -2.4226 -2.7023
  122OSM    H4G12981   6.663   5.297  10.206 -1.9497 -0.7229  0.5180
  122OSM    C5F12982   6.663   5.113  10.105  0.2821 -0.0574  0.2224
  122OSM    H5F12983   6.576   5.146  10.044  0.6645  0.6594  0.0531
  122OSM    H5G12984   6.663   5.003  10.117  1.1110 -0.1886 -0.8708
  122OSM    C6F12985   6.774   5.154  10.009  0.2525  0.6890 -0.1191
  122OSM    H6F12986   6.870   5.126  10.057 -1.0473  1.3190  3.0340
  122OSM    H6G12987   6.771   5.265   9.998 -0.3682  0.9418  2.2728
  122OSM    C7F12988   6.773   5.090   9.865  0.4771 -0.5787 -0.0748
  122OSM    H7F12989   6.665   5.093   9.837  0.5349  2.3765 -0.1973
  122OSM    H7G12990   6.810   4.986   9.860  2.0035 -0.0207 -0.7183
  122OSM    C8F12991   6.858   5.191   9.769  0.1331  0.1341 -0.5475
  122OSM    H8F12992   6.839   5.297   9.795 -1.0796 -0.4008  0.7818
  122OSM    H8G12993   6.815   5.162   9.671  1.4097  3.6431 -2.2507
  122OSM    C9F12994   6.999   5.157   9.797  0.3497  0.1636 -0.3232
  122OSM    H9F12995   7.031   5.135   9.900  1.1551 -1.5509 -0.9271
  122OSM   C10F12996   7.094   5.158   9.701 -0.2772  0.3643 -0.4783
  122OSM   H10F12997   7.196   5.129   9.727 -0.1956  0.9771 -0.1143
  122OSM   C11F12998   7.074   5.198   9.553  0.0003  0.1032 -0.4765
  122OSM   H11F12999   7.166   5.223   9.496  0.1174  0.7422 -0.0097
  122OSM   H11G13000   7.014   5.291   9.546 -1.1010 -0.5557  0.0365
  122OSM   C12F13001   7.003   5.084   9.473 -0.4180 -0.0189 -0.0535
  122OSM   H12F13002   6.910   5.050   9.524 -0.3884  0.2398  0.1759
  122OSM   H12G13003   7.068   4.995   9.483  1.9157  1.9611  3.4329
  122OSM   C13F13004   6.971   5.112   9.326  0.3293  0.5603  0.3839
  122OSM   H13F13005   6.912   5.207   9.333 -1.5650 -0.6480  1.2280
  122OSM   H13G13006   6.899   5.036   9.292  0.8008 -0.0190  0.6764
  122OSM   C14F13007   7.084   5.130   9.226  0.2555  0.2062 -0.1337
  122OSM   H14F13008   7.149   5.040   9.220 -0.7055 -0.4715 -0.4691
  122OSM   H14G13009   7.152   5.211   9.258  1.5362 -0.2243 -1.6577
  122OSM   C15F13010   7.035   5.178   9.085 -0.0581 -0.6617 -0.6283
  122OSM   H15F13011   7.128   5.194   9.027 -0.6873 -0.9464 -1.7406
  122OSM   H15G13012   6.986   5.277   9.099 -1.6128 -1.7111  1.7845
  122OSM   C16F13013   6.947   5.089   9.004 -0.8116  0.6860 -0.8269
  122OSM   H16F13014   6.903   5.146   8.919  0.2436  2.6506 -0.0626
  122OSM   H16G13015   6.872   5.045   9.072  1.1862  1.3806  1.9022
  122OSM   C17F13016   7.015   4.964   8.944  0.1803  0.3989 -0.7121
  122OSM   H17F13017   7.078   4.908   9.016  1.2643  0.8724 -1.2922
  122OSM   H17G13018   7.089   4.994   8.867 -0.7100 -1.0591 -2.1425
  122OSM   C18F13019   6.919   4.858   8.880  0.2179 -0.3844  0.9074
  122OSM   H18F13020   6.838   4.832   8.952 -3.0873  2.4069 -1.6477
  122OSM   H18G13021   6.979   4.771   8.846  1.1916  0.6398 -0.0184
  122OSM   H18H13022   6.873   4.884   8.782  0.0029  0.7047  1.2900
  123OSM      N13023   3.024   4.192   6.198 -0.3050  0.0808 -0.5960
  123OSM    C1513024   3.074   4.324   6.141  0.3527  0.3569  0.4469
  123OSM   H15A13025   3.075   4.403   6.215  0.3446  2.3606 -1.6492
  123OSM   H15B13026   3.011   4.346   6.057  2.3759 -1.0869 -1.5162
  123OSM   H15C13027   3.176   4.305   6.110 -0.0879 -0.5328 -0.4677
  123OSM    C1413028   3.082   4.171   6.341  0.1191  0.6184 -0.0446
  123OSM   H14A13029   3.187   4.149   6.339 -0.1382 -0.6086 -3.0044
  123OSM   H14B13030   3.039   4.081   6.383 -0.9432  1.1745  0.0908
  123OSM   H14C13031   3.062   4.262   6.395 -0.7287  0.9679 -0.9261
  123OSM    C1313032   2.875   4.194   6.212 -0.2637 -0.3397 -0.1637
  123OSM   H13A13033   2.844   4.286   6.260 -0.0967  0.6604 -1.9470
  123OSM   H13B13034   2.852   4.101   6.263 -2.5782 -0.4189 -1.3193
  123OSM   H13C13035   2.834   4.183   6.113  0.5587 -3.8547 -0.1645
  123OSM    C1213036   3.052   4.074   6.103 -0.3344 -0.5009 -0.6912
  123OSM   H12A13037   2.971   4.070   6.033 -1.7936  1.2706  0.8455
  123OSM   H12B13038   3.062   3.981   6.156  0.2674 -0.1575 -0.1879
  123OSM    C1113039   3.192   4.077   6.028 -0.5654  0.0247  1.0069
  123OSM   H11A13040   3.185   4.166   5.963 -2.1159 -0.4872  0.4430
  123OSM   H11B13041   3.201   3.993   5.955 -1.1715  1.8569 -1.2126
  123OSM      P13042   3.339   3.937   6.181 -0.2075  0.3332  0.0577
  123OSM    O1313043   3.219   3.863   6.220  0.4317  0.2518 -0.9554
  123OSM    O1413044   3.436   3.872   6.086  0.9801  0.0515 -0.1109
  123OSM    O1113045   3.418   3.974   6.320  0.8382  0.4014 -0.4939
  123OSM    O1213046   3.304   4.078   6.116  0.1041  0.2307  0.0047
  123OSM    C1S13047   3.510   4.086   6.312  0.0806 -0.3084  0.1943
  123OSM    H1S13048   3.451   4.176   6.284  0.3385 -0.7365 -1.7909
  123OSM    H1T13049   3.583   4.066   6.230  0.4770 -3.4857  1.2767
  123OSM     NF13050   3.620   4.249   6.452  0.3195 -0.1202  0.4127
  123OSM    HNF13051   3.715   4.268   6.430  0.0244  0.4656 -0.4057
  123OSM    C2S13052   3.575   4.110   6.444  0.3279 -0.2760  0.2854
  123OSM    H2S13053   3.501   4.101   6.527 -1.1828  1.4169 -0.8506
  123OSM    C3S13054   3.694   4.007   6.466  0.1840  0.0391  0.2311
  123OSM    H3S13055   3.767   4.017   6.384  0.2895 -0.4583  0.2606
  123OSM     O313056   3.653   3.872   6.445 -0.2004 -0.1796  0.6943
  123OSM    HO313057   3.562   3.876   6.413  0.7846  0.6293 -2.1599
  123OSM    C4S13058   3.750   4.023   6.597  0.1578  0.6966 -0.3691
  123OSM    H4S13059   3.683   4.050   6.680 -0.1640 -0.5145 -0.2197
  123OSM    C5S13060   3.882   4.027   6.629  0.2996  0.3870  0.2204
  123OSM    H5S13061   3.957   3.999   6.554 -0.3418 -1.2393  0.1745
  123OSM    C6S13062   3.933   4.063   6.766 -0.8918 -0.1424 -0.3288
  123OSM    H6S13063   4.001   4.150   6.757  1.1629 -1.6350  0.1868
  123OSM    H6T13064   3.999   3.978   6.796 -1.2719 -0.8901 -1.5677
  123OSM    C7S13065   3.828   4.061   6.883  0.2029 -0.2048  0.7940
  123OSM    H7S13066   3.776   3.963   6.887 -0.5769  0.0957 -1.5899
  123OSM    H7T13067   3.752   4.136   6.853 -0.2922 -0.1836  2.0605
  123OSM    C8S13068   3.873   4.100   7.024 -0.4659 -0.1425 -0.4271
  123OSM    H8S13069   3.785   4.127   7.086 -0.6943 -1.8994  0.0288
  123OSM    H8T13070   3.943   4.186   7.011 -2.1542  1.2651 -0.5311
  123OSM    C9S13071   3.936   3.990   7.109 -0.8241 -0.6046  0.3759
  123OSM    H9S13072   4.029   3.962   7.055 -0.2836  2.4658 -0.4015
  123OSM    H9T13073   3.860   3.910   7.119 -2.5238  0.4534 -3.1488
  123OSM   C10S13074   3.984   4.048   7.248  0.1842 -0.4471  1.0952
  123OSM   H10S13075   4.033   4.144   7.224 -0.2551 -0.7483 -1.1062
  123OSM   H10T13076   4.076   3.997   7.284  0.8203 -0.2253 -0.1965
  123OSM   C11S13077   3.867   4.051   7.350 -0.3214 -0.1884 -0.2191
  123OSM   H11S13078   3.841   3.950   7.387  1.2518 -0.5628 -0.1097
  123OSM   H11T13079   3.771   4.093   7.312  0.2837 -0.6741 -2.3036
  123OSM   C12S13080   3.907   4.154   7.458  0.0990  0.0209 -0.6578
  123OSM   H12S13081   3.890   4.262   7.439 -0.6273 -0.0242 -0.3028
  123OSM   H12T13082   4.012   4.134   7.485  0.3603  0.9344 -0.9695
  123OSM   C13S13083   3.823   4.121   7.587 -0.2300  0.0833  0.0982
  123OSM   H13S13084   3.848   4.018   7.621  0.9025  0.7244  1.2738
  123OSM   H13T13085   3.716   4.128   7.561 -0.0190 -0.6988 -0.9858
  123OSM   C14S13086   3.844   4.228   7.698 -0.1161  0.0912 -0.0687
  123OSM   H14S13087   3.948   4.242   7.735  0.2059  1.3492 -1.3952
  123OSM   H14T13088   3.776   4.194   7.779 -1.8700 -4.0009 -3.0958
  123OSM   C15S13089   3.799   4.369   7.660  0.1585 -0.0288 -0.2846
  123OSM   H15S13090   3.701   4.351   7.610  0.5842 -0.8408 -0.8342
  123OSM   H15T13091   3.868   4.400   7.578  0.8111 -2.1166 -0.5503
  123OSM   C16S13092   3.812   4.467   7.778  0.2188 -0.4719 -0.2250
  123OSM   H16S13093   3.918   4.486   7.804  1.0687 -0.7431 -3.2876
  123OSM   H16T13094   3.772   4.416   7.868  0.7871  0.4264  0.5401
  123OSM   C17S13095   3.756   4.601   7.759 -0.2432 -0.3317  0.1753
  123OSM   H17S13096   3.647   4.584   7.759 -0.4917  1.1160 -1.7806
  123OSM   H17T13097   3.794   4.634   7.660 -2.9847  1.6703 -0.2601
  123OSM   C18S13098   3.794   4.696   7.879 -0.0987 -0.0442 -0.3624
  123OSM   H18S13099   3.745   4.658   7.972 -1.3160  0.9050 -0.6050
  123OSM   H18T13100   3.769   4.801   7.855 -1.9396 -0.5670 -0.8426
  123OSM   H18U13101   3.904   4.695   7.892 -0.1438  0.1453  0.0577
  123OSM    C1F13102   3.535   4.349   6.475 -0.2568 -0.0162  0.3417
  123OSM     OF13103   3.415   4.332   6.485  0.2066 -0.0902  0.1544
  123OSM    C2F13104   3.602   4.482   6.492  0.9117 -0.5477 -0.2957
  123OSM    H2F13105   3.550   4.559   6.432 -1.3858 -1.4107  0.5628
  123OSM    H2G13106   3.710   4.481   6.466  1.0290  1.3803  0.0677
  123OSM    C3F13107   3.566   4.518   6.641  0.2498 -0.1330 -0.2685
  123OSM    H3F13108   3.456   4.529   6.650  0.2602  1.2521 -1.5873
  123OSM    H3G13109   3.603   4.620   6.666 -0.6455  0.3957 -1.0587
  123OSM    C4F13110   3.635   4.424   6.746  0.0022  0.0774 -0.3133
  123OSM    H4F13111   3.746   4.425   6.739 -0.0127  0.1600 -0.5451
  123OSM    H4G13112   3.602   4.318   6.739 -1.1588  0.4610 -0.8182
  123OSM    C5F13113   3.584   4.475   6.882  0.2654  0.6374  0.1068
  123OSM    H5F13114   3.475   4.496   6.876  0.2207  0.3469 -0.1475
  123OSM    H5G13115   3.626   4.574   6.909 -1.5306  1.5192 -0.2744
  123OSM    C6F13116   3.597   4.366   6.994  0.7918 -0.1505 -0.3255
  123OSM    H6F13117   3.698   4.321   6.990  0.1834 -1.5997  0.4678
  123OSM    H6G13118   3.517   4.291   6.975 -1.1066  1.8042 -0.2147
  123OSM    C7F13119   3.571   4.434   7.130  0.3243  0.1492 -0.5427
  123OSM    H7F13120   3.462   4.452   7.145  0.7045  0.2690  2.4067
  123OSM    H7G13121   3.620   4.533   7.145 -0.8237  0.7615 -0.7883
  123OSM    C8F13122   3.627   4.354   7.247  0.0228 -0.4888 -0.3149
  123OSM    H8F13123   3.628   4.427   7.331  0.0483 -1.8941  0.9225
  123OSM    H8G13124   3.734   4.330   7.229 -0.1819 -2.5515  0.9838
  123OSM    C9F13125   3.545   4.232   7.275  1.5031  0.0816 -0.1951
  123OSM    H9F13126   3.565   4.137   7.223  0.6884 -0.5935  0.6950
  123OSM   C10F13127   3.458   4.221   7.380 -0.5248 -0.2814 -0.0324
  123OSM   H10F13128   3.407   4.125   7.397 -2.9626  1.4134  2.6631
  123OSM   C11F13129   3.423   4.332   7.478 -0.1984 -0.7003 -0.4805
  123OSM   H11F13130   3.345   4.403   7.442 -1.8407 -1.4683  1.5104
  123OSM   H11G13131   3.504   4.406   7.493  0.8193 -1.0876 -3.6998
  123OSM   C12F13132   3.374   4.277   7.614  0.5643 -0.0690  0.3122
  123OSM   H12F13133   3.432   4.191   7.655 -1.7388 -1.8045  0.0296
  123OSM   H12G13134   3.269   4.248   7.596  0.7824 -1.0955  0.6786
  123OSM   C13F13135   3.374   4.398   7.716 -0.5674 -0.1316 -0.8302
  123OSM   H13F13136   3.306   4.477   7.679  0.4729  0.3974 -1.6685
  123OSM   H13G13137   3.479   4.433   7.732 -0.9272 -0.3856  2.3232
  123OSM   C14F13138   3.300   4.345   7.843  0.6122 -0.0799  0.4140
  123OSM   H14F13139   3.220   4.276   7.809  0.4003  0.0599  0.6292
  123OSM   H14G13140   3.261   4.436   7.894 -1.6944 -0.0861 -1.2524
  123OSM   C15F13141   3.392   4.266   7.934 -0.1036  0.4553 -0.7785
  123OSM   H15F13142   3.437   4.172   7.893 -2.7426 -1.5051  0.6349
  123OSM   H15G13143   3.327   4.239   8.020 -1.3937  1.6821 -1.3495
  123OSM   C16F13144   3.505   4.349   7.996 -0.1857 -0.0758 -0.3865
  123OSM   H16F13145   3.459   4.441   8.039 -2.2007 -1.1271 -0.2268
  123OSM   H16G13146   3.567   4.387   7.913 -1.0161  3.1123  0.3552
  123OSM   C17F13147   3.576   4.280   8.113 -0.5904 -0.1191  0.1238
  123OSM   H17F13148   3.629   4.189   8.078  0.1964  0.2168  0.4287
  123OSM   H17G13149   3.503   4.250   8.191  0.4209 -1.9930  0.3706
  123OSM   C18F13150   3.669   4.374   8.196 -0.0089  0.1661  0.0708
  123OSM   H18F13151   3.699   4.323   8.290  1.0046 -3.4743 -2.1232
  123OSM   H18G13152   3.609   4.460   8.234  0.1419 -1.0231  3.1096
  123OSM   H18H13153   3.749   4.407   8.127  0.3036 -0.8545 -0.0609
  124OSM      N13154   5.874   2.248   6.156  0.3770 -0.1221  0.5263
  124OSM    C1513155   5.792   2.363   6.185 -0.2634  0.5648 -0.3455
  124OSM   H15A13156   5.856   2.449   6.171 -0.4967  1.0143  1.2679
  124OSM   H15B13157   5.760   2.361   6.288 -0.0667 -1.3113 -0.2931
  124OSM   H15C13158   5.707   2.374   6.120  0.8954  2.5236 -1.5862
  124OSM    C1413159   5.788   2.136   6.102 -0.3060  0.0493  0.2688
  124OSM   H14A13160   5.753   2.144   6.000 -1.3707  0.1320  0.6338
  124OSM   H14B13161   5.704   2.117   6.167 -1.4715 -0.8621 -1.4524
  124OSM   H14C13162   5.845   2.044   6.105 -0.0683  0.2094  0.8565
  124OSM    C1313163   5.965   2.284   6.039  0.1981 -0.6369 -0.3592
  124OSM   H13A13164   6.035   2.205   6.019  1.8845  0.7450  0.0031
  124OSM   H13B13165   6.022   2.372   6.065 -0.0900 -0.6821  0.4401
  124OSM   H13C13166   5.906   2.306   5.951 -0.6476 -1.4030  0.0051
  124OSM    C1213167   5.951   2.198   6.270  0.0473 -0.1773 -0.2072
  124OSM   H12A13168   5.994   2.102   6.247  0.6673 -0.8243  3.3884
  124OSM   H12B13169   5.882   2.160   6.344  0.9029 -3.6554 -1.1131
  124OSM    C1113170   6.056   2.289   6.329  0.1553 -0.4302 -0.4998
  124OSM   H11A13171   6.104   2.241   6.417  2.3858  1.0263 -0.8855
  124OSM   H11B13172   5.999   2.380   6.357 -0.6037 -0.4656 -1.8849
  124OSM      P13173   6.281   2.418   6.274 -0.6113 -0.1088 -0.1008
  124OSM    O1313174   6.390   2.385   6.179  0.1798 -0.0394 -1.2052
  124OSM    O1413175   6.217   2.550   6.267  0.0373  0.2545 -0.1184
  124OSM    O1113176   6.328   2.394   6.419  0.0215 -0.0342  0.4856
  124OSM    O1213177   6.163   2.314   6.248  0.0377  0.1896 -0.2175
  124OSM    C1S13178   6.411   2.287   6.461 -0.0900  0.3745  0.7036
  124OSM    H1S13179   6.514   2.293   6.419 -0.7635  1.4395 -0.8556
  124OSM    H1T13180   6.365   2.188   6.440 -1.4967  1.3546 -1.0173
  124OSM     NF13181   6.533   2.193   6.670 -0.3494 -0.2570 -0.1325
  124OSM    HNF13182   6.493   2.129   6.735 -1.0516 -1.8543 -2.0777
  124OSM    C2S13183   6.440   2.297   6.619 -0.8083  0.0095 -0.0618
  124OSM    H2S13184   6.472   2.401   6.641 -1.8854  0.3312  0.0287
  124OSM    C3S13185   6.302   2.285   6.698  0.0697  0.1316 -0.2448
  124OSM    H3S13186   6.256   2.188   6.669  0.3449 -0.1177  0.1564
  124OSM     O313187   6.214   2.385   6.664 -0.5330  0.1248 -0.4278
  124OSM    HO313188   6.239   2.406   6.574 -0.2454  1.5414 -0.0316
  124OSM    C4S13189   6.317   2.268   6.853 -0.0659  0.9330  0.6837
  124OSM    H4S13190   6.363   2.174   6.884  1.1041  0.0364 -3.3893
  124OSM    C5S13191   6.279   2.352   6.948  0.3575  0.6305  0.0920
  124OSM    H5S13192   6.246   2.451   6.913  0.1171  1.1025  1.6408
  124OSM    C6S13193   6.290   2.318   7.096  0.1790  0.2674  0.7360
  124OSM    H6S13194   6.385   2.266   7.120  0.6618  1.2177  0.9358
  124OSM    H6T13195   6.201   2.252   7.106  0.5828 -0.5714 -1.1277
  124OSM    C7S13196   6.290   2.441   7.185  0.3133  0.1361 -0.2439
  124OSM    H7S13197   6.183   2.470   7.190  0.3860  0.2582  0.8103
  124OSM    H7T13198   6.347   2.529   7.148  0.5865 -0.2904 -0.8423
  124OSM    C8S13199   6.331   2.407   7.325 -0.6127 -0.3318 -0.3606
  124OSM    H8S13200   6.441   2.416   7.338 -0.9323  0.9850  1.7768
  124OSM    H8T13201   6.306   2.299   7.336  1.2076 -0.8551 -1.2455
  124OSM    C9S13202   6.262   2.488   7.433  0.1935  0.2737 -0.1458
  124OSM    H9S13203   6.154   2.498   7.413  0.3088 -0.0077 -0.9097
  124OSM    H9T13204   6.304   2.591   7.435 -0.5598  0.5632  0.5548
  124OSM   C10S13205   6.278   2.451   7.583  0.0906  0.4502 -0.3319
  124OSM   H10S13206   6.388   2.442   7.595  0.4297 -0.2652 -3.4990
  124OSM   H10T13207   6.243   2.347   7.600  0.7021 -0.0772 -2.1824
  124OSM   C11S13208   6.212   2.542   7.681  0.7640 -0.2959 -0.0493
  124OSM   H11S13209   6.101   2.544   7.670  0.6156  2.2214  1.4542
  124OSM   H11T13210   6.243   2.648   7.677  2.1309 -0.6994 -0.5522
  124OSM   C12S13211   6.229   2.492   7.828  0.1363 -0.4359 -0.7920
  124OSM   H12S13212   6.339   2.493   7.842 -0.0958 -1.4068  1.1599
  124OSM   H12T13213   6.175   2.396   7.841  1.6781 -1.2016  0.0535
  124OSM   C13S13214   6.170   2.588   7.931  0.9430 -0.5768 -0.3637
  124OSM   H13S13215   6.075   2.625   7.885  0.5547 -0.6527  0.3604
  124OSM   H13T13216   6.238   2.675   7.943 -0.3169  0.4569 -0.5956
  124OSM   C14S13217   6.156   2.519   8.062 -0.1464  0.1754  0.3716
  124OSM   H14S13218   6.247   2.460   8.086 -0.5715  0.0036  1.6136
  124OSM   H14T13219   6.075   2.444   8.056 -0.4623  0.4269  1.3279
  124OSM   C15S13220   6.143   2.609   8.182  0.5938  0.0270 -0.1333
  124OSM   H15S13221   6.091   2.559   8.267 -0.9753  1.3145 -0.3237
  124OSM   H15T13222   6.098   2.705   8.152 -0.4907 -0.6056 -0.5423
  124OSM   C16S13223   6.273   2.649   8.245 -0.5909  0.5845  0.6641
  124OSM   H16S13224   6.347   2.695   8.175 -3.6343  0.4599 -2.7691
  124OSM   H16T13225   6.318   2.559   8.294  0.4950  0.0574 -1.2676
  124OSM   C17S13226   6.249   2.742   8.356  0.2116 -0.3812  0.3088
  124OSM   H17S13227   6.313   2.727   8.446 -0.3657  0.3555  0.8557
  124OSM   H17T13228   6.147   2.715   8.393  0.4831  0.2740  1.5684
  124OSM   C18S13229   6.252   2.888   8.321  0.0120 -0.6275 -0.0557
  124OSM   H18S13230   6.185   2.914   8.236  0.6969 -0.8706 -0.6722
  124OSM   H18T13231   6.353   2.923   8.289  1.3074 -2.2052  2.2175
  124OSM   H18U13232   6.227   2.953   8.408  0.0339 -0.9139  0.1636
  124OSM    C1F13233   6.659   2.182   6.641 -0.2530  0.1526  0.1268
  124OSM     OF13234   6.709   2.259   6.555 -0.4038 -0.1806 -0.0019
  124OSM    C2F13235   6.744   2.085   6.714  1.1712  0.4293  0.6889
  124OSM    H2F13236   6.701   1.984   6.701  0.9981  0.4307  1.2196
  124OSM    H2G13237   6.743   2.116   6.821  2.0355  0.9402  0.5574
  124OSM    C3F13238   6.895   2.087   6.664  0.1407  0.2869 -1.0306
  124OSM    H3F13239   6.910   2.120   6.559 -1.2372  0.4963 -1.1681
  124OSM    H3G13240   6.929   1.981   6.666  1.2839  0.6719  2.2047
  124OSM    C4F13241   6.974   2.189   6.746 -0.2520  0.4138 -0.3570
  124OSM    H4F13242   6.927   2.289   6.732 -2.7096 -0.7961 -1.1515
  124OSM    H4G13243   7.076   2.216   6.713 -0.0386  1.2844  0.9557
  124OSM    C5F13244   6.988   2.161   6.899  0.5305 -0.3892 -0.6778
  124OSM    H5F13245   6.968   2.057   6.934  1.6743 -0.7737 -1.1291
  124OSM    H5G13246   6.911   2.225   6.947  0.1577  0.6838 -2.6596
  124OSM    C6F13247   7.117   2.214   6.950 -0.4426 -0.4364 -1.2026
  124OSM    H6F13248   7.105   2.213   7.060 -1.0029  1.7738 -1.2130
  124OSM    H6G13249   7.137   2.319   6.918 -0.1016 -0.0384  0.3003
  124OSM    C7F13250   7.239   2.129   6.915 -0.7514 -0.3155 -0.2268
  124OSM    H7F13251   7.239   2.115   6.805  0.4923  1.6421 -0.5036
  124OSM    H7G13252   7.228   2.028   6.960 -0.4671 -2.0200 -3.7673
  124OSM    C8F13253   7.374   2.189   6.965  0.0078 -0.7527  0.4322
  124OSM    H8F13254   7.449   2.113   6.934 -0.7089 -1.6606  0.8894
  124OSM    H8G13255   7.385   2.191   7.075 -1.7378 -2.0490  0.6477
  124OSM    C9F13256   7.405   2.321   6.901 -0.5576 -0.2032 -0.1476
  124OSM    H9F13257   7.446   2.321   6.798 -1.2116  1.5605 -0.4313
  124OSM   C10F13258   7.397   2.444   6.949 -0.0499 -0.2540  0.1908
  124OSM   H10F13259   7.419   2.532   6.887  1.1987  0.9219  2.2453
  124OSM   C11F13260   7.339   2.468   7.091 -0.6893 -0.3287 -0.3126
  124OSM   H11F13261   7.277   2.381   7.121 -0.5293 -0.1430  0.5897
  124OSM   H11G13262   7.279   2.559   7.113  0.9053  0.6008  0.2222
  124OSM   C12F13263   7.449   2.470   7.199 -0.2946 -0.1344 -0.5588
  124OSM   H12F13264   7.519   2.555   7.183  2.4323 -1.6075  2.7246
  124OSM   H12G13265   7.500   2.372   7.191  0.9007  0.5881 -1.9535
  124OSM   C13F13266   7.419   2.479   7.347  0.1212  0.1778 -0.2001
  124OSM   H13F13267   7.341   2.406   7.380  1.9086 -1.5250  0.3363
  124OSM   H13G13268   7.376   2.581   7.358 -1.0656 -0.4632  1.3681
  124OSM   C14F13269   7.535   2.459   7.444  0.3628 -0.2480  0.0779
  124OSM   H14F13270   7.614   2.530   7.411  1.2712 -0.7592  1.1184
  124OSM   H14G13271   7.559   2.353   7.422  0.3366 -0.4706  1.1274
  124OSM   C15F13272   7.488   2.469   7.589 -0.2018 -0.4216  0.4597
  124OSM   H15F13273   7.428   2.379   7.616  1.3460 -2.2094 -1.9099
  124OSM   H15G13274   7.420   2.557   7.596 -1.0493 -1.2324  2.9809
  124OSM   C16F13275   7.601   2.483   7.693 -1.0356  0.5223  0.1043
  124OSM   H16F13276   7.676   2.560   7.664  0.2015 -0.2230  1.2655
  124OSM   H16G13277   7.655   2.386   7.698  0.7452  1.3795 -1.9194
  124OSM   C17F13278   7.551   2.515   7.839  0.2369  0.6599 -0.2916
  124OSM   H17F13279   7.480   2.434   7.866  0.0051  0.9333 -0.0780
  124OSM   H17G13280   7.492   2.609   7.840  1.2914  1.3259 -0.0664
  124OSM   C18F13281   7.670   2.510   7.936  0.2278  0.5408 -0.4020
  124OSM   H18F13282   7.728   2.604   7.944 -0.3519  0.8505  0.2976
  124OSM   H18G13283   7.740   2.428   7.909  0.7546  0.2750  1.6289
  124OSM   H18H13284   7.628   2.477   8.034 -0.6868 -1.4227 -1.4276
  125OSM      N13285   5.832   3.934   6.101 -0.2018  0.5575  0.2019
  125OSM    C1513286   5.868   4.053   6.194  0.5049  0.3103 -0.0232
  125OSM   H15A13287   5.787   4.047   6.265 -0.0735  1.8908 -0.5413
  125OSM   H15B13288   5.856   4.153   6.155 -0.3545 -0.0775 -0.7756
  125OSM   H15C13289   5.963   4.036   6.242  0.1147 -1.5408  0.1521
  125OSM    C1413290   5.699   3.953   6.041 -0.0019  0.4826  0.0139
  125OSM   H14A13291   5.705   4.038   5.974 -0.7983  0.7218  0.2347
  125OSM   H14B13292   5.615   3.965   6.108 -0.9454 -0.2731 -1.0081
  125OSM   H14C13293   5.687   3.863   5.983 -3.2784  0.7741  0.1647
  125OSM    C1313294   5.931   3.933   5.998  0.4385  0.1425 -0.3717
  125OSM   H13A13295   5.927   4.009   5.921 -0.8853  0.0618 -0.3905
  125OSM   H13B13296   5.928   3.842   5.940 -0.5087 -1.8144  2.6714
  125OSM   H13C13297   6.030   3.943   6.041  0.4885  2.8330 -0.9726
  125OSM    C1213298   5.836   3.808   6.187  0.4632 -0.2366  0.0567
  125OSM   H12A13299   5.825   3.711   6.141 -0.3717  0.2529 -0.7932
  125OSM   H12B13300   5.751   3.815   6.253  0.2359 -1.5073 -0.0945
  125OSM    C1113301   5.962   3.778   6.284 -0.0107  0.4403 -0.3057
  125OSM   H11A13302   5.935   3.674   6.309 -2.7964  0.8524 -1.3840
  125OSM   H11B13303   5.950   3.851   6.368 -1.1610 -0.3504  0.2261
  125OSM      P13304   6.214   3.840   6.265  0.0818  0.6076 -0.1477
  125OSM    O1313305   6.325   3.797   6.174  0.8842 -0.1004 -0.0057
  125OSM    O1413306   6.185   3.983   6.283  0.3126 -0.1155 -0.0692
  125OSM    O1113307   6.235   3.762   6.408 -1.0105 -0.3270  0.3624
  125OSM    O1213308   6.082   3.774   6.210 -0.0581  0.5280  0.0127
  125OSM    C1S13309   6.213   3.840   6.529 -0.2630  0.3342 -0.0739
  125OSM    H1S13310   6.111   3.883   6.528 -0.8231 -0.9991 -0.6137
  125OSM    H1T13311   6.289   3.922   6.536 -0.0571  0.1428 -0.0615
  125OSM     NF13312   6.198   3.840   6.768  0.5191  0.6775 -0.4921
  125OSM    HNF13313   6.280   3.861   6.821  1.9260 -4.0846 -0.6076
  125OSM    C2S13314   6.226   3.752   6.660  0.0470 -0.6486  0.4902
  125OSM    H2S13315   6.146   3.675   6.659 -0.4383 -0.1723  1.6163
  125OSM    C3S13316   6.376   3.700   6.667  0.8680 -0.0991 -0.4222
  125OSM    H3S13317   6.433   3.780   6.719  0.0976 -0.8785  1.6625
  125OSM     O313318   6.429   3.664   6.542 -0.4562 -0.7031  0.3216
  125OSM    HO313319   6.358   3.687   6.481  0.9691 -0.1170 -1.1653
  125OSM    C4S13320   6.382   3.585   6.757  0.3556  0.5259  0.2843
  125OSM    H4S13321   6.426   3.602   6.856  2.8310 -1.5664 -0.3914
  125OSM    C5S13322   6.345   3.459   6.735 -0.0840 -0.0135  0.0743
  125OSM    H5S13323   6.299   3.424   6.642 -0.7964  1.3561 -0.0923
  125OSM    C6S13324   6.356   3.361   6.846 -0.5647 -0.3203  0.6241
  125OSM    H6S13325   6.418   3.279   6.804  1.5318  0.7666  1.5030
  125OSM    H6T13326   6.261   3.308   6.868  0.2620 -2.0449  0.1536
  125OSM    C7S13327   6.416   3.395   6.986 -0.8773 -0.2043  0.1737
  125OSM    H7S13328   6.346   3.447   7.054  0.3413 -0.3516  1.5679
  125OSM    H7T13329   6.511   3.451   6.971 -0.3914 -1.4395 -1.5558
  125OSM    C8S13330   6.447   3.264   7.064 -0.3662  0.3731  0.0237
  125OSM    H8S13331   6.522   3.195   7.019  0.4842  0.7430  0.8432
  125OSM    H8T13332   6.364   3.191   7.054 -0.0512  0.1465 -0.9841
  125OSM    C9S13333   6.480   3.276   7.215  0.6357 -0.4983  0.6231
  125OSM    H9S13334   6.484   3.176   7.263 -0.6431 -1.1224 -0.5043
  125OSM    H9T13335   6.395   3.335   7.256  0.1103 -1.5733  1.1078
  125OSM   C10S13336   6.598   3.367   7.235  0.8112 -0.6764 -0.1827
  125OSM   H10S13337   6.572   3.475   7.242  0.5062 -0.6587 -1.5130
  125OSM   H10T13338   6.673   3.354   7.153  0.5643  0.5853 -0.6173
  125OSM   C11S13339   6.670   3.345   7.374  0.4302 -0.0862  0.0350
  125OSM   H11S13340   6.740   3.430   7.382 -0.0169  0.4394 -1.4624
  125OSM   H11T13341   6.720   3.246   7.377  1.1901  0.2647 -1.1016
  125OSM   C12S13342   6.565   3.352   7.490  0.1398  0.1278  0.4637
  125OSM   H12S13343   6.480   3.283   7.478 -0.9301  1.3785  0.7374
  125OSM   H12T13344   6.528   3.457   7.494 -3.6597 -1.0573 -1.2007
  125OSM   C13S13345   6.611   3.311   7.632  0.7434 -0.0142 -0.3724
  125OSM   H13S13346   6.706   3.360   7.663  2.0405 -2.4777 -0.3311
  125OSM   H13T13347   6.610   3.200   7.624  1.2170  0.0257 -1.0250
  125OSM   C14S13348   6.496   3.342   7.727 -0.1226  0.2735  0.1206
  125OSM   H14S13349   6.403   3.298   7.686  0.6823 -2.1828  0.8858
  125OSM   H14T13350   6.490   3.453   7.728 -0.9622  0.2300  1.6484
  125OSM   C15S13351   6.524   3.289   7.872  0.3736  0.2461  0.2342
  125OSM   H15S13352   6.617   3.331   7.916 -0.2671  0.5663  1.3178
  125OSM   H15T13353   6.536   3.179   7.859 -0.3486  0.3020 -1.0449
  125OSM   C16S13354   6.408   3.318   7.972  0.4932 -0.5846  0.6581
  125OSM   H16S13355   6.420   3.254   8.062  0.5529  0.8710  1.7153
  125OSM   H16T13356   6.317   3.272   7.929  0.1970  0.6885 -0.1186
  125OSM   C17S13357   6.374   3.461   7.989  0.3050  0.0774 -0.9031
  125OSM   H17S13358   6.334   3.506   7.896 -0.4973  0.0233 -0.5872
  125OSM   H17T13359   6.470   3.516   7.999 -1.0819  2.5132 -0.5560
  125OSM   C18S13360   6.310   3.486   8.123  0.2622  0.2193 -0.1152
  125OSM   H18S13361   6.207   3.445   8.115 -0.1774  1.2184  0.3489
  125OSM   H18T13362   6.300   3.595   8.144 -0.1206 -0.2465  2.3512
  125OSM   H18U13363   6.367   3.436   8.205  0.8281  1.5749  0.3356
  125OSM    C1F13364   6.087   3.906   6.796 -0.2540  0.5557  0.1438
  125OSM     OF13365   5.986   3.896   6.730  0.2020  0.3315  0.5769
  125OSM    C2F13366   6.095   3.989   6.923 -0.7794  1.1988 -0.2136
  125OSM    H2F13367   6.176   4.065   6.930  1.5006 -1.0352 -1.8141
  125OSM    H2G13368   6.101   3.923   7.012 -1.3711  1.8082  0.2918
  125OSM    C3F13369   5.976   4.084   6.936  0.3991  0.3209  0.0137
  125OSM    H3F13370   5.890   4.014   6.937  0.9149 -0.3209 -0.2405
  125OSM    H3G13371   5.959   4.150   6.848 -2.5430 -1.8628 -1.1399
  125OSM    C4F13372   5.972   4.166   7.064 -0.0255  0.2164 -0.4826
  125OSM    H4F13373   5.881   4.229   7.056 -1.0388 -1.0102  1.1493
  125OSM    H4G13374   6.051   4.244   7.065 -0.4631  0.6369  1.7769
  125OSM    C5F13375   5.991   4.091   7.190  0.3940 -0.7015  0.4568
  125OSM    H5F13376   6.084   4.030   7.185  1.0049  0.2760 -0.3142
  125OSM    H5G13377   5.905   4.020   7.193 -0.2293 -0.1097 -2.0915
  125OSM    C6F13378   5.978   4.169   7.320 -0.1387 -0.1403 -0.0061
  125OSM    H6F13379   5.880   4.221   7.318 -0.8896 -1.5660 -1.2077
  125OSM    H6G13380   6.059   4.244   7.334 -0.1706 -0.5310  2.6264
  125OSM    C7F13381   5.987   4.072   7.434 -0.0368 -0.2304 -0.0626
  125OSM    H7F13382   6.086   4.023   7.422 -0.4343 -1.1107  0.1977
  125OSM    H7G13383   5.917   3.986   7.435  2.9931 -2.7892  0.1622
  125OSM    C8F13384   5.974   4.133   7.573 -0.2915 -0.2008 -0.9915
  125OSM    H8F13385   5.881   4.193   7.566 -0.4804 -0.0795  1.9863
  125OSM    H8G13386   6.066   4.194   7.588  0.0597 -0.8260 -0.5868
  125OSM    C9F13387   5.996   4.042   7.695 -0.5591  0.0186  0.0752
  125OSM    H9F13388   6.010   3.936   7.667  1.1920  0.2806 -0.0931
  125OSM   C10F13389   6.009   4.078   7.824 -0.4147 -0.0337 -0.3091
  125OSM   H10F13390   6.014   3.995   7.895  2.4952  1.3901  1.2280
  125OSM   C11F13391   6.008   4.215   7.888  0.1942 -0.6083  0.2538
  125OSM   H11F13392   5.899   4.228   7.907  0.6185  0.4519  2.0929
  125OSM   H11G13393   6.030   4.297   7.816  0.5512 -0.5722  0.4034
  125OSM   C12F13394   6.101   4.238   8.007  0.4548 -0.3270  0.3956
  125OSM   H12F13395   6.203   4.266   7.973  0.0412  0.2433 -0.4085
  125OSM   H12G13396   6.095   4.150   8.074 -0.9526 -0.1992  0.4583
  125OSM   C13F13397   6.057   4.360   8.079 -0.5239  0.9990 -0.0145
  125OSM   H13F13398   5.954   4.348   8.117 -0.2554  0.2104  0.4806
  125OSM   H13G13399   6.055   4.444   8.007  0.9160 -0.3278 -1.6540
  125OSM   C14F13400   6.154   4.397   8.192 -0.6107  0.1654 -0.8075
  125OSM   H14F13401   6.231   4.457   8.139 -0.2667 -0.2881 -0.8231
  125OSM   H14G13402   6.203   4.308   8.236 -1.3280  0.1755  0.0094
  125OSM   C15F13403   6.086   4.472   8.302  0.5512 -0.1757 -0.0147
  125OSM   H15F13404   6.043   4.405   8.380  1.5433 -0.6801  0.0942
  125OSM   H15G13405   6.001   4.534   8.267 -0.3417 -0.3018  1.8176
  125OSM   C16F13406   6.180   4.559   8.390 -0.3225  0.2753 -0.1764
  125OSM   H16F13407   6.204   4.639   8.317 -0.8425 -1.9842 -2.8942
  125OSM   H16G13408   6.277   4.506   8.400  0.4805  0.8821 -4.0864
  125OSM   C17F13409   6.128   4.616   8.522  0.0807 -0.4703 -0.4270
  125OSM   H17F13410   6.211   4.651   8.588  2.3129 -1.4236 -2.6553
  125OSM   H17G13411   6.073   4.538   8.578 -2.7209  0.9344 -1.1711
  125OSM   C18F13412   6.029   4.722   8.500  0.0511 -0.0445 -0.3866
  125OSM   H18F13413   6.013   4.784   8.591 -4.5838  1.3170 -1.9539
  125OSM   H18G13414   5.927   4.682   8.480 -0.3922  1.3449 -0.9762
  125OSM   H18H13415   6.060   4.792   8.420 -0.8896 -1.9594 -2.4732
  126OSM      N13416   3.395   2.635   6.447  0.8489  0.2337 -0.5034
  126OSM    C1513417   3.525   2.607   6.382 -0.1189 -0.6380 -0.0792
  126OSM   H15A13418   3.593   2.676   6.430 -0.4678  0.3497 -0.9953
  126OSM   H15B13419   3.520   2.629   6.277  0.5253 -2.6711 -0.5643
  126OSM   H15C13420   3.554   2.504   6.399 -2.4896 -0.8812  3.1361
  126OSM    C1413421   3.354   2.770   6.383 -0.5573 -0.1212  0.2283
  126OSM   H14A13422   3.354   2.766   6.275  0.2568  1.4975  0.1498
  126OSM   H14B13423   3.418   2.852   6.413 -0.7680  0.2825 -0.4380
  126OSM   H14C13424   3.255   2.790   6.420  0.5098  2.4092  1.8365
  126OSM    C1313425   3.291   2.532   6.409  0.1890 -0.6618 -0.3600
  126OSM   H13A13426   3.275   2.532   6.302  1.9811  0.4885 -0.6482
  126OSM   H13B13427   3.196   2.547   6.459 -0.3711  0.4846 -1.7072
  126OSM   H13C13428   3.317   2.434   6.444  1.7989 -0.3378 -0.6218
  126OSM    C1213429   3.389   2.654   6.597  0.0505 -0.7104 -0.2509
  126OSM   H12A13430   3.439   2.572   6.647 -1.4307 -0.9186  0.8969
  126OSM   H12B13431   3.288   2.635   6.630 -0.0080 -0.4068 -0.2571
  126OSM    C1113432   3.441   2.788   6.657 -0.1417  0.1499  0.5322
  126OSM   H11A13433   3.448   2.766   6.766  1.3398  0.6426  0.5448
  126OSM   H11B13434   3.357   2.857   6.635  0.8561  1.0754 -0.3900
  126OSM      P13435   3.701   2.829   6.628  0.1897  0.2826  0.1823
  126OSM    O1313436   3.752   2.703   6.570 -0.0435  0.1181 -0.0670
  126OSM    O1413437   3.776   2.955   6.592 -0.1953 -0.1320 -0.6271
  126OSM    O1113438   3.718   2.825   6.787  0.2875 -0.0908  0.3626
  126OSM    O1213439   3.553   2.847   6.592  0.4392  0.0456 -0.7947
  126OSM    C1S13440   3.673   2.932   6.866  0.0490 -0.2583  0.7116
  126OSM    H1S13441   3.563   2.938   6.878 -0.1553  2.6883 -1.9878
  126OSM    H1T13442   3.722   3.023   6.824 -0.9293  0.8656  1.9815
  126OSM     NF13443   3.719   3.042   7.088 -0.4123  0.3029  0.3917
  126OSM    HNF13444   3.790   3.112   7.096 -0.2595  0.4659 -1.9464
  126OSM    C2S13445   3.741   2.927   7.008 -0.8096  0.8017 -1.0283
  126OSM    H2S13446   3.689   2.842   7.057 -1.5306  2.0336  0.3838
  126OSM    C3S13447   3.895   2.891   7.005 -0.2148  0.8803 -0.0888
  126OSM    H3S13448   3.943   2.984   6.966  0.9863  0.7767  1.1140
  126OSM     O313449   3.932   2.780   6.923 -0.3308 -0.0221 -0.1029
  126OSM    HO313450   3.866   2.772   6.854 -1.9039 -0.5000  1.4283
  126OSM    C4S13451   3.943   2.867   7.145  0.3556 -0.1765 -0.1653
  126OSM    H4S13452   3.969   2.956   7.205 -0.9738 -1.5893  2.5906
  126OSM    C5S13453   3.912   2.748   7.209 -1.0069  0.1235  0.5178
  126OSM    H5S13454   3.870   2.665   7.150  2.2118 -0.8184 -0.5852
  126OSM    C6S13455   3.946   2.709   7.354  0.7658  0.3358  0.1773
  126OSM    H6S13456   4.052   2.684   7.371  0.4195 -3.8751 -2.9904
  126OSM    H6T13457   3.890   2.615   7.377 -0.1326  1.0100  0.7915
  126OSM    C7S13458   3.918   2.820   7.453 -0.3546 -0.2132  0.6036
  126OSM    H7S13459   3.820   2.866   7.429 -0.1829  1.2333  2.5651
  126OSM    H7T13460   3.988   2.903   7.432 -2.0422  1.4609  1.5430
  126OSM    C8S13461   3.927   2.776   7.603 -0.3700 -0.4045 -0.8480
  126OSM    H8S13462   4.031   2.753   7.635 -0.9889  0.0816  1.5996
  126OSM    H8T13463   3.868   2.682   7.611 -1.0501  0.1550  0.8822
  126OSM    C9S13464   3.872   2.879   7.701 -0.1513 -0.6218 -0.3643
  126OSM    H9S13465   3.825   2.837   7.793  1.5799  2.2595  1.9411
  126OSM    H9T13466   3.787   2.922   7.644  1.1513  1.1509 -1.0088
  126OSM   C10S13467   3.979   2.980   7.747 -0.3291  0.2538  0.6785
  126OSM   H10S13468   4.030   3.024   7.659 -0.6035 -0.1584  0.3130
  126OSM   H10T13469   4.045   2.906   7.797 -0.1198 -0.5453 -0.7369
  126OSM   C11S13470   3.924   3.093   7.836  0.4957  0.1251 -0.2023
  126OSM   H11S13471   3.863   3.043   7.915 -0.4761 -0.1058 -1.0818
  126OSM   H11T13472   3.859   3.157   7.773  2.1878  1.3704 -0.6905
  126OSM   C12S13473   4.035   3.175   7.893  0.4749  0.0977  0.0227
  126OSM   H12S13474   4.111   3.204   7.818 -0.2783  1.4368 -0.2359
  126OSM   H12T13475   4.105   3.114   7.954  2.2198 -1.4890 -3.4120
  126OSM   C13S13476   3.989   3.306   7.973 -0.6176 -0.4935 -0.2288
  126OSM   H13S13477   3.886   3.288   8.011  0.2366  0.2029  2.5145
  126OSM   H13T13478   3.984   3.389   7.899 -3.0427 -0.1220  0.3147
  126OSM   C14S13479   4.078   3.339   8.089  0.0381 -0.3946 -0.1295
  126OSM   H14S13480   4.178   3.329   8.042  0.2459 -1.2484  0.4722
  126OSM   H14T13481   4.071   3.265   8.173  0.5989 -4.3201 -3.3797
  126OSM   C15S13482   4.063   3.484   8.131  0.4301 -0.0578 -0.8283
  126OSM   H15S13483   4.093   3.553   8.050 -0.1405  0.9422 -0.2040
  126OSM   H15T13484   4.137   3.506   8.211  0.3081  1.3890 -1.1042
  126OSM   C16S13485   3.920   3.521   8.178  0.6947 -0.6739  0.2618
  126OSM   H16S13486   3.876   3.427   8.217 -1.7682  1.2766  2.3765
  126OSM   H16T13487   3.872   3.544   8.081  1.3938  0.6013  0.2028
  126OSM   C17S13488   3.914   3.636   8.270  0.7639 -0.6432 -0.3570
  126OSM   H17S13489   3.979   3.623   8.359  0.7225 -2.7952 -0.5932
  126OSM   H17T13490   3.806   3.641   8.292  0.9235 -0.8274  0.4759
  126OSM   C18S13491   3.955   3.769   8.205 -0.1369 -0.2925 -0.6209
  126OSM   H18S13492   4.066   3.773   8.193 -0.2006  1.4547 -0.8381
  126OSM   H18T13493   3.920   3.859   8.260 -0.6084  0.0336 -1.4540
  126OSM   H18U13494   3.909   3.765   8.104 -1.5876 -1.3450  0.0725
  126OSM    C1F13495   3.602   3.075   7.136  0.0785  0.2078 -0.4535
  126OSM     OF13496   3.507   3.001   7.123 -0.4536  0.4634  0.4791
  126OSM    C2F13497   3.583   3.205   7.209 -0.6939  0.6279 -0.1797
  126OSM    H2F13498   3.507   3.268   7.157 -1.4244  0.3493  0.5341
  126OSM    H2G13499   3.676   3.266   7.203 -0.5049  0.3039 -0.5203
  126OSM    C3F13500   3.539   3.174   7.352  0.1171  0.0433  0.5049
  126OSM    H3F13501   3.610   3.102   7.398 -0.2364 -1.3471 -1.0418
  126OSM    H3G13502   3.440   3.124   7.366 -0.1388  0.4797  0.2417
  126OSM    C4F13503   3.526   3.298   7.444 -0.0358  0.5823  0.4379
  126OSM    H4F13504   3.460   3.372   7.394  1.3470  1.0214 -0.8027
  126OSM    H4G13505   3.624   3.350   7.451  0.7388 -0.2393 -3.1648
  126OSM    C5F13506   3.484   3.265   7.592 -0.1757  1.1102 -0.7656
  126OSM    H5F13507   3.395   3.201   7.608 -0.2578  1.0096 -1.6157
  126OSM    H5G13508   3.444   3.363   7.626 -3.9477  1.0483 -4.6538
  126OSM    C6F13509   3.599   3.221   7.690  0.2154  0.9726  0.8008
  126OSM    H6F13510   3.678   3.298   7.699  1.8644 -0.2239 -2.5871
  126OSM    H6G13511   3.656   3.143   7.635  0.6019  0.5641  1.7769
  126OSM    C7F13512   3.547   3.172   7.824  0.2646  0.3025 -0.0174
  126OSM    H7F13513   3.616   3.103   7.877  0.3376  0.3423 -0.0592
  126OSM    H7G13514   3.466   3.102   7.797  0.2253 -0.2508  1.4945
  126OSM    C8F13515   3.498   3.291   7.920 -0.4856  0.6791 -0.0993
  126OSM    H8F13516   3.429   3.259   8.001 -1.8293  1.5529 -0.8850
  126OSM    H8G13517   3.430   3.350   7.856  0.0679  0.5343 -0.8282
  126OSM    C9F13518   3.609   3.386   7.963  0.7056  0.3170 -0.0665
  126OSM    H9F13519   3.700   3.384   7.901  1.1913 -2.5262  0.6738
  126OSM   C10F13520   3.590   3.467   8.068  0.5202 -0.7949 -0.1842
  126OSM   H10F13521   3.670   3.539   8.086  0.3715 -0.8325  0.6549
  126OSM   C11F13522   3.464   3.483   8.151  0.9987  0.0604  1.0409
  126OSM   H11F13523   3.386   3.419   8.104  1.5087 -1.5519  2.3308
  126OSM   H11G13524   3.420   3.584   8.144 -1.1752 -1.0713 -4.2045
  126OSM   C12F13525   3.491   3.454   8.306  0.3557 -0.0985  0.0343
  126OSM   H12F13526   3.567   3.526   8.343  1.9948 -1.5714 -0.3844
  126OSM   H12G13527   3.539   3.354   8.308  0.7586  0.1074  3.6198
  126OSM   C13F13528   3.366   3.458   8.385 -0.1562  0.4561  0.0066
  126OSM   H13F13529   3.291   3.531   8.348 -0.4630 -0.2223 -0.7201
  126OSM   H13G13530   3.381   3.480   8.493 -3.6104 -0.8748  0.8404
  126OSM   C14F13531   3.289   3.325   8.383  0.6216 -0.3059 -0.1665
  126OSM   H14F13532   3.314   3.266   8.291  2.9255  0.3793 -0.0280
  126OSM   H14G13533   3.179   3.338   8.388  0.6951  0.1003  0.3464
  126OSM   C15F13534   3.330   3.233   8.500  0.2938 -0.9611  1.0874
  126OSM   H15F13535   3.306   3.271   8.601 -1.1396 -0.6914  0.6676
  126OSM   H15G13536   3.440   3.231   8.492  0.0585 -0.8462 -3.2701
  126OSM   C16F13537   3.268   3.096   8.494  0.0046 -0.5115 -0.9373
  126OSM   H16F13538   3.293   3.044   8.399  0.0752 -0.4265 -0.9636
  126OSM   H16G13539   3.157   3.099   8.501  0.0387 -1.2018  0.1348
  126OSM   C17F13540   3.299   3.004   8.609 -0.7663  0.4883  0.5152
  126OSM   H17F13541   3.284   3.043   8.712 -1.4838 -0.9400  0.9684
  126OSM   H17G13542   3.406   2.979   8.592 -0.4888  1.6091  0.5886
  126OSM   C18F13543   3.215   2.872   8.598  0.5584 -0.3427  0.0173
  126OSM   H18F13544   3.231   2.816   8.503 -2.1418 -3.6293  1.4065
  126OSM   H18G13545   3.111   2.909   8.596  0.6434 -0.1256 -0.7479
  126OSM   H18H13546   3.221   2.811   8.690 -1.8679  0.4284  0.6975
  127OSM      N13547   4.561   1.548   6.202 -0.7036 -0.6833  0.8343
  127OSM    C1513548   4.452   1.647   6.197 -0.5566 -0.3618 -0.1570
  127OSM   H15A13549   4.448   1.693   6.100 -0.9668  0.9425  0.4719
  127OSM   H15B13550   4.470   1.733   6.260 -2.4976  0.8209 -1.2124
  127OSM   H15C13551   4.362   1.594   6.224 -0.4150  0.1930  1.4980
  127OSM    C1413552   4.701   1.613   6.195 -0.3385  0.3200 -0.2608
  127OSM   H14A13553   4.714   1.684   6.275  1.5142  0.5605 -0.7321
  127OSM   H14B13554   4.716   1.668   6.103  0.4794 -0.7319 -0.7750
  127OSM   H14C13555   4.782   1.543   6.209 -0.0832  0.0484 -2.7896
  127OSM    C1313556   4.547   1.478   6.337  0.1972 -0.0645 -0.1483
  127OSM   H13A13557   4.581   1.538   6.421  0.0522 -1.3947  0.8829
  127OSM   H13B13558   4.607   1.388   6.331 -0.7747 -0.7545  0.2867
  127OSM   H13C13559   4.443   1.451   6.352  0.5603 -1.0429  0.6731
  127OSM    C1213560   4.538   1.440   6.095  0.5386  0.4083  0.0525
  127OSM   H12A13561   4.511   1.486   6.001 -3.7004 -0.8182  0.5728
  127OSM   H12B13562   4.441   1.398   6.115  1.1187 -0.8182  0.3034
  127OSM    C1113563   4.657   1.337   6.068 -0.0728 -0.0799  0.1316
  127OSM   H11A13564   4.750   1.395   6.045  1.2623 -1.1449  2.5936
  127OSM   H11B13565   4.627   1.281   5.978 -0.2158 -0.3603  0.3532
  127OSM      P13566   4.588   1.116   6.207 -0.1223  0.1364 -0.2155
  127OSM    O1313567   4.493   1.150   6.307  0.0188  0.1482  0.3190
  127OSM    O1413568   4.537   1.056   6.083 -0.1412 -0.2205  0.0087
  127OSM    O1113569   4.695   1.019   6.268  0.4683  0.6309 -0.5501
  127OSM    O1213570   4.679   1.249   6.177 -0.0799 -0.2723  0.1683
  127OSM    C1S13571   4.746   1.040   6.400  0.1456  0.0898  0.1933
  127OSM    H1S13572   4.704   1.130   6.450  1.0979  0.3367  0.5528
  127OSM    H1T13573   4.855   1.060   6.391  0.1370  2.1987  3.6747
  127OSM     NF13574   4.802   0.922   6.610 -0.2242 -0.1415  0.4918
  127OSM    HNF13575   4.869   0.851   6.634  3.9421  3.5618  0.4251
  127OSM    C2S13576   4.738   0.906   6.484  0.0269  0.4429 -0.5066
  127OSM    H2S13577   4.628   0.896   6.499  0.5570  0.2770  4.0041
  127OSM    C3S13578   4.785   0.773   6.404 -0.4712 -0.4603  0.2502
  127OSM    H3S13579   4.893   0.770   6.380 -0.4866  1.4320 -0.1681
  127OSM     O313580   4.718   0.768   6.282  0.7214 -0.7163 -0.0312
  127OSM    HO313581   4.711   0.860   6.257  1.2167 -0.9326 -0.9840
  127OSM    C4S13582   4.740   0.660   6.483 -0.8553 -0.0510 -0.7998
  127OSM    H4S13583   4.630   0.655   6.489 -0.7840 -0.6653  0.0612
  127OSM    C5S13584   4.807   0.556   6.533 -0.0692 -0.2794 -0.0269
  127OSM    H5S13585   4.909   0.561   6.493 -0.2360 -0.2557 -0.4503
  127OSM    C6S13586   4.764   0.431   6.600  0.0399 -0.1355  0.3694
  127OSM    H6S13587   4.800   0.348   6.537 -0.8881  0.6477 -1.2348
  127OSM    H6T13588   4.653   0.419   6.600  0.2057 -1.6656 -0.1717
  127OSM    C7S13589   4.818   0.418   6.737  0.4036 -0.8532 -0.6302
  127OSM    H7S13590   4.763   0.498   6.793  1.1821 -1.5320  1.1342
  127OSM    H7T13591   4.927   0.436   6.748 -0.2639  2.2363  1.6592
  127OSM    C8S13592   4.790   0.277   6.801  0.1378  0.0407  0.3906
  127OSM    H8S13593   4.847   0.201   6.743  0.0050 -1.3902  2.0789
  127OSM    H8T13594   4.685   0.241   6.798  0.6648 -1.6720  1.2512
  127OSM    C9S13595   4.827   0.281   6.956 -0.3326  0.2814 -0.0479
  127OSM    H9S13596   4.756   0.345   7.014 -0.4308 -0.4613  0.6695
  127OSM    H9T13597   4.930   0.313   6.980 -0.2761  0.1569 -0.1287
  127OSM   C10S13598   4.820   0.140   7.020 -0.2838 -0.2434  0.4796
  127OSM   H10S13599   4.905   0.076   6.988  1.0476  1.8923 -0.3201
  127OSM   H10T13600   4.722   0.096   6.990 -0.0510  0.4447 -1.3605
  127OSM   C11S13601   4.819   0.149   7.174  0.6107  0.2515  0.7041
  127OSM   H11S13602   4.755   0.236   7.203 -0.2450  0.3547 -1.3593
  127OSM   H11T13603   4.923   0.165   7.209  1.5006 -1.3932 -1.0941
  127OSM   C12S13604   4.765   0.022   7.243  0.2519 -0.1159  0.7756
  127OSM   H12S13605   4.835  -0.062   7.225 -2.3518 -2.1036 -0.3582
  127OSM   H12T13606   4.667   0.002   7.195  0.8468  0.7176 -0.8320
  127OSM   C13S13607   4.750   0.042   7.395  0.1896 -0.1775 -0.6019
  127OSM   H13S13608   4.667  -0.028   7.419  0.9599 -0.5221  1.1367
  127OSM   H13T13609   4.725   0.147   7.423  0.2150 -0.3204 -0.0298
  127OSM   C14S13610   4.860  -0.004   7.492 -0.2460 -1.2343  0.6206
  127OSM   H14S13611   4.950   0.061   7.485 -1.7192  0.6406 -2.0109
  127OSM   H14T13612   4.888  -0.104   7.453  1.5406 -0.5803  0.1411
  127OSM   C15S13613   4.818  -0.001   7.644 -0.2861  0.0560  0.1094
  127OSM   H15S13614   4.785  -0.105   7.664  1.6744 -0.5275  0.4090
  127OSM   H15T13615   4.730   0.064   7.665 -0.9124 -0.1305 -1.7804
  127OSM   C16S13616   4.934   0.030   7.740  0.0344  0.0975  0.8540
  127OSM   H16S13617   4.970   0.135   7.732 -0.4774  0.1967 -0.3865
  127OSM   H16T13618   5.007  -0.039   7.692 -0.4518  0.4211 -0.3829
  127OSM   C17S13619   4.884  -0.007   7.881  0.7230  0.1423  0.1221
  127OSM   H17S13620   4.970  -0.013   7.951  0.4568 -2.6821  0.2373
  127OSM   H17T13621   4.839  -0.108   7.874 -2.3895  1.3994  1.0033
  127OSM   C18S13622   4.797   0.104   7.949 -0.2251  0.6582 -0.1007
  127OSM   H18S13623   4.699   0.117   7.899  0.5649 -0.4525 -2.0076
  127OSM   H18T13624   4.845   0.202   7.930  0.3798  0.1032 -1.4562
  127OSM   H18U13625   4.803   0.082   8.058  1.4327 -0.4931 -0.4057
  127OSM    C1F13626   4.776   1.027   6.699 -0.0062  1.0799  0.1163
  127OSM     OF13627   4.673   1.090   6.712  0.7167  0.5284 -0.6868
  127OSM    C2F13628   4.889   1.046   6.800 -0.3131  0.3489 -0.0272
  127OSM    H2F13629   4.950   1.120   6.745 -1.8706 -0.6206 -3.2194
  127OSM    H2G13630   4.946   0.954   6.824  0.7390  0.5113 -1.7954
  127OSM    C3F13631   4.830   1.125   6.922  0.1653  0.4214 -0.3609
  127OSM    H3F13632   4.778   1.054   6.989 -0.1745  2.5718  1.7356
  127OSM    H3G13633   4.763   1.208   6.889  0.6621  0.8464 -0.3084
  127OSM    C4F13634   4.948   1.188   7.009  0.0058 -0.1007 -0.4396
  127OSM    H4F13635   4.900   1.254   7.085 -0.9688 -2.2879  0.9085
  127OSM    H4G13636   5.008   1.252   6.940 -0.4405  2.1677  1.1912
  127OSM    C5F13637   5.043   1.094   7.086  0.0175 -0.3388  0.2003
  127OSM    H5F13638   5.132   1.149   7.123 -0.0105 -0.6249  0.7081
  127OSM    H5G13639   5.071   1.013   7.015  2.1180  0.8307 -0.3530
  127OSM    C6F13640   4.978   1.029   7.208  0.3211  0.1396 -0.2265
  127OSM    H6F13641   5.016   0.925   7.217 -2.0022 -0.7723 -0.7160
  127OSM    H6G13642   4.870   1.030   7.183 -0.5889 -2.7060  3.2606
  127OSM    C7F13643   4.994   1.114   7.337 -0.2820  0.6681  0.4206
  127OSM    H7F13644   4.898   1.115   7.393  0.5805  0.3325  1.9518
  127OSM    H7G13645   4.997   1.223   7.314  0.2200  0.0653 -2.5311
  127OSM    C8F13646   5.112   1.071   7.421  0.3586  0.3243 -0.0720
  127OSM    H8F13647   5.131   1.139   7.507 -2.1607 -2.3756  2.7535
  127OSM    H8G13648   5.207   1.068   7.363 -0.0451  0.8374 -0.7724
  127OSM    C9F13649   5.089   0.934   7.471  0.1289  0.3970  0.4066
  127OSM    H9F13650   5.059   0.857   7.398 -0.4910 -0.4945  1.5874
  127OSM   C10F13651   5.115   0.893   7.601  0.4658  0.2252 -0.0079
  127OSM   H10F13652   5.104   0.789   7.634  0.0297 -0.0582 -1.0294
  127OSM   C11F13653   5.165   0.978   7.720  0.3119  0.6737 -0.6324
  127OSM   H11F13654   5.149   0.915   7.810 -0.0513  0.9481 -0.5053
  127OSM   H11G13655   5.092   1.060   7.734 -1.1313 -0.7098  0.1097
  127OSM   C12F13656   5.313   1.026   7.723 -0.4723  0.1847  0.6408
  127OSM   H12F13657   5.332   1.046   7.616  0.5933 -1.6654  0.4527
  127OSM   H12G13658   5.389   0.947   7.745 -0.7406 -0.3532 -0.3610
  127OSM   C13F13659   5.351   1.141   7.814 -0.4211  0.5400  0.4024
  127OSM   H13F13660   5.279   1.222   7.789  0.0471  0.9947  0.4923
  127OSM   H13G13661   5.451   1.186   7.793 -0.8305  0.4320 -1.8007
  127OSM   C14F13662   5.357   1.112   7.963 -0.2944  0.4991  0.3839
  127OSM   H14F13663   5.443   1.043   7.977  1.7189  2.5262 -1.5743
  127OSM   H14G13664   5.268   1.059   8.002 -0.4454 -0.6898 -1.5252
  127OSM   C15F13665   5.370   1.238   8.057 -0.1724  0.3728  0.3925
  127OSM   H15F13666   5.286   1.301   8.023  0.0630 -0.5751 -2.0524
  127OSM   H15G13667   5.460   1.298   8.030  0.7007  0.5792  3.5740
  127OSM   C16F13668   5.367   1.208   8.197 -0.2015  0.2509 -0.6822
  127OSM   H16F13669   5.454   1.144   8.222  0.6044  1.7098  0.3180
  127OSM   H16G13670   5.275   1.150   8.219 -1.6428  2.7445  0.0793
  127OSM   C17F13671   5.371   1.340   8.282  0.2035 -0.0569  0.1920
  127OSM   H17F13672   5.270   1.382   8.263  0.5120  0.6942  0.2221
  127OSM   H17G13673   5.442   1.407   8.230  0.1480 -1.4899 -1.8114
  127OSM   C18F13674   5.402   1.321   8.425  0.2053  0.1395 -0.3173
  127OSM   H18F13675   5.311   1.287   8.478 -0.0055  3.5572  1.6792
  127OSM   H18G13676   5.439   1.414   8.476 -1.0289 -1.2236  3.2410
  127OSM   H18H13677   5.467   1.234   8.447 -0.6242 -0.8573 -1.7558
  128OSM      N13678   0.915   4.472   5.914  0.0074 -0.1341  0.9503
  128OSM    C1513679   0.911   4.337   5.857 -0.4649 -0.7985  0.7791
  128OSM   H15A13680   0.956   4.326   5.760 -0.1769 -0.8196  0.9163
  128OSM   H15B13681   0.809   4.303   5.841 -1.1702  0.8763  1.6160
  128OSM   H15C13682   0.961   4.267   5.923 -1.5555 -0.0374  2.4588
  128OSM    C1413683   1.056   4.507   5.953 -0.5723 -0.1082 -0.2635
  128OSM   H14A13684   1.097   4.420   6.002 -3.0263 -0.7170  0.7764
  128OSM   H14B13685   1.062   4.585   6.027  2.2775  0.3854 -0.9359
  128OSM   H14C13686   1.114   4.535   5.865 -2.3447  1.1922 -1.0476
  128OSM    C1313687   0.872   4.582   5.821 -0.6573  0.1266  0.8880
  128OSM   H13A13688   0.769   4.571   5.791 -0.9857  0.9666  1.6817
  128OSM   H13B13689   0.923   4.583   5.726 -0.5149  2.7579  0.9457
  128OSM   H13C13690   0.868   4.676   5.873  0.8313  0.6259  0.1312
  128OSM    C1213691   0.828   4.483   6.042  0.4475 -0.0137  0.8583
  128OSM   H12A13692   0.841   4.586   6.072 -0.1275 -0.0624  1.2852
  128OSM   H12B13693   0.872   4.423   6.120  1.6609  1.0099  0.9717
  128OSM    C1113694   0.674   4.450   6.036 -0.2771  0.3084  0.0557
  128OSM   H11A13695   0.620   4.517   5.965  1.5038  0.0001 -1.6364
  128OSM   H11B13696   0.630   4.470   6.136  0.3377  0.0881  0.3691
  128OSM      P13697   0.583   4.209   6.091  0.0273  0.1695  0.2410
  128OSM    O1313698   0.496   4.121   6.007  0.7017  0.0016 -0.7671
  128OSM    O1413699   0.696   4.140   6.154 -0.4408 -0.6635  0.2188
  128OSM    O1113700   0.505   4.286   6.200  0.1956 -0.2821  0.2218
  128OSM    O1213701   0.637   4.321   5.993  0.2366 -0.1962 -0.6516
  128OSM    C1S13702   0.454   4.209   6.317 -0.6167 -0.1352  0.4226
  128OSM    H1S13703   0.473   4.100   6.310 -1.8308 -0.2684 -1.0817
  128OSM    H1T13704   0.343   4.207   6.306 -0.6305 -3.1962  0.7378
  128OSM     NF13705   0.457   4.178   6.554  0.3794  0.0571 -0.4970
  128OSM    HNF13706   0.389   4.200   6.623 -0.1531 -2.4884 -0.1571
  128OSM    C2S13707   0.497   4.269   6.454  0.6386  0.1705  0.5998
  128OSM    H2S13708   0.608   4.265   6.461  0.7575 -0.1879 -1.2644
  128OSM    C3S13709   0.456   4.415   6.482 -0.8362  0.7192  0.7472
  128OSM    H3S13710   0.345   4.414   6.490 -1.0170 -0.8205 -1.5958
  128OSM     O313711   0.479   4.500   6.371  0.3130  0.1397  0.7396
  128OSM    HO313712   0.496   4.439   6.298  0.1989 -1.2545  1.8646
  128OSM    C4S13713   0.508   4.479   6.610 -0.0791  0.1648  0.2297
  128OSM    H4S13714   0.618   4.479   6.619 -0.1859  0.9343  1.5528
  128OSM    C5S13715   0.441   4.547   6.704  0.0674 -0.7485 -0.3155
  128OSM    H5S13716   0.334   4.568   6.690  0.4478  0.6799 -1.1313
  128OSM    C6S13717   0.498   4.616   6.826 -0.6798  0.1048 -0.2310
  128OSM    H6S13718   0.458   4.719   6.828 -0.6142  0.1344 -0.5232
  128OSM    H6T13719   0.608   4.622   6.809 -1.1914  1.1002 -3.3706
  128OSM    C7S13720   0.463   4.557   6.963  0.0089  0.5849 -0.1128
  128OSM    H7S13721   0.499   4.452   6.957  0.7946  0.9166 -1.2052
  128OSM    H7T13722   0.354   4.554   6.984  0.2076 -0.3950  0.8151
  128OSM    C8S13723   0.521   4.638   7.076  0.3722  0.5885 -0.4757
  128OSM    H8S13724   0.506   4.747   7.065 -0.3849  0.5397  0.0887
  128OSM    H8T13725   0.629   4.613   7.088 -0.2736 -1.9985  0.3583
  128OSM    C9S13726   0.461   4.589   7.211 -0.0555  0.5932  0.1132
  128OSM    H9S13727   0.485   4.480   7.218 -1.1857  0.3350  0.0888
  128OSM    H9T13728   0.352   4.613   7.212 -0.2860 -0.4371  0.2182
  128OSM   C10S13729   0.535   4.645   7.340  0.0281 -0.6164 -0.3326
  128OSM   H10S13730   0.525   4.755   7.342  3.1250 -0.3037  2.2738
  128OSM   H10T13731   0.644   4.623   7.332 -0.1969 -1.3517 -1.6463
  128OSM   C11S13732   0.483   4.577   7.471  0.4074  0.4685  0.2814
  128OSM   H11S13733   0.498   4.468   7.480  0.1329  0.6496  3.4496
  128OSM   H11T13734   0.373   4.589   7.469  0.1735 -1.7125 -0.5915
  128OSM   C12S13735   0.532   4.670   7.581 -0.2311 -0.8193 -0.3463
  128OSM   H12S13736   0.496   4.773   7.560  1.7508  0.1293  0.8463
  128OSM   H12T13737   0.643   4.662   7.578  0.1173  2.5789  0.6000
  128OSM   C13S13738   0.483   4.626   7.721  0.2188  0.7720  0.4523
  128OSM   H13S13739   0.518   4.522   7.739  1.0616  0.6697 -1.6344
  128OSM   H13T13740   0.373   4.614   7.720  0.3384 -0.4782  1.1027
  128OSM   C14S13741   0.532   4.708   7.842 -0.1781 -0.0820  0.7865
  128OSM   H14S13742   0.519   4.815   7.815 -1.7541 -0.1651  1.1662
  128OSM   H14T13743   0.636   4.688   7.875 -0.3779 -0.0975  1.4063
  128OSM   C15S13744   0.458   4.695   7.981 -0.3855 -0.4324 -0.1422
  128OSM   H15S13745   0.481   4.592   8.016 -0.3549 -0.1775  0.6052
  128OSM   H15T13746   0.348   4.696   7.968 -0.4461  0.9012  0.4006
  128OSM   C16S13747   0.510   4.785   8.097  0.5433  0.5086  0.5208
  128OSM   H16S13748   0.520   4.888   8.055  2.6213 -0.2178 -0.8065
  128OSM   H16T13749   0.608   4.748   8.133  1.1426 -0.5530 -2.1198
  128OSM   C17S13750   0.403   4.780   8.209  0.0876 -0.3411  0.5651
  128OSM   H17S13751   0.313   4.826   8.164  0.9826  0.4405 -0.4566
  128OSM   H17T13752   0.438   4.848   8.290  0.7328 -2.0868  1.7834
  128OSM   C18S13753   0.377   4.645   8.257  0.0891 -0.1416  0.0371
  128OSM   H18S13754   0.307   4.647   8.343  0.5354 -0.7117  0.4220
  128OSM   H18T13755   0.463   4.585   8.295  0.4308  1.2270  1.4872
  128OSM   H18U13756   0.333   4.584   8.175 -1.8104 -0.4196  1.2210
  128OSM    C1F13757   0.513   4.058   6.554  0.3320  0.7492 -0.3420
  128OSM     OF13758   0.623   4.031   6.499  1.0332 -0.0099 -0.6132
  128OSM    C2F13759   0.437   3.945   6.622 -0.7503 -0.3010 -0.5234
  128OSM    H2F13760   0.397   3.889   6.535 -1.1823 -0.5140 -0.1878
  128OSM    H2G13761   0.352   3.989   6.678  1.9850  5.6689 -0.5645
  128OSM    C3F13762   0.523   3.856   6.716  0.4760 -0.0670 -0.1660
  128OSM    H3F13763   0.528   3.912   6.811 -0.3692 -1.5328  0.7770
  128OSM    H3G13764   0.615   3.840   6.655  0.0573 -0.2575 -0.7602
  128OSM    C4F13765   0.448   3.734   6.761 -0.1778 -0.5410 -0.0787
  128OSM    H4F13766   0.425   3.675   6.670 -1.1539  1.0532 -0.8935
  128OSM    H4G13767   0.352   3.770   6.803 -0.6678  0.5317 -2.0351
  128OSM    C5F13768   0.519   3.654   6.878  0.0424 -0.2769 -0.1582
  128OSM    H5F13769   0.628   3.651   6.858  0.0074  2.2395 -0.8062
  128OSM    H5G13770   0.477   3.551   6.870  1.6390 -0.8689 -1.0544
  128OSM    C6F13771   0.482   3.691   7.023 -0.1491 -0.4644  0.4775
  128OSM    H6F13772   0.473   3.599   7.085 -2.8432  0.7195  1.9715
  128OSM    H6G13773   0.377   3.726   7.015 -0.5503 -1.3298  1.7652
  128OSM    C7F13774   0.594   3.793   7.070  0.7315 -0.4448  0.4307
  128OSM    H7F13775   0.615   3.880   7.004 -0.2756 -1.0989 -0.7897
  128OSM    H7G13776   0.691   3.741   7.062  1.6783  1.0327  1.9450
  128OSM    C8F13777   0.584   3.847   7.213 -0.1856 -0.3409  0.0044
  128OSM    H8F13778   0.482   3.890   7.224  0.5658  1.2944  0.8362
  128OSM    H8G13779   0.665   3.922   7.227  1.0974 -1.6692 -0.1398
  128OSM    C9F13780   0.615   3.741   7.314  0.4309  0.3792  0.0800
  128OSM    H9F13781   0.710   3.686   7.305 -0.6665 -1.1738 -2.3865
  128OSM   C10F13782   0.536   3.703   7.419  0.2975 -0.5736 -0.4110
  128OSM   H10F13783   0.579   3.626   7.485 -2.5196 -1.5467  0.3445
  128OSM   C11F13784   0.397   3.747   7.457  0.6521 -0.7388 -0.4424
  128OSM   H11F13785   0.372   3.840   7.401  2.1584 -1.2903 -2.0629
  128OSM   H11G13786   0.418   3.785   7.560 -1.8845  0.0828 -0.1986
  128OSM   C12F13787   0.295   3.636   7.474  0.0235  0.0213 -0.6229
  128OSM   H12F13788   0.205   3.676   7.526  0.4086 -0.6818  0.6116
  128OSM   H12G13789   0.336   3.557   7.541 -2.1028 -2.1910 -1.8252
  128OSM   C13F13790   0.252   3.578   7.346  0.3245 -0.5505  0.0720
  128OSM   H13F13791   0.183   3.494   7.372  0.6562 -1.2287 -1.1825
  128OSM   H13G13792   0.339   3.536   7.290 -0.6878 -1.2777 -0.9763
  128OSM   C14F13793   0.189   3.665   7.237 -0.2272  0.1222  0.1790
  128OSM   H14F13794   0.251   3.748   7.197 -3.0182  1.3723 -1.7739
  128OSM   H14G13795   0.099   3.713   7.282  0.9937 -0.0428  2.9065
  128OSM   C15F13796   0.145   3.587   7.117  0.3768 -1.0297 -0.2832
  128OSM   H15F13797   0.089   3.497   7.152 -0.7113  0.1601  1.0742
  128OSM   H15G13798   0.233   3.542   7.066  0.5575 -1.4084  0.3518
  128OSM   C16F13799   0.079   3.674   7.016 -0.3758  0.5019 -0.0220
  128OSM   H16F13800   0.152   3.750   6.979  0.9100 -0.9810 -0.5912
  128OSM   H16G13801  -0.009   3.728   7.056  0.1325  1.1286  0.2663
  128OSM   C17F13802   0.037   3.598   6.887 -0.5619 -0.3373 -0.7920
  128OSM   H17F13803  -0.022   3.517   6.934  0.3878  0.6283  2.2074
  128OSM   H17G13804   0.128   3.550   6.845  0.2179  1.9410 -1.7910
  128OSM   C18F13805  -0.039   3.677   6.781  0.6912 -0.1013 -0.4600
  128OSM   H18F13806  -0.122   3.731   6.829 -0.2154 -1.7842 -0.0856
  128OSM   H18G13807  -0.091   3.617   6.703 -0.0778  2.4229 -1.9335
  128OSM   H18H13808   0.024   3.749   6.725  1.2939 -0.0210  0.3110
  129OSM      N13809   3.907   0.391   6.343 -0.8753 -0.2045 -0.0772
  129OSM    C1513810   3.780   0.466   6.382  0.6983  0.3541 -0.2100
  129OSM   H15A13811   3.780   0.573   6.368 -1.6316  0.4316  0.1730
  129OSM   H15B13812   3.766   0.443   6.487 -0.9981 -2.9778 -1.1027
  129OSM   H15C13813   3.693   0.430   6.329  2.1973 -1.6569 -1.3764
  129OSM    C1413814   3.881   0.243   6.351 -0.2389  0.1219  0.3190
  129OSM   H14A13815   3.836   0.214   6.445 -1.4768 -0.4629 -0.4435
  129OSM   H14B13816   3.973   0.187   6.341  0.3823  1.5684 -2.3148
  129OSM   H14C13817   3.817   0.218   6.268  0.5157 -0.4902 -0.0757
  129OSM    C1313818   3.949   0.431   6.200 -0.3082 -1.3314 -0.3207
  129OSM   H13A13819   3.869   0.405   6.133 -2.2783 -0.0661  1.4538
  129OSM   H13B13820   4.043   0.389   6.168  1.4929 -0.3900  3.3663
  129OSM   H13C13821   3.965   0.538   6.203 -0.9359 -1.2312 -0.5263
  129OSM    C1213822   4.015   0.424   6.445 -0.3974  0.1505 -0.5002
  129OSM   H12A13823   4.101   0.368   6.414 -0.0972 -0.4755  1.4209
  129OSM   H12B13824   3.988   0.381   6.540  0.8265  1.3608  0.4144
  129OSM    C1113825   4.060   0.571   6.468  0.3754  0.1858 -0.2149
  129OSM   H11A13826   4.142   0.569   6.542 -1.1780  1.1485  1.5866
  129OSM   H11B13827   3.977   0.626   6.518  0.8091  0.0319  0.6850
  129OSM      P13828   4.151   0.781   6.367  0.0286  0.1440 -0.0497
  129OSM    O1313829   4.240   0.822   6.261  1.1902 -0.2807  0.1091
  129OSM    O1413830   4.029   0.867   6.389 -0.1096 -0.2994 -0.2792
  129OSM    O1113831   4.231   0.775   6.497  0.1935  0.0525  0.3865
  129OSM    O1213832   4.100   0.633   6.346 -0.1089 -0.1971 -0.4236
  129OSM    C1S13833   4.266   0.887   6.574 -0.5039 -1.0380 -0.3059
  129OSM    H1S13834   4.182   0.959   6.586  1.3770  1.5608 -2.0860
  129OSM    H1T13835   4.339   0.948   6.517 -2.5965  1.3627 -0.5352
  129OSM     NF13836   4.359   0.985   6.776 -0.4486  0.1762  0.0762
  129OSM    HNF13837   4.457   0.998   6.762 -0.7011  0.9614 -1.0521
  129OSM    C2S13838   4.313   0.859   6.719  0.0751  0.4391 -0.3628
  129OSM    H2S13839   4.225   0.822   6.775  1.5574 -0.5209  1.3796
  129OSM    C3S13840   4.421   0.742   6.711  0.5630 -0.0847 -0.7541
  129OSM    H3S13841   4.504   0.799   6.663  2.0154 -0.9542  0.7033
  129OSM     O313842   4.380   0.629   6.638 -0.3799 -0.5949 -0.3349
  129OSM    HO313843   4.296   0.658   6.601 -1.1642 -0.1171  1.7131
  129OSM    C4S13844   4.446   0.703   6.854  0.7539  0.2314  0.8149
  129OSM    H4S13845   4.362   0.643   6.892 -0.8768 -0.0052 -2.8870
  129OSM    C5S13846   4.569   0.721   6.912  0.3408 -0.1952 -0.0562
  129OSM    H5S13847   4.656   0.753   6.852 -1.4453  2.6328 -1.2212
  129OSM    C6S13848   4.618   0.686   7.051  0.2822 -0.2862  0.0076
  129OSM    H6S13849   4.704   0.615   7.054 -0.5689 -1.3337  0.0384
  129OSM    H6T13850   4.536   0.628   7.099  1.2047 -1.4329  0.2210
  129OSM    C7S13851   4.652   0.799   7.153  0.9006 -0.0410  0.2074
  129OSM    H7S13852   4.582   0.885   7.143  0.0951 -0.9017 -1.7436
  129OSM    H7T13853   4.753   0.836   7.124  0.3079  1.1617 -0.3676
  129OSM    C8S13854   4.652   0.741   7.296  0.3205  0.5993 -0.2824
  129OSM    H8S13855   4.737   0.670   7.299  1.9078  2.5412  3.4889
  129OSM    H8T13856   4.561   0.680   7.316  0.2289  1.0149  0.5778
  129OSM    C9S13857   4.671   0.854   7.398  0.3708 -0.2412  0.1380
  129OSM    H9S13858   4.597   0.935   7.376  0.7159 -0.5675 -2.4002
  129OSM    H9T13859   4.766   0.905   7.371  1.1727  0.4535  3.9163
  129OSM   C10S13860   4.670   0.822   7.551  0.6310  0.0286 -0.0570
  129OSM   H10S13861   4.760   0.771   7.593  1.2494  1.6084  0.5425
  129OSM   H10T13862   4.596   0.739   7.559 -0.8854  1.5079  1.6894
  129OSM   C11S13863   4.615   0.943   7.633 -0.4658 -0.2738 -0.0577
  129OSM   H11S13864   4.533   0.986   7.572  0.7523  2.2679  0.0231
  129OSM   H11T13865   4.676   1.037   7.636 -1.2760  0.3603 -2.1932
  129OSM   C12S13866   4.577   0.903   7.770  0.0549  0.0149 -0.1490
  129OSM   H12S13867   4.669   0.853   7.809  1.4477 -0.0488 -3.3456
  129OSM   H12T13868   4.501   0.823   7.769  0.7472 -0.6514 -2.5867
  129OSM   C13S13869   4.548   1.018   7.869  0.0982  0.4514 -0.3284
  129OSM   H13S13870   4.500   1.101   7.815  0.8278  0.8142 -0.4226
  129OSM   H13T13871   4.640   1.063   7.911  0.4951 -2.6067  2.3708
  129OSM   C14S13872   4.458   0.968   7.981 -0.4328 -0.7471  0.5547
  129OSM   H14S13873   4.498   0.865   8.000 -0.9513 -1.3502 -1.4893
  129OSM   H14T13874   4.353   0.968   7.945 -0.9288 -2.3202  1.8948
  129OSM   C15S13875   4.468   1.052   8.109 -0.3427 -0.0262  0.4790
  129OSM   H15S13876   4.456   1.160   8.089 -2.0175 -0.4954 -1.2761
  129OSM   H15T13877   4.564   1.032   8.160  0.8868 -0.9119 -2.0993
  129OSM   C16S13878   4.367   1.020   8.217  0.4132 -0.3923 -0.1991
  129OSM   H16S13879   4.359   0.910   8.225 -1.5504 -0.2570  0.0690
  129OSM   H16T13880   4.263   1.050   8.191  1.0800 -0.5031 -3.1796
  129OSM   C17S13881   4.391   1.099   8.345  0.3170 -0.8465  0.4480
  129OSM   H17S13882   4.403   1.203   8.310  3.2614 -1.3841 -0.2938
  129OSM   H17T13883   4.490   1.063   8.380 -0.1288 -0.0983  2.5595
  129OSM   C18S13884   4.283   1.084   8.456  0.1646  0.3310 -0.0009
  129OSM   H18S13885   4.254   0.980   8.481  0.6774  0.6896  2.2510
  129OSM   H18T13886   4.190   1.145   8.453  0.8367  1.5409  2.6073
  129OSM   H18U13887   4.332   1.124   8.548  1.4515  1.5437 -1.1787
  129OSM    C1F13888   4.272   1.087   6.800  0.9508 -0.3822  0.9123
  129OSM     OF13889   4.151   1.071   6.790  0.4248 -0.3008  0.1903
  129OSM    C2F13890   4.328   1.228   6.815 -0.1842  0.6069  0.2308
  129OSM    H2F13891   4.277   1.305   6.754  0.2040  1.0346  0.4492
  129OSM    H2G13892   4.430   1.225   6.772 -0.3999 -0.7718 -0.2213
  129OSM    C3F13893   4.338   1.271   6.958 -0.0772 -0.4600  0.5862
  129OSM    H3F13894   4.242   1.267   7.015 -0.6772  1.2166 -0.2789
  129OSM    H3G13895   4.371   1.377   6.970 -1.2795 -0.1904  1.6752
  129OSM    C4F13896   4.433   1.191   7.046  1.0544  0.6423 -0.2162
  129OSM    H4F13897   4.531   1.188   6.993  0.7607 -0.4281 -0.6940
  129OSM    H4G13898   4.392   1.089   7.054  2.4556  0.0730 -0.1398
  129OSM    C5F13899   4.456   1.260   7.182 -0.3367 -0.0010 -0.1359
  129OSM    H5F13900   4.357   1.281   7.229 -1.0402 -2.7423 -0.3068
  129OSM    H5G13901   4.499   1.362   7.183 -0.5314  0.1013  2.3300
  129OSM    C6F13902   4.535   1.177   7.284 -0.5777 -0.4641 -0.0212
  129OSM    H6F13903   4.625   1.130   7.238 -0.9608 -2.0719  0.8715
  129OSM    H6G13904   4.475   1.099   7.334  1.1887  1.4098  5.4079
  129OSM    C7F13905   4.583   1.269   7.399  0.5457 -0.7310 -0.5254
  129OSM    H7F13906   4.670   1.324   7.356  0.0667  0.8832  0.5388
  129OSM    H7G13907   4.621   1.204   7.480 -1.2645  1.3334  2.0468
  129OSM    C8F13908   4.500   1.390   7.452 -0.1327  0.0993 -0.7561
  129OSM    H8F13909   4.482   1.463   7.371 -0.7510 -1.7491 -2.3165
  129OSM    H8G13910   4.579   1.436   7.517 -1.1349 -0.4178  0.8644
  129OSM    C9F13911   4.380   1.350   7.535  0.1925  0.3339  0.5156
  129OSM    H9F13912   4.300   1.309   7.472 -0.6149  3.0668 -0.3078
  129OSM   C10F13913   4.344   1.395   7.659  0.5081  0.2035 -0.7122
  129OSM   H10F13914   4.254   1.355   7.706  1.9251 -1.7916  0.3893
  129OSM   C11F13915   4.430   1.480   7.749 -0.1967 -0.1085 -0.0597
  129OSM   H11F13916   4.381   1.580   7.751  0.3973  0.2011 -0.7761
  129OSM   H11G13917   4.536   1.492   7.720 -0.7630  0.9034 -1.8194
  129OSM   C12F13918   4.416   1.429   7.892  0.0570 -0.6511 -0.1349
  129OSM   H12F13919   4.441   1.322   7.906  0.0159 -0.2253  3.5971
  129OSM   H12G13920   4.307   1.434   7.914 -0.5902  0.1278 -3.1792
  129OSM   C13F13921   4.496   1.512   7.990 -0.4545  0.5946 -0.5742
  129OSM   H13F13922   4.460   1.616   8.011 -1.0093  0.6622 -1.8416
  129OSM   H13G13923   4.595   1.525   7.942  0.8729 -1.3676  1.5693
  129OSM   C14F13924   4.503   1.438   8.123 -1.0107  0.2315  0.2664
  129OSM   H14F13925   4.544   1.336   8.117  0.0740  0.6981 -0.5023
  129OSM   H14G13926   4.404   1.424   8.171  0.2524 -0.6190  2.6512
  129OSM   C15F13927   4.567   1.529   8.228 -0.5043  0.1950  0.2260
  129OSM   H15F13928   4.516   1.625   8.203 -0.0175  0.2374 -0.6221
  129OSM   H15G13929   4.673   1.542   8.198 -0.6993 -0.2677 -0.6949
  129OSM   C16F13930   4.560   1.471   8.369  0.1769  0.3002  0.1454
  129OSM   H16F13931   4.604   1.370   8.382  0.9118  0.6192  0.1874
  129OSM   H16G13932   4.453   1.464   8.398  0.1257 -0.8691 -0.2990
  129OSM   C17F13933   4.629   1.557   8.480 -0.3574 -0.0325  0.1537
  129OSM   H17F13934   4.559   1.643   8.476 -1.8335 -1.2398 -0.5273
  129OSM   H17G13935   4.733   1.591   8.457 -0.2204  0.0659  0.9066
  129OSM   C18F13936   4.610   1.500   8.621 -0.2844  0.2389  0.3976
  129OSM   H18F13937   4.503   1.495   8.651  0.1105 -3.1394  1.4847
  129OSM   H18G13938   4.656   1.569   8.695  0.9411  0.2680 -0.3777
  129OSM   H18H13939   4.651   1.397   8.628 -3.4569 -1.2004 -1.0106
  130OSM      N13940   0.704   3.285   6.062  0.0159 -0.1960  0.5974
  130OSM    C1513941   0.785   3.305   5.939 -0.3438 -1.2815  0.4752
  130OSM   H15A13942   0.767   3.396   5.884  1.0226 -1.6481 -0.5909
  130OSM   H15B13943   0.765   3.226   5.868 -0.8688 -0.2974 -0.4956
  130OSM   H15C13944   0.889   3.290   5.962  0.0991  1.3999  0.3781
  130OSM    C1413945   0.562   3.318   6.028  0.4860 -0.5000  0.0592
  130OSM   H14A13946   0.526   3.274   5.936  2.0798  0.9851 -1.3375
  130OSM   H14B13947   0.553   3.425   6.018  1.1491 -0.4644 -0.2322
  130OSM   H14C13948   0.490   3.277   6.097  1.0742 -2.5982 -0.5293
  130OSM    C1313949   0.712   3.140   6.100  0.8398  0.0765  0.0077
  130OSM   H13A13950   0.630   3.122   6.168  1.5546 -0.0085  0.8766
  130OSM   H13B13951   0.808   3.127   6.148  1.2801 -0.2793 -0.9525
  130OSM   H13C13952   0.695   3.072   6.019 -4.3072  1.4402 -0.2035
  130OSM    C1213953   0.760   3.378   6.176  0.7029 -0.3015  0.9980
  130OSM   H12A13954   0.691   3.376   6.259  1.4833 -0.8099  1.6386
  130OSM   H12B13955   0.749   3.481   6.144 -0.6887 -1.5073 -2.6868
  130OSM    C1113956   0.905   3.359   6.221 -0.0412 -0.1927  0.5367
  130OSM   H11A13957   0.926   3.441   6.292  0.5894 -0.8563  1.1304
  130OSM   H11B13958   0.974   3.361   6.133 -1.3754  0.3432 -0.5050
  130OSM      P13959   1.064   3.195   6.329  0.4076 -0.4561 -0.0070
  130OSM    O1313960   1.066   3.070   6.408 -0.8693 -0.3711  0.3333
  130OSM    O1413961   1.147   3.198   6.205  0.1400 -0.2220 -0.2303
  130OSM    O1113962   1.126   3.294   6.422 -0.1897  0.6395 -0.4934
  130OSM    O1213963   0.913   3.241   6.299 -0.2281 -0.0083  0.2548
  130OSM    C1S13964   1.054   3.323   6.544 -0.1201 -1.3844  0.8851
  130OSM    H1S13965   0.943   3.335   6.535  0.0494 -1.7442 -1.9964
  130OSM    H1T13966   1.095   3.422   6.576  2.1215 -1.5220 -1.4215
  130OSM     NF13967   0.995   3.272   6.782 -0.3928  0.1296 -0.3229
  130OSM    HNF13968   1.041   3.323   6.853  1.8844  0.5741 -2.0678
  130OSM    C2S13969   1.079   3.231   6.669  0.1330 -0.0199 -0.1473
  130OSM    H2S13970   1.072   3.122   6.647 -1.7291  0.1806 -0.6324
  130OSM    C3S13971   1.232   3.251   6.698  0.5986 -0.1680 -0.1221
  130OSM    H3S13972   1.257   3.359   6.694 -2.0652  0.5023  0.4596
  130OSM     O313973   1.306   3.187   6.598  0.3830 -0.3009  0.4345
  130OSM    HO313974   1.246   3.184   6.523  1.6250  2.4628 -0.7277
  130OSM    C4S13975   1.280   3.189   6.830  0.0392 -0.1664 -0.1165
  130OSM    H4S13976   1.261   3.081   6.842  1.2963 -0.2140  1.5379
  130OSM    C5S13977   1.330   3.263   6.934 -0.2525 -0.6921  0.2296
  130OSM    H5S13978   1.338   3.373   6.927 -1.3050 -0.5306  1.3440
  130OSM    C6S13979   1.370   3.206   7.067  0.8240  0.5142 -0.0564
  130OSM    H6S13980   1.479   3.186   7.073  0.8189  0.7455  0.9464
  130OSM    H6T13981   1.328   3.104   7.077  1.8847 -0.0623 -1.2740
  130OSM    C7S13982   1.342   3.288   7.189  0.1499  0.2570 -0.0663
  130OSM    H7S13983   1.233   3.307   7.195 -0.4675 -1.9117 -3.3345
  130OSM    H7T13984   1.388   3.389   7.186  1.0775 -0.2079 -2.0271
  130OSM    C8S13985   1.381   3.213   7.318  0.1743 -0.2018  0.3009
  130OSM    H8S13986   1.491   3.211   7.304 -0.0092  1.8288 -1.6695
  130OSM    H8T13987   1.340   3.109   7.312  0.0431 -0.1415  0.1456
  130OSM    C9S13988   1.337   3.293   7.443 -0.1796 -0.4077  0.0485
  130OSM    H9S13989   1.227   3.297   7.430 -0.3292 -0.6609  1.2072
  130OSM    H9T13990   1.366   3.399   7.426 -0.4462 -0.5874 -1.6805
  130OSM   C10S13991   1.367   3.232   7.574 -0.1579 -0.1751 -0.3734
  130OSM   H10S13992   1.470   3.244   7.615 -0.3056 -0.8125  0.1971
  130OSM   H10T13993   1.349   3.122   7.568  1.3727 -0.4715  0.2502
  130OSM   C11S13994   1.279   3.285   7.691 -0.0249 -0.0386  0.6205
  130OSM   H11S13995   1.175   3.246   7.681  0.1232 -0.7183  1.7494
  130OSM   H11T13996   1.266   3.395   7.677  2.2323  0.0040 -1.4453
  130OSM   C12S13997   1.343   3.250   7.817  0.2388  0.4882 -0.1198
  130OSM   H12S13998   1.437   3.310   7.825  0.5643  0.0797 -0.8294
  130OSM   H12T13999   1.374   3.143   7.811 -1.3316 -0.0139  0.5021
  130OSM   C13S14000   1.262   3.277   7.947 -0.4737  1.8196  0.2319
  130OSM   H13S14001   1.166   3.225   7.925 -0.1773  0.8898  1.1189
  130OSM   H13T14002   1.234   3.382   7.971 -0.4863  2.4907 -2.4952
  130OSM   C14S14003   1.328   3.212   8.071  0.1942 -0.5234  0.8467
  130OSM   H14S14004   1.411   3.282   8.098  0.5093 -1.0282  1.2034
  130OSM   H14T14005   1.387   3.122   8.042 -1.4414 -0.6225 -2.2807
  130OSM   C15S14006   1.246   3.171   8.191 -0.3776  0.3421  0.0166
  130OSM   H15S14007   1.295   3.103   8.264 -1.1093 -3.5465 -2.9731
  130OSM   H15T14008   1.145   3.137   8.162  0.2625  0.3029 -2.2866
  130OSM   C16S14009   1.221   3.301   8.270 -0.5528 -0.1087 -0.0914
  130OSM   H16S14010   1.232   3.385   8.198 -0.2067  1.1827  1.4269
  130OSM   H16T14011   1.306   3.327   8.338 -2.1401 -1.1874  2.3600
  130OSM   C17S14012   1.104   3.287   8.370 -0.2783 -0.1460 -0.5606
  130OSM   H17S14013   1.137   3.222   8.453  0.1685  1.4355  0.5263
  130OSM   H17T14014   1.009   3.245   8.329  0.7032  1.3670 -4.6539
  130OSM   C18S14015   1.069   3.425   8.431 -0.0275  0.8209  0.3973
  130OSM   H18S14016   0.974   3.404   8.486 -0.1618  1.8574  0.5667
  130OSM   H18T14017   1.050   3.498   8.350  0.1832 -0.4050 -0.7714
  130OSM   H18U14018   1.148   3.466   8.498  2.1846 -3.2934  0.5054
  130OSM    C1F14019   0.869   3.235   6.782  0.1873  0.0081 -0.4736
  130OSM     OF14020   0.822   3.184   6.684  0.2992  0.1638  0.5398
  130OSM    C2F14021   0.784   3.240   6.909 -0.3173 -0.3795 -0.1158
  130OSM    H2F14022   0.746   3.137   6.928  1.3544 -1.1243 -0.7112
  130OSM    H2G14023   0.691   3.293   6.881 -0.3759  0.1805  1.1211
  130OSM    C3F14024   0.855   3.287   7.040  0.2877 -0.3961  0.0575
  130OSM    H3F14025   0.908   3.382   7.018 -0.6163 -0.0797 -0.7941
  130OSM    H3G14026   0.933   3.215   7.073 -0.6532 -1.5108 -0.0950
  130OSM    C4F14027   0.760   3.306   7.153 -0.2073  0.0329  0.0488
  130OSM    H4F14028   0.707   3.210   7.171  2.3322 -1.7563 -1.6922
  130OSM    H4G14029   0.681   3.368   7.105 -1.7400 -0.9457  1.2668
  130OSM    C5F14030   0.822   3.370   7.277  0.2300  0.4529 -0.9849
  130OSM    H5F14031   0.854   3.476   7.262  1.7499  0.1181 -0.1814
  130OSM    H5G14032   0.904   3.301   7.305 -0.4279 -1.0853 -2.7466
  130OSM    C6F14033   0.724   3.374   7.403  0.3808  0.3749  1.4072
  130OSM    H6F14034   0.707   3.265   7.416  3.2369 -0.3974 -0.6533
  130OSM    H6G14035   0.633   3.427   7.369  0.8025  0.1833 -0.0997
  130OSM    C7F14036   0.787   3.443   7.528  0.7051  1.1972  0.3222
  130OSM    H7F14037   0.806   3.550   7.505  0.2357  0.5311 -3.4440
  130OSM    H7G14038   0.884   3.391   7.546 -0.2194 -1.1032 -1.0629
  130OSM    C8F14039   0.699   3.424   7.646 -0.1518 -0.5709  0.4594
  130OSM    H8F14040   0.688   3.314   7.662  0.5293 -1.0309 -2.0145
  130OSM    H8G14041   0.605   3.477   7.619  0.2375  1.1211  2.3091
  130OSM    C9F14042   0.750   3.500   7.759  0.3894 -0.5002  0.5419
  130OSM    H9F14043   0.782   3.601   7.729 -0.6663 -0.4057 -0.3058
  130OSM   C10F14044   0.762   3.468   7.883  0.2143 -0.2020 -0.3931
  130OSM   H10F14045   0.810   3.534   7.957  1.3583 -0.2426 -1.0748
  130OSM   C11F14046   0.723   3.330   7.946  0.6340  0.4443 -0.1283
  130OSM   H11F14047   0.787   3.245   7.912  2.4313  0.3525  3.3456
  130OSM   H11G14048   0.616   3.303   7.935  0.6138  0.6027 -0.3286
  130OSM   C12F14049   0.734   3.343   8.105  0.4310  0.2136  0.2221
  130OSM   H12F14050   0.829   3.395   8.129 -1.1785  3.0305  0.6900
  130OSM   H12G14051   0.717   3.240   8.143  2.2103 -0.7092 -1.3893
  130OSM   C13F14052   0.607   3.421   8.158 -0.3770  1.0447 -0.2644
  130OSM   H13F14053   0.519   3.364   8.121  1.0488 -0.3863 -1.5641
  130OSM   H13G14054   0.597   3.525   8.121  0.3556  1.2085  0.0087
  130OSM   C14F14055   0.616   3.431   8.310  0.6153 -0.0972  0.1985
  130OSM   H14F14056   0.716   3.474   8.333  0.6295  0.3033 -0.6088
  130OSM   H14G14057   0.602   3.331   8.357 -2.9859 -1.0857 -2.7945
  130OSM   C15F14058   0.512   3.534   8.365 -0.2635 -0.4722 -0.8207
  130OSM   H15F14059   0.417   3.518   8.312  0.1914 -1.1967 -1.4255
  130OSM   H15G14060   0.566   3.630   8.349  0.4627 -0.8006 -0.3847
  130OSM   C16F14061   0.493   3.521   8.516  0.2065  0.1152  0.9564
  130OSM   H16F14062   0.589   3.520   8.571  0.1520 -3.8502  1.1372
  130OSM   H16G14063   0.465   3.415   8.534  0.0474  0.0554  0.3814
  130OSM   C17F14064   0.392   3.614   8.569  0.5301 -0.0486 -0.1182
  130OSM   H17F14065   0.345   3.582   8.665  1.0008 -2.9191 -0.8185
  130OSM   H17G14066   0.308   3.614   8.497  1.4472  0.6386 -1.2055
  130OSM   C18F14067   0.433   3.763   8.574 -0.3753 -0.6119 -0.5465
  130OSM   H18F14068   0.517   3.777   8.645 -0.1918  0.5404 -0.9963
  130OSM   H18G14069   0.344   3.829   8.585  1.4317  1.7256  0.3007
  130OSM   H18H14070   0.482   3.783   8.477 -1.2005  2.8983 -0.3012
  131OSM      N14071   5.109   0.454   5.659 -0.1965  0.4152 -0.4844
  131OSM    C1514072   5.231   0.367   5.631 -0.0945  0.2879  0.4964
  131OSM   H15A14073   5.219   0.288   5.559 -0.6298  1.3754 -0.6242
  131OSM   H15B14074   5.274   0.338   5.726  0.4863  0.1141  0.1759
  131OSM   H15C14075   5.310   0.428   5.591 -0.8362 -0.7813 -2.7471
  131OSM    C1414076   5.141   0.585   5.727 -0.4205  0.3538  0.5517
  131OSM   H14A14077   5.238   0.625   5.701 -0.5205  0.9867  1.1188
  131OSM   H14B14078   5.151   0.572   5.834 -1.0722 -1.6350  0.3835
  131OSM   H14C14079   5.063   0.655   5.703 -1.4351 -1.7975 -2.7108
  131OSM    C1314080   5.062   0.492   5.525  0.3995  0.2744 -0.1636
  131OSM   H13A14081   5.150   0.517   5.466  0.2893 -1.3718 -1.0685
  131OSM   H13B14082   4.988   0.570   5.525 -1.5200 -1.4940  0.4521
  131OSM   H13C14083   5.018   0.405   5.478 -1.2016  0.7980  0.3596
  131OSM    C1214084   5.004   0.376   5.741 -0.5777 -0.2356 -0.0981
  131OSM   H12A14085   4.979   0.301   5.667  0.0826 -0.3361 -0.2263
  131OSM   H12B14086   4.913   0.434   5.742  1.1573  2.5720  1.1238
  131OSM    C1114087   5.032   0.323   5.887 -0.2852 -0.8100 -0.2025
  131OSM   H11A14088   4.941   0.282   5.936 -1.6047  0.3235 -1.6665
  131OSM   H11B14089   5.069   0.406   5.950 -1.5539  0.7863 -1.5097
  131OSM      P14090   5.215   0.183   6.012 -0.2685 -0.3677 -0.2018
  131OSM    O1314091   5.267   0.048   5.999 -0.3780  0.1792 -0.3467
  131OSM    O1414092   5.311   0.297   6.033  0.0389 -0.7856 -0.0824
  131OSM    O1114093   5.104   0.179   6.127 -0.0870  0.0564 -0.4239
  131OSM    O1214094   5.132   0.218   5.878 -0.3154 -0.7182  0.2619
  131OSM    C1S14095   5.138   0.151   6.271  0.3295  0.8379  0.7611
  131OSM    H1S14096   5.218   0.216   6.313 -1.2805  3.3281  0.1255
  131OSM    H1T14097   5.172   0.047   6.289 -1.6006  0.1252  0.3883
  131OSM     NF14098   5.050   0.146   6.500 -0.7009  0.1203  0.2085
  131OSM    HNF14099   5.013   0.059   6.533  0.7554 -1.3054 -1.7870
  131OSM    C2S14100   5.015   0.159   6.360 -0.5856 -0.9216 -1.0636
  131OSM    H2S14101   4.967   0.259   6.355  0.1839 -0.4736  0.2471
  131OSM    C3S14102   4.914   0.048   6.316 -0.3180  0.1601  0.5778
  131OSM    H3S14103   4.965  -0.048   6.335  1.0307  0.9278  0.9152
  131OSM     O314104   4.891   0.048   6.177  0.2300 -0.1578  0.6366
  131OSM    HO314105   4.977   0.070   6.141  1.3178 -1.8561  2.1129
  131OSM    C4S14106   4.782   0.055   6.384 -0.2263 -0.6442  0.3177
  131OSM    H4S14107   4.720   0.145   6.368  1.0416  0.0388 -0.8153
  131OSM    C5S14108   4.740  -0.037   6.471  0.4352  0.0859 -0.2400
  131OSM    H5S14109   4.808  -0.121   6.489  1.4418  1.2404  1.4531
  131OSM    C6S14110   4.610  -0.045   6.549 -0.2802 -0.8325  0.3413
  131OSM    H6S14111   4.533  -0.114   6.510  0.6413 -0.9372 -1.3513
  131OSM    H6T14112   4.561   0.055   6.556 -0.3045 -0.7099 -1.4273
  131OSM    C7S14113   4.645  -0.106   6.687  0.7973 -0.0159  0.8410
  131OSM    H7S14114   4.722  -0.037   6.728  2.1448 -0.9791 -0.0134
  131OSM    H7T14115   4.695  -0.205   6.675  0.8619 -0.0038  1.0159
  131OSM    C8S14116   4.530  -0.126   6.782  0.7228 -0.3798  0.0155
  131OSM    H8S14117   4.458  -0.194   6.731 -0.7365  0.8635  0.3557
  131OSM    H8T14118   4.483  -0.027   6.803  0.0001 -0.5032 -0.9570
  131OSM    C9S14119   4.574  -0.178   6.915 -0.2282 -0.1837  0.6793
  131OSM    H9S14120   4.650  -0.110   6.959 -0.1499 -1.6147  2.8294
  131OSM    H9T14121   4.611  -0.282   6.905  1.5498  0.5708 -1.1155
  131OSM   C10S14122   4.457  -0.183   7.025  0.4471 -0.7695  0.7531
  131OSM   H10S14123   4.371  -0.239   6.982  1.2000 -1.1047 -0.3313
  131OSM   H10T14124   4.431  -0.078   7.048 -0.6427 -0.8706  0.0094
  131OSM   C11S14125   4.502  -0.260   7.150 -0.7220 -0.2261 -0.7901
  131OSM   H11S14126   4.612  -0.271   7.154 -0.6582  0.6399  0.2340
  131OSM   H11T14127   4.464  -0.364   7.146  0.1727 -0.4767 -3.2473
  131OSM   C12S14128   4.452  -0.196   7.277  0.1412  1.1481  0.4928
  131OSM   H12S14129   4.344  -0.176   7.265 -0.3742 -2.7544 -1.9971
  131OSM   H12T14130   4.499  -0.095   7.282  0.9843  0.8392 -1.1008
  131OSM   C13S14131   4.476  -0.274   7.409 -0.2609 -0.3448  0.3431
  131OSM   H13S14132   4.586  -0.287   7.420 -0.4055 -3.3148 -1.2925
  131OSM   H13T14133   4.430  -0.375   7.411 -0.3378 -0.2880  1.4143
  131OSM   C14S14134   4.424  -0.199   7.534  0.0408 -0.2461  0.4473
  131OSM   H14S14135   4.313  -0.195   7.539  0.0618 -0.9188  2.1053
  131OSM   H14T14136   4.468  -0.097   7.532 -2.7184  1.0135  1.8957
  131OSM   C15S14137   4.472  -0.278   7.659 -0.3753  0.2003 -0.6676
  131OSM   H15S14138   4.583  -0.281   7.667 -0.3769 -0.0167 -0.7331
  131OSM   H15T14139   4.429  -0.381   7.662 -3.6758  1.5722  2.3144
  131OSM   C16S14140   4.419  -0.208   7.790 -0.7324 -0.1441  0.2787
  131OSM   H16S14141   4.311  -0.186   7.783 -0.8604 -0.2465  1.7561
  131OSM   H16T14142   4.467  -0.108   7.797 -1.1352 -0.0195  1.4212
  131OSM   C17S14143   4.463  -0.275   7.919 -0.3408 -0.1615 -0.1203
  131OSM   H17S14144   4.571  -0.302   7.914 -0.4246 -0.7042  1.0025
  131OSM   H17T14145   4.427  -0.379   7.932 -2.4607  0.5684  0.0225
  131OSM   C18S14146   4.447  -0.194   8.047 -0.2330 -0.1563 -0.1542
  131OSM   H18S14147   4.343  -0.186   8.082 -0.4354  0.1577 -0.8074
  131OSM   H18T14148   4.487  -0.091   8.036  0.9902 -0.8380 -2.6688
  131OSM   H18U14149   4.505  -0.237   8.132  0.5201  0.4196 -0.3669
  131OSM    C1F14150   5.124   0.233   6.572 -0.6398 -0.4822 -0.4874
  131OSM     OF14151   5.137   0.346   6.531  0.0119  0.3260 -0.1507
  131OSM    C2F14152   5.178   0.181   6.702 -0.4526 -0.0452 -0.0815
  131OSM    H2F14153   5.270   0.118   6.690 -0.5947  0.1504 -2.6047
  131OSM    H2G14154   5.095   0.127   6.752 -0.4016 -0.3766 -0.3444
  131OSM    C3F14155   5.221   0.294   6.797  0.3403  0.5094 -0.7390
  131OSM    H3F14156   5.132   0.354   6.826 -1.3192 -0.8424 -2.9363
  131OSM    H3G14157   5.286   0.367   6.743  2.6409  0.4913  1.8803
  131OSM    C4F14158   5.299   0.240   6.917  0.4901  0.1778 -0.0438
  131OSM    H4F14159   5.362   0.325   6.952  1.2914 -0.6114  0.4261
  131OSM    H4G14160   5.372   0.160   6.895  0.3749  0.5100 -1.6923
  131OSM    C5F14161   5.217   0.193   7.033  0.1551  0.5629 -0.0711
  131OSM    H5F14162   5.148   0.109   7.012  2.7252 -1.7243  0.3690
  131OSM    H5G14163   5.153   0.272   7.080  0.8859  1.2923 -0.2829
  131OSM    C6F14164   5.312   0.149   7.147 -0.5467 -0.5565  0.1073
  131OSM    H6F14165   5.375   0.234   7.178 -0.4025 -0.6387  0.0383
  131OSM    H6G14166   5.381   0.066   7.119 -0.8795 -0.7610 -0.1164
  131OSM    C7F14167   5.230   0.097   7.264 -0.3910 -0.7986  0.3440
  131OSM    H7F14168   5.160   0.013   7.242 -1.6880  0.5485 -0.7878
  131OSM    H7G14169   5.171   0.180   7.309  0.6952  0.5583 -0.6889
  131OSM    C8F14170   5.322   0.037   7.368 -0.4033 -0.3476  0.5474
  131OSM    H8F14171   5.408   0.105   7.386 -0.5862  0.1738 -0.5130
  131OSM    H8G14172   5.349  -0.063   7.327 -1.7673 -0.2823 -0.5488
  131OSM    C9F14173   5.254   0.001   7.499  1.1239  0.5660 -0.8176
  131OSM    H9F14174   5.156  -0.050   7.493  2.0551 -1.4265  0.4044
  131OSM   C10F14175   5.296   0.054   7.613 -0.0953 -0.2946  0.1558
  131OSM   H10F14176   5.228   0.049   7.699 -0.8677 -2.4327 -0.5511
  131OSM   C11F14177   5.415   0.154   7.617 -0.3293  0.1906  0.5179
  131OSM   H11F14178   5.403   0.237   7.543 -0.8404 -0.9796 -0.7242
  131OSM   H11G14179   5.515   0.110   7.598 -1.2426 -0.1561 -3.9178
  131OSM   C12F14180   5.421   0.235   7.748 -0.5580  0.3269  0.4405
  131OSM   H12F14181   5.339   0.310   7.749  0.8888  1.9482  0.5078
  131OSM   H12G14182   5.504   0.309   7.750 -0.2700 -0.0176  2.8861
  131OSM   C13F14183   5.443   0.157   7.882  0.1001 -0.1559  0.8531
  131OSM   H13F14184   5.524   0.082   7.870 -0.2920 -0.4680  0.1067
  131OSM   H13G14185   5.347   0.104   7.899 -0.3212  0.3622  0.1006
  131OSM   C14F14186   5.453   0.252   8.003 -0.0185  0.1037 -0.4974
  131OSM   H14F14187   5.375   0.331   7.994  0.3755  0.6342  0.6964
  131OSM   H14G14188   5.546   0.313   7.997 -1.6721  2.6711 -1.0777
  131OSM   C15F14189   5.452   0.189   8.141 -0.0954 -0.5680 -0.2334
  131OSM   H15F14190   5.544   0.128   8.156 -0.9461 -1.9462 -0.6325
  131OSM   H15G14191   5.360   0.132   8.164 -1.0530  1.7931  2.0659
  131OSM   C16F14192   5.439   0.296   8.253  0.0259  0.5093 -0.8457
  131OSM   H16F14193   5.350   0.353   8.219  0.0343  1.0564  0.0353
  131OSM   H16G14194   5.531   0.357   8.263  0.2317 -0.0259  0.7126
  131OSM   C17F14195   5.416   0.232   8.390 -0.1765 -0.4699 -0.8085
  131OSM   H17F14196   5.323   0.172   8.384 -1.5467  1.3283  1.6709
  131OSM   H17G14197   5.396   0.307   8.469 -1.0173  0.6550 -2.0507
  131OSM   C18F14198   5.537   0.142   8.434 -0.2426 -0.4269  0.1062
  131OSM   H18F14199   5.628   0.200   8.408 -0.1028 -1.3399 -1.5107
  131OSM   H18G14200   5.557   0.043   8.388  1.2629 -0.2701  0.3931
  131OSM   H18H14201   5.530   0.135   8.544  0.7439 -1.7719  0.0938
  132OSM      N14202   0.020   0.827   6.175 -0.4517 -0.5554 -0.2626
  132OSM    C1514203  -0.128   0.845   6.159 -0.3357 -0.0233 -0.1873
  132OSM   H15A14204  -0.186   0.830   6.248 -0.5585  0.2115 -0.2936
  132OSM   H15B14205  -0.166   0.765   6.098  1.5330 -1.8538  0.9951
  132OSM   H15C14206  -0.138   0.943   6.115  1.1415  0.0527 -0.3882
  132OSM    C1414207   0.055   0.687   6.213 -0.6075 -0.5018 -0.1304
  132OSM   H14A14208   0.160   0.672   6.233 -0.2825 -0.8890 -2.0253
  132OSM   H14B14209   0.029   0.616   6.136 -0.3257  0.6182 -1.2758
  132OSM   H14C14210  -0.001   0.660   6.301  1.0260  1.6687  1.6412
  132OSM    C1314211   0.091   0.845   6.041  0.4197  0.1347 -0.1253
  132OSM   H13A14212   0.197   0.856   6.058  0.9955 -0.5360 -3.0014
  132OSM   H13B14213   0.064   0.941   6.000  1.4680  1.4797  2.2113
  132OSM   H13C14214   0.073   0.767   5.969 -0.8948 -1.0452  1.4298
  132OSM    C1214215   0.071   0.924   6.281 -1.1319  0.3519 -0.0878
  132OSM   H12A14216   0.061   1.021   6.234  2.4247  0.1760 -1.3707
  132OSM   H12B14217   0.178   0.914   6.292 -1.0775  0.6191 -0.3932
  132OSM    C1114218   0.002   0.921   6.418 -0.7070  0.5884 -0.0666
  132OSM   H11A14219   0.055   0.980   6.496  0.8560  0.1123 -0.7499
  132OSM   H11B14220   0.004   0.813   6.444  0.9228  1.0092  1.7217
  132OSM      P14221  -0.155   1.126   6.385 -0.2644  0.3145 -0.1461
  132OSM    O1314222  -0.057   1.180   6.294 -0.0862  0.1691  0.2469
  132OSM    O1414223  -0.298   1.148   6.362 -0.7602 -0.3852  0.2349
  132OSM    O1114224  -0.121   1.181   6.529  0.0061  0.3946  0.0392
  132OSM    O1214225  -0.136   0.966   6.404 -0.0309 -0.3595 -0.1912
  132OSM    C1S14226  -0.207   1.128   6.636 -0.1062  0.0052 -0.1458
  132OSM    H1S14227  -0.217   1.018   6.629 -2.6528  0.2694 -1.0741
  132OSM    H1T14228  -0.304   1.182   6.631  0.4395  0.9976 -0.0905
  132OSM     NF14229  -0.223   1.093   6.881 -0.8862  0.6323  0.2237
  132OSM    HNF14230  -0.292   1.143   6.933  0.8251  1.0587  2.1142
  132OSM    C2S14231  -0.139   1.157   6.780  0.0373 -0.1841  0.0459
  132OSM    H2S14232  -0.041   1.104   6.777 -0.8445 -1.8526  0.0402
  132OSM    C3S14233  -0.119   1.309   6.791  1.2533 -0.5403 -0.3720
  132OSM    H3S14234  -0.217   1.358   6.806  0.8577 -1.4343 -0.0421
  132OSM     O314235  -0.067   1.385   6.678 -0.6014  0.3621  0.0390
  132OSM    HO314236  -0.070   1.325   6.603  2.7700 -0.2900  0.3397
  132OSM    C4S14237  -0.045   1.345   6.916 -0.2077 -0.2963 -0.2882
  132OSM    H4S14238  -0.107   1.339   7.006  0.9661 -1.6525  0.4473
  132OSM    C5S14239   0.092   1.362   6.932  0.4845 -0.3064 -0.4979
  132OSM    H5S14240   0.162   1.351   6.847 -1.0071 -4.0566 -1.3645
  132OSM    C6S14241   0.164   1.402   7.059  0.5671  0.3193 -0.4045
  132OSM    H6S14242   0.231   1.488   7.036  1.0816 -0.0123 -0.1378
  132OSM    H6T14243   0.241   1.324   7.073 -1.2503 -1.1589  1.7340
  132OSM    C7S14244   0.077   1.420   7.187  0.3323 -0.0363 -0.0082
  132OSM    H7S14245   0.006   1.335   7.200  0.9913 -0.5819 -0.0011
  132OSM    H7T14246   0.015   1.512   7.174 -0.3299 -0.5282 -0.3718
  132OSM    C8S14247   0.156   1.423   7.322  0.0342 -0.3589  0.0630
  132OSM    H8S14248   0.248   1.483   7.302 -0.8085  1.2627  0.8979
  132OSM    H8T14249   0.190   1.324   7.359 -0.1486 -0.2153  0.6257
  132OSM    C9S14250   0.082   1.495   7.428  0.0323  0.4414 -0.3072
  132OSM    H9S14251  -0.021   1.455   7.433 -0.1382  0.9796  0.6693
  132OSM    H9T14252   0.086   1.605   7.409 -0.4343  0.4454 -0.3681
  132OSM   C10S14253   0.157   1.483   7.562  0.0688 -0.2721 -0.3685
  132OSM   H10S14254   0.268   1.493   7.552 -0.0524  2.2044  0.4731
  132OSM   H10T14255   0.147   1.385   7.613 -2.8698  0.5376  0.6826
  132OSM   C11S14256   0.111   1.593   7.658  0.0904  0.0715  0.1929
  132OSM   H11S14257  -0.000   1.594   7.663  0.0828  0.1751  0.0130
  132OSM   H11T14258   0.139   1.687   7.606  2.4190 -0.5447  0.3113
  132OSM   C12S14259   0.180   1.595   7.792 -0.3050 -0.1528 -0.1433
  132OSM   H12S14260   0.276   1.651   7.795  0.2761 -1.1937  2.1267
  132OSM   H12T14261   0.203   1.493   7.831 -1.2522 -0.2819  0.0905
  132OSM   C13S14262   0.085   1.647   7.902 -0.5945  1.0760  0.5825
  132OSM   H13S14263   0.010   1.568   7.923  1.1957  0.0742  3.5825
  132OSM   H13T14264   0.048   1.749   7.877 -1.8047  0.8116  1.2974
  132OSM   C14S14265   0.147   1.679   8.043  0.6510  0.7086  0.5416
  132OSM   H14S14266   0.222   1.758   8.021  0.5034  1.6251  3.1760
  132OSM   H14T14267   0.203   1.592   8.081 -0.1478 -0.1159 -0.1432
  132OSM   C15S14268   0.046   1.727   8.145 -0.2443  0.2231 -0.0400
  132OSM   H15S14269   0.003   1.824   8.111 -1.4710  0.4107  1.9687
  132OSM   H15T14270   0.105   1.755   8.235  0.5065 -0.7011 -0.2440
  132OSM   C16S14271  -0.051   1.619   8.191 -0.6454 -1.0098  0.2823
  132OSM   H16S14272  -0.004   1.551   8.265 -0.2413 -1.1198 -0.0752
  132OSM   H16T14273  -0.066   1.557   8.101 -0.7818 -2.5265  1.3429
  132OSM   C17S14274  -0.192   1.668   8.242  0.0570  0.1552  0.2077
  132OSM   H17S14275  -0.240   1.580   8.289 -0.4817 -0.1687 -0.9328
  132OSM   H17T14276  -0.262   1.707   8.165 -1.5067 -3.8504 -0.5106
  132OSM   C18S14277  -0.178   1.774   8.359  0.7590 -0.4590 -0.1860
  132OSM   H18S14278  -0.114   1.730   8.439 -1.6336 -1.7275  1.1105
  132OSM   H18T14279  -0.280   1.792   8.400  0.7686 -0.0245 -0.3545
  132OSM   H18U14280  -0.132   1.870   8.328  2.6354 -0.4727  2.3472
  132OSM    C1F14281  -0.226   0.959   6.891  0.3033  0.2853  0.6683
  132OSM     OF14282  -0.153   0.886   6.829 -0.2841 -0.4908  0.6932
  132OSM    C2F14283  -0.330   0.902   6.978 -0.8910 -1.0992 -0.1630
  132OSM    H2F14284  -0.345   0.796   6.949  0.7190 -1.5721  0.6538
  132OSM    H2G14285  -0.427   0.949   6.953 -1.4869 -2.0116  0.4314
  132OSM    C3F14286  -0.293   0.902   7.125 -0.1587  0.1410 -0.4220
  132OSM    H3F14287  -0.304   1.010   7.153 -0.7510  1.0559 -3.9473
  132OSM    H3G14288  -0.191   0.860   7.139 -0.2926  0.2624  1.0209
  132OSM    C4F14289  -0.396   0.822   7.217 -0.9339 -0.3334 -0.3657
  132OSM    H4F14290  -0.426   0.720   7.183 -3.7732  1.0784 -2.2569
  132OSM    H4G14291  -0.482   0.889   7.202 -0.6722 -0.0638 -0.6697
  132OSM    C5F14292  -0.353   0.822   7.366 -0.0623  0.4049 -0.1232
  132OSM    H5F14293  -0.313   0.922   7.392  1.0391 -0.1960  0.4897
  132OSM    H5G14294  -0.272   0.747   7.375 -0.4238 -0.1002 -0.9651
  132OSM    C6F14295  -0.468   0.787   7.459  0.3611  0.3008  0.2344
  132OSM    H6F14296  -0.508   0.688   7.428 -1.4456  0.2720  2.4957
  132OSM    H6G14297  -0.547   0.864   7.446  0.7288  0.6531  0.1005
  132OSM    C7F14298  -0.415   0.783   7.605 -0.0938 -0.1693  0.3885
  132OSM    H7F14299  -0.320   0.725   7.608  0.2441  0.4206  1.7201
  132OSM    H7G14300  -0.485   0.725   7.670 -1.1446  1.1065  0.4175
  132OSM    C8F14301  -0.401   0.925   7.660  0.1062 -0.4405  0.3239
  132OSM    H8F14302  -0.495   0.984   7.652  0.7240  0.3556 -1.5104
  132OSM    H8G14303  -0.332   0.983   7.593 -1.5880 -0.1690 -1.2297
  132OSM    C9F14304  -0.337   0.925   7.798 -0.2429 -0.0544 -0.0017
  132OSM    H9F14305  -0.229   0.938   7.815 -0.1224  0.7186 -1.3385
  132OSM   C10F14306  -0.400   0.910   7.915  0.1158  0.3074 -0.1396
  132OSM   H10F14307  -0.341   0.925   8.007 -0.1934  2.1270 -0.2234
  132OSM   C11F14308  -0.544   0.892   7.944  0.3020 -0.0548  0.4869
  132OSM   H11F14309  -0.565   0.792   7.989  0.3784 -0.8449 -1.1637
  132OSM   H11G14310  -0.614   0.901   7.858  1.5212  2.4184 -0.2995
  132OSM   C12F14311  -0.588   0.986   8.056 -0.4918  0.8002  0.1817
  132OSM   H12F14312  -0.699   0.976   8.059 -0.2307 -1.9870  2.4877
  132OSM   H12G14313  -0.559   1.089   8.026  0.3479  0.2719 -0.8625
  132OSM   C13F14314  -0.520   0.948   8.189  0.3776  0.5182 -0.3654
  132OSM   H13F14315  -0.440   1.023   8.208  1.8668 -1.1904  0.1865
  132OSM   H13G14316  -0.478   0.846   8.180  0.4195  0.6075 -1.2459
  132OSM   C14F14317  -0.612   0.958   8.308 -0.6574 -0.2225  0.2176
  132OSM   H14F14318  -0.707   0.902   8.299 -0.2901 -1.2440  2.3961
  132OSM   H14G14319  -0.641   1.062   8.336 -0.2818 -0.6193  2.1887
  132OSM   C15F14320  -0.553   0.900   8.439  0.7875  0.4468  0.2793
  132OSM   H15F14321  -0.520   0.795   8.429  1.1778  0.6383 -0.4898
  132OSM   H15G14322  -0.630   0.903   8.519  0.4420  2.8928 -0.0807
  132OSM   C16F14323  -0.439   0.985   8.508  0.9173 -0.2743 -0.5389
  132OSM   H16F14324  -0.480   1.087   8.526  0.6942 -0.5846  0.7856
  132OSM   H16G14325  -0.353   0.993   8.438  0.9371  1.0048 -0.3762
  132OSM   C17F14326  -0.383   0.934   8.637  0.6574  0.0688  0.6344
  132OSM   H17F14327  -0.338   0.832   8.643 -1.0138 -0.7487 -0.4196
  132OSM   H17G14328  -0.476   0.929   8.697 -0.4692 -0.2943 -1.1142
  132OSM   C18F14329  -0.300   1.042   8.716 -0.0241  0.4612 -0.0538
  132OSM   H18F14330  -0.197   1.059   8.677  0.1461 -1.4632 -0.4848
  132OSM   H18G14331  -0.294   1.010   8.823 -1.5318 -0.3907 -0.2174
  132OSM   H18H14332  -0.358   1.136   8.705 -1.5906 -0.3483  0.9837
  133OSM      N14333   0.496   1.097   6.008 -0.5937 -0.2744 -0.5782
  133OSM    C1514334   0.488   0.954   5.953 -0.1789  0.5012 -0.7205
  133OSM   H15A14335   0.453   0.954   5.850  1.9831 -1.7232 -1.5117
  133OSM   H15B14336   0.413   0.906   6.013 -0.2221  0.7178 -0.6019
  133OSM   H15C14337   0.582   0.902   5.948 -0.8499 -0.7951  0.1875
  133OSM    C1414338   0.614   1.168   5.942 -0.1234  0.0900  0.5270
  133OSM   H14A14339   0.627   1.270   5.976  0.2034  0.7835 -1.5855
  133OSM   H14B14340   0.607   1.178   5.835  0.1838  1.4161  0.6183
  133OSM   H14C14341   0.705   1.117   5.968 -0.0341 -0.0374 -0.0278
  133OSM    C1314342   0.377   1.180   5.971  0.2784  0.3350  0.2274
  133OSM   H13A14343   0.291   1.136   6.018  0.1246  1.9354  1.4910
  133OSM   H13B14344   0.369   1.186   5.863  2.9405 -0.9255 -0.0896
  133OSM   H13C14345   0.369   1.279   6.013  0.6574  0.8631 -0.9099
  133OSM    C1214346   0.512   1.095   6.160 -0.3696  0.3243 -0.1757
  133OSM   H12A14347   0.525   1.198   6.190 -0.9151  0.2207  0.4172
  133OSM   H12B14348   0.599   1.035   6.181 -1.6076 -2.0378 -1.5743
  133OSM    C1114349   0.402   1.043   6.250  1.3307  0.0775  0.4580
  133OSM   H11A14350   0.308   1.097   6.224  1.2231 -1.1341 -1.8359
  133OSM   H11B14351   0.414   1.073   6.356 -0.8888 -0.3862  0.8697
  133OSM      P14352   0.476   0.806   6.299  0.1115  0.1445  0.2576
  133OSM    O1314353   0.448   0.672   6.239  0.1100  0.6290  0.3749
  133OSM    O1414354   0.610   0.857   6.281 -0.0469  0.1824  0.0687
  133OSM    O1114355   0.443   0.802   6.452  0.0824 -0.7088 -0.5890
  133OSM    O1214356   0.378   0.908   6.231  0.3432  0.0779 -0.4080
  133OSM    C1S14357   0.360   0.701   6.508  0.4811 -0.2384 -0.6843
  133OSM    H1S14358   0.397   0.597   6.499 -2.4088 -2.0102  5.1718
  133OSM    H1T14359   0.260   0.711   6.461  0.0766  0.3367  0.2652
  133OSM     NF14360   0.278   0.625   6.729 -0.0176  0.5021 -0.2824
  133OSM    HNF14361   0.182   0.638   6.752  0.7094  1.0030  2.7836
  133OSM    C2S14362   0.345   0.736   6.656 -0.5722  0.1117  0.4572
  133OSM    H2S14363   0.448   0.745   6.696 -1.2312  2.2302  1.7834
  133OSM    C3S14364   0.276   0.870   6.680  0.6074 -0.7311 -0.0759
  133OSM    H3S14365   0.181   0.860   6.623 -0.0016 -0.1498  0.8301
  133OSM     O314366   0.345   0.982   6.622 -0.0620  0.3833 -0.0668
  133OSM    HO314367   0.397   0.946   6.550 -2.6469 -1.8790 -0.8858
  133OSM    C4S14368   0.244   0.905   6.825  0.0624 -0.2248  0.0376
  133OSM    H4S14369   0.138   0.905   6.854  0.2131  0.8799  0.6280
  133OSM    C5S14370   0.326   0.946   6.924 -0.8423 -0.3026  0.9410
  133OSM    H5S14371   0.432   0.972   6.907 -0.2036 -1.7969  2.5232
  133OSM    C6S14372   0.283   0.987   7.066 -0.6972  0.0043 -0.3066
  133OSM    H6S14373   0.328   1.084   7.097 -4.5768  1.6214  0.6017
  133OSM    H6T14374   0.313   0.909   7.139  0.0600  3.3227  3.1104
  133OSM    C7S14375   0.132   1.011   7.076 -0.2317 -0.5596  0.0298
  133OSM    H7S14376   0.074   0.917   7.062 -0.9854  0.2344 -2.4111
  133OSM    H7T14377   0.102   1.091   7.004  2.1910 -2.3867 -3.1387
  133OSM    C8S14378   0.097   1.063   7.215  0.0149 -0.4649  0.3381
  133OSM    H8S14379  -0.006   1.102   7.230  0.8856  2.3730 -0.5960
  133OSM    H8T14380   0.149   1.160   7.233 -1.4960  0.2334  1.0022
  133OSM    C9S14381   0.120   0.971   7.333  0.1018 -0.0451  1.5587
  133OSM    H9S14382   0.226   0.939   7.339  0.1937  0.3426  2.0213
  133OSM    H9T14383   0.068   0.873   7.324 -3.3916  1.6551  2.1019
  133OSM   C10S14384   0.088   1.033   7.472 -0.1868  0.3194  0.0825
  133OSM   H10S14385  -0.022   1.038   7.489 -0.0379  1.2374  0.8274
  133OSM   H10T14386   0.119   1.140   7.472 -1.6723  0.8103 -3.5298
  133OSM   C11S14387   0.154   0.953   7.587  0.1559  0.2620 -0.3164
  133OSM   H11S14388   0.248   0.906   7.551 -1.5829 -1.8668 -2.2241
  133OSM   H11T14389   0.085   0.867   7.607 -0.3265  0.6295 -0.4021
  133OSM   C12S14390   0.178   1.036   7.713  0.4164  1.0118 -0.1573
  133OSM   H12S14391   0.257   1.111   7.692 -0.3977  2.0332  0.3231
  133OSM   H12T14392   0.212   0.964   7.790  1.4728  0.3770 -1.2069
  133OSM   C13S14393   0.046   1.117   7.760 -0.3541 -0.1800 -0.8272
  133OSM   H13S14394  -0.045   1.054   7.763  1.7959 -3.3667  2.3147
  133OSM   H13T14395   0.018   1.188   7.680 -0.9808  0.9894  0.4067
  133OSM   C14S14396   0.071   1.194   7.895  0.1983  0.0615  0.1253
  133OSM   H14S14397  -0.023   1.236   7.937  0.3978  0.4243  0.2080
  133OSM   H14T14398   0.135   1.283   7.877  0.7842 -0.4332 -0.2391
  133OSM   C15S14399   0.144   1.107   7.994  0.4658  0.2399  0.8236
  133OSM   H15S14400   0.250   1.109   7.962 -0.0763 -0.9983 -1.1066
  133OSM   H15T14401   0.104   1.004   8.000  0.1540  0.2185 -1.2818
  133OSM   C16S14402   0.135   1.168   8.132  1.0224  0.0144  0.1598
  133OSM   H16S14403   0.030   1.170   8.167  1.2115  2.6831  0.7235
  133OSM   H16T14404   0.168   1.272   8.112  0.0165 -0.3100 -3.5460
  133OSM   C17S14405   0.224   1.093   8.237 -0.4495 -0.1686 -0.0503
  133OSM   H17S14406   0.193   0.987   8.245  0.1548 -0.3643 -0.2869
  133OSM   H17T14407   0.201   1.135   8.338 -1.9523  1.2605 -0.9581
  133OSM   C18S14408   0.376   1.115   8.216  0.2606 -0.1861 -1.0440
  133OSM   H18S14409   0.401   1.224   8.222 -0.2620 -0.0663 -1.0483
  133OSM   H18T14410   0.406   1.077   8.116  3.9137  0.0834 -0.1459
  133OSM   H18U14411   0.428   1.070   8.304 -1.6923 -1.8030 -0.6918
  133OSM    C1F14412   0.338   0.518   6.773  0.0177 -0.0912  0.3773
  133OSM     OF14413   0.456   0.510   6.758 -0.2049 -0.4223 -0.4506
  133OSM    C2F14414   0.251   0.403   6.805 -0.0455  0.6373 -0.5239
  133OSM    H2F14415   0.210   0.350   6.717 -0.7834 -0.7994  0.6513
  133OSM    H2G14416   0.169   0.444   6.868 -0.1169  0.7180 -0.6715
  133OSM    C3F14417   0.336   0.296   6.889  0.3137 -0.1955  0.0923
  133OSM    H3F14418   0.373   0.339   6.984 -1.6042  1.8669 -0.0708
  133OSM    H3G14419   0.429   0.268   6.834 -0.7771 -0.0333 -1.8737
  133OSM    C4F14420   0.259   0.171   6.917  0.3712  0.6502  0.4768
  133OSM    H4F14421   0.262   0.112   6.822  0.9722  2.5321 -0.6862
  133OSM    H4G14422   0.152   0.180   6.947  0.4957  0.5631  0.9508
  133OSM    C5F14423   0.326   0.082   7.023 -0.5640  0.2331  0.0200
  133OSM    H5F14424   0.437   0.093   7.018 -0.3575 -2.1856 -1.5960
  133OSM    H5G14425   0.291  -0.021   7.001 -1.4566  0.0174  2.3096
  133OSM    C6F14426   0.292   0.126   7.171 -0.4940  0.0771  0.2287
  133OSM    H6F14427   0.183   0.144   7.182 -0.5058  0.4779 -0.4811
  133OSM    H6G14428   0.352   0.216   7.195 -3.0430  1.6101  1.0651
  133OSM    C7F14429   0.332   0.006   7.266 -1.1949  0.1922  0.0784
  133OSM    H7F14430   0.443  -0.004   7.267 -0.9761  1.8789 -1.8438
  133OSM    H7G14431   0.278  -0.088   7.244 -0.1712 -0.2652 -0.5586
  133OSM    C8F14432   0.281   0.040   7.408 -0.1350  0.5708  0.1211
  133OSM    H8F14433   0.268  -0.058   7.459 -1.7462 -0.8449 -2.8942
  133OSM    H8G14434   0.182   0.089   7.396  1.2968  2.8089 -2.9439
  133OSM    C9F14435   0.372   0.131   7.487 -0.2442  0.3435 -0.4360
  133OSM    H9F14436   0.393   0.220   7.426 -0.6559 -0.7180 -2.1693
  133OSM   C10F14437   0.405   0.116   7.617  0.7458  0.7418  0.4479
  133OSM   H10F14438   0.473   0.183   7.671  3.6148 -1.2490 -0.5619
  133OSM   C11F14439   0.366   0.000   7.706 -0.0588 -0.4494  0.0113
  133OSM   H11F14440   0.364  -0.087   7.638  0.7030  0.9742 -1.8773
  133OSM   H11G14441   0.260   0.024   7.731  0.5939  0.0362  2.4471
  133OSM   C12F14442   0.445  -0.023   7.836 -0.5734 -0.4534 -0.9802
  133OSM   H12F14443   0.439   0.062   7.908  2.1248 -1.7833  0.9375
  133OSM   H12G14444   0.556  -0.016   7.828 -0.5389 -1.5732 -1.5362
  133OSM   C13F14445   0.413  -0.164   7.901  0.7965 -0.5497 -0.1073
  133OSM   H13F14446   0.428  -0.236   7.817  2.3889 -0.7075  0.3058
  133OSM   H13G14447   0.305  -0.162   7.925  0.3173 -0.4811 -2.1881
  133OSM   C14F14448   0.486  -0.194   8.034 -0.2628 -0.0009 -0.2536
  133OSM   H14F14449   0.448  -0.119   8.107 -1.6795 -0.9283 -0.0179
  133OSM   H14G14450   0.592  -0.162   8.031  0.1037 -1.2570 -0.8633
  133OSM   C15F14451   0.464  -0.342   8.078  0.3198 -0.3749 -0.8744
  133OSM   H15F14452   0.512  -0.411   8.005  1.1675  2.1228 -2.7425
  133OSM   H15G14453   0.357  -0.373   8.087  0.1836  0.5045  0.8242
  133OSM   C16F14454   0.531  -0.360   8.215 -0.3711 -0.2529  0.0379
  133OSM   H16F14455   0.466  -0.297   8.278 -0.6051 -1.0123  0.5615
  133OSM   H16G14456   0.633  -0.316   8.216  0.4127 -1.9721 -1.6302
  133OSM   C17F14457   0.531  -0.509   8.257  0.1311 -1.4404 -0.7454
  133OSM   H17F14458   0.598  -0.559   8.183 -0.4975  1.3238 -3.3049
  133OSM   H17G14459   0.430  -0.555   8.258 -0.5664  0.0715  0.4572
  133OSM   C18F14460   0.598  -0.522   8.390  0.4644  0.3957  0.4271
  133OSM   H18F14461   0.689  -0.459   8.382 -0.9774  2.1991 -2.3554
  133OSM   H18G14462   0.648  -0.620   8.405 -0.5460 -0.1714  0.1488
  133OSM   H18H14463   0.541  -0.479   8.476  1.2588 -0.0768  1.1965
  134OSM      N14464   1.907   4.056   6.327 -0.1650  1.0093  0.8704
  134OSM    C1514465   1.919   4.079   6.185  0.4635 -0.2811  0.2877
  134OSM   H15A14466   1.830   4.071   6.125  0.2439 -0.7938  0.6747
  134OSM   H15B14467   1.974   4.002   6.134 -0.5394 -0.8879  0.1045
  134OSM   H15C14468   1.964   4.174   6.160 -0.2868  0.5161  1.9175
  134OSM    C1414469   2.045   4.071   6.394 -0.2952  0.1289 -0.3168
  134OSM   H14A14470   2.030   4.039   6.496  2.0469 -1.7737 -0.5168
  134OSM   H14B14471   2.077   4.172   6.373 -0.6176  0.3756  0.3608
  134OSM   H14C14472   2.107   3.991   6.356  0.1516 -0.3016  1.2991
  134OSM    C1314473   1.817   4.166   6.381  0.5361 -0.0478  0.6214
  134OSM   H13A14474   1.796   4.142   6.484  2.1254  0.1615  1.0177
  134OSM   H13B14475   1.716   4.154   6.344  0.2504  4.6959 -0.5732
  134OSM   H13C14476   1.860   4.265   6.368  1.1327  0.0269  2.9529
  134OSM    C1214477   1.841   3.920   6.360  0.5404  0.0426  0.2866
  134OSM   H12A14478   1.899   3.844   6.310 -0.0273 -0.1390 -0.1038
  134OSM   H12B14479   1.742   3.921   6.316  0.3143 -1.5059  0.7263
  134OSM    C1114480   1.813   3.883   6.506 -0.2151 -0.1037 -0.4893
  134OSM   H11A14481   1.906   3.902   6.563 -0.3837  1.2176 -0.6457
  134OSM   H11B14482   1.803   3.774   6.527  1.3535 -0.0271  0.7229
  134OSM      P14483   1.562   3.925   6.568 -0.0753  0.2429  0.1163
  134OSM    O1314484   1.483   4.028   6.636  0.0421  0.2725 -0.2358
  134OSM    O1414485   1.521   3.901   6.428  0.3296  0.2477 -0.5118
  134OSM    O1114486   1.549   3.785   6.646 -0.6869 -0.0641 -0.2130
  134OSM    O1214487   1.713   3.967   6.568 -0.1537  0.5627 -0.2633
  134OSM    C1S14488   1.637   3.748   6.757 -0.1881  0.2249  1.0917
  134OSM    H1S14489   1.603   3.812   6.842  0.8090  1.5139  0.5320
  134OSM    H1T14490   1.743   3.773   6.737 -0.3584  0.3313  0.3202
  134OSM     NF14491   1.684   3.559   6.927  0.3016  0.1543  0.0860
  134OSM    HNF14492   1.784   3.560   6.928  0.4083 -1.0056 -3.3122
  134OSM    C2S14493   1.633   3.592   6.790  0.4011 -0.2926  0.0484
  134OSM    H2S14494   1.524   3.572   6.787 -0.1249  2.4094 -0.7282
  134OSM    C3S14495   1.699   3.508   6.673  0.1905 -0.2036 -0.1137
  134OSM    H3S14496   1.809   3.526   6.662  0.2976 -1.7499 -1.8422
  134OSM     O314497   1.637   3.537   6.544 -0.2753  0.5045  0.0470
  134OSM    HO314498   1.591   3.619   6.564 -0.0752  0.4420  0.7742
  134OSM    C4S14499   1.685   3.357   6.713  0.2124  0.9065  0.4186
  134OSM    H4S14500   1.578   3.344   6.738 -0.2891  0.3172 -1.9002
  134OSM    C5S14501   1.776   3.258   6.717  0.5938  0.2937  0.5498
  134OSM    H5S14502   1.878   3.280   6.681  0.3745  1.8404  0.8269
  134OSM    C6S14503   1.734   3.119   6.758 -0.0924  0.1861 -0.5551
  134OSM    H6S14504   1.770   3.046   6.682  0.3430  0.6444 -0.7964
  134OSM    H6T14505   1.625   3.105   6.770  0.6251 -6.0491  0.2625
  134OSM    C7S14506   1.768   3.095   6.908  0.0617 -0.6651  0.0725
  134OSM    H7S14507   1.723   2.996   6.931  1.6460 -1.3607  0.2176
  134OSM    H7T14508   1.718   3.166   6.976  0.4031  0.4543 -0.8212
  134OSM    C8S14509   1.919   3.118   6.945 -0.1321 -0.3643  0.0101
  134OSM    H8S14510   1.948   3.224   6.925  1.1541 -0.4238  1.4931
  134OSM    H8T14511   1.977   3.055   6.874 -0.0024 -0.2789  0.0419
  134OSM    C9S14512   1.960   3.068   7.089 -0.6036 -0.3117  0.1242
  134OSM    H9S14513   2.070   3.083   7.088 -0.7835  1.0279 -1.2950
  134OSM    H9T14514   1.936   2.960   7.106 -1.7469 -0.0727  0.0563
  134OSM   C10S14515   1.889   3.147   7.196  0.1148  0.6738  0.0948
  134OSM   H10S14516   1.781   3.136   7.169  0.5752  1.2953 -2.0994
  134OSM   H10T14517   1.909   3.256   7.187 -1.7578  0.9438 -1.1531
  134OSM   C11S14518   1.907   3.111   7.346 -0.2038 -0.1309  0.2954
  134OSM   H11S14519   2.016   3.130   7.362  0.2387 -1.2679 -1.2078
  134OSM   H11T14520   1.879   3.007   7.370 -0.8860  0.5736  2.6406
  134OSM   C12S14521   1.820   3.188   7.445  0.1113  0.4622  0.1647
  134OSM   H12S14522   1.718   3.145   7.449  0.2046  0.3582  1.5662
  134OSM   H12T14523   1.822   3.292   7.405  0.0863  0.5981  0.5131
  134OSM   C13S14524   1.884   3.175   7.585 -0.7220  0.3090  0.0285
  134OSM   H13S14525   1.974   3.239   7.601 -0.2253  0.0058 -1.4317
  134OSM   H13T14526   1.923   3.072   7.601 -2.0735 -0.0143  1.3336
  134OSM   C14S14527   1.775   3.209   7.682  0.3202 -0.4654 -0.5272
  134OSM   H14S14528   1.690   3.140   7.664  0.1423 -1.0005  2.2152
  134OSM   H14T14529   1.739   3.313   7.668  2.4915  0.4726  0.5858
  134OSM   C15S14530   1.828   3.168   7.822 -0.2165  0.3378 -0.2569
  134OSM   H15S14531   1.935   3.196   7.832  0.5933 -2.0010 -2.0435
  134OSM   H15T14532   1.829   3.058   7.829  1.4926  0.1971 -2.2370
  134OSM   C16S14533   1.745   3.223   7.933  0.2885  0.7100  0.5349
  134OSM   H16S14534   1.637   3.209   7.911  0.8303 -1.9213 -0.6349
  134OSM   H16T14535   1.761   3.331   7.951 -0.0191  0.4499  2.4594
  134OSM   C17S14536   1.767   3.142   8.060  0.2991  0.7015  0.0950
  134OSM   H17S14537   1.871   3.153   8.098  0.3425  1.3018 -0.1919
  134OSM   H17T14538   1.746   3.035   8.039  0.9543  0.7966 -1.1262
  134OSM   C18S14539   1.681   3.199   8.172 -0.4183 -0.0220 -0.2402
  134OSM   H18S14540   1.672   3.309   8.182  2.2545  0.1039  1.3235
  134OSM   H18T14541   1.722   3.174   8.272  0.5523  0.9612 -0.3914
  134OSM   H18U14542   1.577   3.162   8.157  0.0864 -0.7602 -1.9290
  134OSM    C1F14543   1.617   3.589   7.033  0.1325  0.1240  0.3514
  134OSM     OF14544   1.511   3.644   7.022 -0.2033 -0.0580  0.2486
  134OSM    C2F14545   1.674   3.545   7.168  0.3293 -0.7379  0.2521
  134OSM    H2F14546   1.784   3.561   7.171  0.0447  1.7056 -1.0454
  134OSM    H2G14547   1.648   3.437   7.180  1.4896 -0.9276  1.1107
  134OSM    C3F14548   1.612   3.630   7.281  0.0506 -0.2743  0.0911
  134OSM    H3F14549   1.505   3.603   7.289  0.0041 -0.4722 -1.1804
  134OSM    H3G14550   1.618   3.740   7.266  0.5211  0.2430  3.5456
  134OSM    C4F14551   1.678   3.596   7.417  0.7048 -0.3492 -0.0326
  134OSM    H4F14552   1.774   3.645   7.443  0.1765  0.9055 -0.3965
  134OSM    H4G14553   1.704   3.489   7.424 -0.3809 -0.5810  0.5094
  134OSM    C5F14554   1.590   3.641   7.544 -0.1296 -0.2647  0.0113
  134OSM    H5F14555   1.493   3.593   7.522 -1.7589  2.1789  1.6145
  134OSM    H5G14556   1.584   3.752   7.542 -2.3583 -0.3205  1.8290
  134OSM    C6F14557   1.642   3.586   7.683 -0.3802 -0.1891  0.3293
  134OSM    H6F14558   1.749   3.557   7.675 -0.7480 -1.5410  0.2199
  134OSM    H6G14559   1.575   3.503   7.713  1.1966 -0.4916  3.2165
  134OSM    C7F14560   1.626   3.699   7.787 -0.0181  0.2489  0.1248
  134OSM    H7F14561   1.518   3.724   7.793 -0.6720 -2.2707 -0.4388
  134OSM    H7G14562   1.685   3.788   7.756 -2.3509  2.0232  0.5813
  134OSM    C8F14563   1.671   3.648   7.920  0.6109 -0.6378  0.8569
  134OSM    H8F14564   1.700   3.735   7.983 -3.5620  1.0882  0.5150
  134OSM    H8G14565   1.759   3.582   7.903  0.2372 -1.2782  1.3975
  134OSM    C9F14566   1.564   3.559   7.985  0.9840  0.5460  0.7823
  134OSM    H9F14567   1.487   3.515   7.920  0.4964  0.5301  1.3673
  134OSM   C10F14568   1.556   3.540   8.120 -0.7188 -0.2690 -0.1336
  134OSM   H10F14569   1.470   3.491   8.169  0.4475 -0.2009  2.0608
  134OSM   C11F14570   1.662   3.596   8.214  0.0548  0.3985  0.0235
  134OSM   H11F14571   1.735   3.671   8.177 -1.3015  0.6611 -2.1906
  134OSM   H11G14572   1.728   3.513   8.247  2.4863  1.6100 -1.6217
  134OSM   C12F14573   1.611   3.632   8.359 -0.1292  1.0945  0.5855
  134OSM   H12F14574   1.515   3.688   8.355 -0.7411 -0.0369 -0.8374
  134OSM   H12G14575   1.664   3.717   8.408  1.6292  0.3490  0.0249
  134OSM   C13F14576   1.613   3.510   8.456  0.3883  0.2773 -0.2556
  134OSM   H13F14577   1.708   3.453   8.450 -1.3075 -2.8409  1.2960
  134OSM   H13G14578   1.525   3.445   8.438  1.1361 -1.5754  2.4176
  134OSM   C14F14579   1.584   3.552   8.603  0.2003  0.1414  0.5176
  134OSM   H14F14580   1.653   3.635   8.629  0.5831 -0.4802  1.5377
  134OSM   H14G14581   1.607   3.462   8.664 -3.3489 -0.0362  1.7031
  134OSM   C15F14582   1.439   3.598   8.617  0.1116  0.1668 -0.3896
  134OSM   H15F14583   1.373   3.526   8.564 -1.1294  0.7650  0.3106
  134OSM   H15G14584   1.423   3.703   8.584 -0.1044  0.2905  0.1042
  134OSM   C16F14585   1.388   3.590   8.760 -0.6230 -0.6795 -0.0694
  134OSM   H16F14586   1.448   3.654   8.828 -0.3369 -1.1930  0.1632
  134OSM   H16G14587   1.411   3.491   8.806  0.5754 -0.4515 -0.1603
  134OSM   C17F14588   1.244   3.637   8.767 -0.2668  0.1200 -0.0457
  134OSM   H17F14589   1.181   3.581   8.694 -0.0017  0.5967 -0.6507
  134OSM   H17G14590   1.235   3.746   8.746 -0.7102  0.2560  0.8288
  134OSM   C18F14591   1.190   3.597   8.902  0.7276 -0.0966  0.2824
  134OSM   H18F14592   1.240   3.654   8.982  2.2106 -0.0797 -0.6314
  134OSM   H18G14593   1.213   3.490   8.925  0.5339 -0.4062 -0.8842
  134OSM   H18H14594   1.081   3.618   8.911  0.4288 -1.8047  0.8983
  135OSM      N14595   1.328   3.514   6.204  0.1567  0.8947 -0.4218
  135OSM    C1514596   1.427   3.625   6.166  0.1122 -0.0833  0.3128
  135OSM   H15A14597   1.420   3.645   6.060  0.4355  2.9586  0.8070
  135OSM   H15B14598   1.529   3.604   6.196 -0.9070 -2.3891  2.3045
  135OSM   H15C14599   1.401   3.717   6.216 -0.2489 -0.3956  0.7038
  135OSM    C1414600   1.187   3.554   6.170 -0.0610  0.5026 -0.2018
  135OSM   H14A14601   1.114   3.483   6.205 -0.6399  0.4688 -1.4487
  135OSM   H14B14602   1.172   3.595   6.071 -0.4887 -2.4226 -1.4238
  135OSM   H14C14603   1.164   3.636   6.236 -1.0427 -1.1986  1.6286
  135OSM    C1314604   1.370   3.384   6.127 -0.2995  0.4455 -0.7956
  135OSM   H13A14605   1.303   3.301   6.142  0.4626 -0.1586 -0.6991
  135OSM   H13B14606   1.470   3.358   6.159 -0.7457  0.9720  1.0955
  135OSM   H13C14607   1.380   3.400   6.020  0.4356  2.7059 -0.4126
  135OSM    C1214608   1.343   3.475   6.356 -0.3320 -0.3624  0.6164
  135OSM   H12A14609   1.447   3.450   6.371  0.1062  1.1333  0.2031
  135OSM   H12B14610   1.284   3.388   6.377  0.5921 -1.2380 -0.3755
  135OSM    C1114611   1.302   3.587   6.459 -0.6723 -1.2113 -0.4684
  135OSM   H11A14612   1.356   3.682   6.436 -0.6590 -1.8390 -3.1441
  135OSM   H11B14613   1.327   3.544   6.559 -0.4593  3.1288  1.4633
  135OSM      P14614   1.095   3.727   6.543  0.2169 -0.3080 -0.1698
  135OSM    O1314615   1.176   3.852   6.530  0.0683  0.0248 -0.9549
  135OSM    O1414616   0.950   3.742   6.518 -0.2142  0.1061  0.0497
  135OSM    O1114617   1.113   3.668   6.690 -0.6652  0.4026  0.4959
  135OSM    O1214618   1.159   3.616   6.454 -0.2212 -0.2564  0.1014
  135OSM    C1S14619   1.230   3.707   6.766 -0.5585 -0.0831  0.9622
  135OSM    H1S14620   1.280   3.796   6.722  0.7281 -0.9464  0.6550
  135OSM    H1T14621   1.304   3.624   6.762 -1.3857 -0.7730 -0.5693
  135OSM     NF14622   1.296   3.811   6.985 -0.1280 -0.7687  0.1782
  135OSM    HNF14623   1.363   3.757   7.036  0.5033 -0.2674 -0.1145
  135OSM    C2S14624   1.194   3.732   6.912  0.0688 -1.2857  0.1377
  135OSM    H2S14625   1.103   3.797   6.907  0.9822  0.0387  0.4242
  135OSM    C3S14626   1.136   3.603   6.986 -1.0093 -0.0892  0.3434
  135OSM    H3S14627   1.216   3.525   6.988 -0.8160  0.0985  0.0523
  135OSM     O314628   1.038   3.545   6.901  0.1289 -0.1345 -0.5702
  135OSM    HO314629   1.065   3.569   6.813  0.0121 -2.7016 -1.3459
  135OSM    C4S14630   1.082   3.636   7.120  0.6015  0.0808 -0.3572
  135OSM    H4S14631   0.984   3.684   7.115  0.0867 -0.6876  1.6587
  135OSM    C5S14632   1.135   3.613   7.244 -0.2670  0.2392  0.2676
  135OSM    H5S14633   1.232   3.564   7.262 -1.5946 -3.1417 -1.4886
  135OSM    C6S14634   1.068   3.656   7.371 -0.3767  0.6534  0.8121
  135OSM    H6S14635   0.962   3.622   7.372 -0.5506  0.9829 -1.9506
  135OSM    H6T14636   1.065   3.767   7.377 -4.2678  0.7941 -2.1606
  135OSM    C7S14637   1.133   3.609   7.504  0.3777  0.1960 -0.4020
  135OSM    H7S14638   1.244   3.606   7.502  0.3670 -0.0920 -0.5743
  135OSM    H7T14639   1.096   3.505   7.519 -0.5703  0.8170  1.8161
  135OSM    C8S14640   1.093   3.687   7.634 -0.1845 -0.1599 -0.2540
  135OSM    H8S14641   0.988   3.671   7.666  0.2194 -1.3125  0.5012
  135OSM    H8T14642   1.105   3.794   7.606  0.8193  0.5600  2.7841
  135OSM    C9S14643   1.180   3.642   7.752  0.1369 -0.4575 -0.5378
  135OSM    H9S14644   1.281   3.634   7.708  0.6316  0.6260  0.3945
  135OSM    H9T14645   1.156   3.539   7.785 -1.2230  0.0192  0.0198
  135OSM   C10S14646   1.174   3.732   7.879 -0.7107  0.1021 -0.7278
  135OSM   H10S14647   1.170   3.838   7.846 -0.0522 -0.3839 -2.4454
  135OSM   H10T14648   1.261   3.712   7.944 -1.3371 -1.4074 -0.3412
  135OSM   C11S14649   1.051   3.707   7.963 -0.2360 -0.4419  0.3935
  135OSM   H11S14650   1.041   3.598   7.978  1.3423 -0.6015  0.4079
  135OSM   H11T14651   0.956   3.735   7.912  0.4389 -1.8548 -1.7068
  135OSM   C12S14652   1.053   3.775   8.094 -0.1534 -0.2961  0.4989
  135OSM   H12S14653   1.027   3.880   8.069  0.6790  0.0225  0.9616
  135OSM   H12T14654   1.150   3.766   8.148  0.1854  2.4345  0.4322
  135OSM   C13S14655   0.946   3.732   8.187  0.2533 -0.2448 -0.7216
  135OSM   H13S14656   0.950   3.623   8.209 -2.2934 -0.6957 -2.2183
  135OSM   H13T14657   0.848   3.758   8.140  0.6690  0.2263 -1.3268
  135OSM   C14S14658   0.953   3.812   8.317  0.6729  0.4168 -0.4493
  135OSM   H14S14659   0.979   3.919   8.303 -1.0078  1.0760  1.3301
  135OSM   H14T14660   1.037   3.773   8.379  0.2118  0.5979  0.2839
  135OSM   C15S14661   0.824   3.801   8.399  0.2040  0.1441 -0.0938
  135OSM   H15S14662   0.813   3.691   8.415 -1.6872  0.3980  0.4243
  135OSM   H15T14663   0.733   3.816   8.337 -0.2345 -0.8159  0.3070
  135OSM   C16S14664   0.823   3.888   8.527  0.3694  0.7514  0.1703
  135OSM   H16S14665   0.734   3.864   8.589 -0.0867  0.9274 -0.4074
  135OSM   H16T14666   0.814   3.994   8.496  0.9919  0.7179 -0.1223
  135OSM   C17S14667   0.946   3.864   8.617  0.1335 -0.9218 -0.0886
  135OSM   H17S14668   1.044   3.887   8.571 -0.9561  1.4275 -1.2801
  135OSM   H17T14669   0.961   3.754   8.631  1.9590 -0.9107 -1.8339
  135OSM   C18S14670   0.932   3.941   8.744  0.3209 -0.4581 -0.2244
  135OSM   H18S14671   1.004   3.899   8.817 -1.7660 -3.1371  0.4034
  135OSM   H18T14672   0.832   3.926   8.790  0.3004  0.2652 -0.0234
  135OSM   H18U14673   0.934   4.052   8.735  0.1439 -0.5039 -0.8990
  135OSM    C1F14674   1.310   3.941   6.956  0.6136 -0.3328 -0.0215
  135OSM     OF14675   1.239   3.997   6.871 -0.2908  0.7837 -0.3333
  135OSM    C2F14676   1.419   4.019   7.028  0.6154 -0.5038  0.6551
  135OSM    H2F14677   1.442   4.114   6.974 -0.3204 -0.6537 -0.0326
  135OSM    H2G14678   1.506   3.950   7.028 -0.5835 -2.0741 -0.7604
  135OSM    C3F14679   1.394   4.041   7.179 -0.2183 -0.1278  0.1367
  135OSM    H3F14680   1.385   3.942   7.229  0.1953 -1.2555 -1.9560
  135OSM    H3G14681   1.296   4.090   7.199 -0.3693  0.4965 -1.9837
  135OSM    C4F14682   1.505   4.128   7.245  0.7336  1.4907 -0.1859
  135OSM    H4F14683   1.523   4.221   7.186  2.1793  1.1952 -0.2315
  135OSM    H4G14684   1.606   4.083   7.247  0.4815  0.8851 -1.1791
  135OSM    C5F14685   1.459   4.161   7.391  0.3464  0.8375  0.0404
  135OSM    H5F14686   1.353   4.196   7.388 -0.2260 -0.8967 -0.7823
  135OSM    H5G14687   1.529   4.238   7.429 -0.1361  1.2283  0.1428
  135OSM    C6F14688   1.483   4.051   7.500 -0.4832  0.2601  0.4803
  135OSM    H6F14689   1.592   4.053   7.521 -0.1538 -2.0489 -0.9167
  135OSM    H6G14690   1.467   3.949   7.460 -1.0959 -0.1508  1.7217
  135OSM    C7F14691   1.403   4.088   7.627  0.0191  0.0559  0.2775
  135OSM    H7F14692   1.295   4.083   7.603 -0.0594  1.3202  0.3486
  135OSM    H7G14693   1.415   4.193   7.662 -0.8487 -0.2561  1.5621
  135OSM    C8F14694   1.427   3.987   7.738 -0.6803 -0.3033 -0.0578
  135OSM    H8F14695   1.439   3.884   7.698  2.4457 -0.3134  0.7939
  135OSM    H8G14696   1.341   3.981   7.809 -0.0321 -0.4155  0.7312
  135OSM    C9F14697   1.554   4.025   7.809  0.3644  0.8996  0.3576
  135OSM    H9F14698   1.629   4.080   7.749 -1.4407  1.7711 -1.1672
  135OSM   C10F14699   1.583   4.003   7.937 -0.1960  0.7340 -0.0893
  135OSM   H10F14700   1.684   4.027   7.971 -0.2789  0.4245  0.3689
  135OSM   C11F14701   1.489   3.948   8.038  0.0807  0.1137 -0.0016
  135OSM   H11F14702   1.546   3.894   8.117 -1.6199 -0.5449  0.8019
  135OSM   H11G14703   1.411   3.877   8.003 -1.3236  0.8742  1.4818
  135OSM   C12F14704   1.424   4.066   8.109  0.2652 -0.5041  0.1937
  135OSM   H12F14705   1.375   4.131   8.033  1.7893  0.4941  0.0357
  135OSM   H12G14706   1.506   4.128   8.151 -0.5167  1.6214 -1.2872
  135OSM   C13F14707   1.324   4.025   8.215  0.6838 -0.1134  0.0817
  135OSM   H13F14708   1.374   3.958   8.288 -0.3680 -1.4318 -0.4002
  135OSM   H13G14709   1.227   3.984   8.178  1.3508 -1.6208 -0.0219
  135OSM   C14F14710   1.283   4.153   8.288 -0.8084 -0.1515  0.1216
  135OSM   H14F14711   1.255   4.231   8.214 -0.6305 -2.1452 -2.1214
  135OSM   H14G14712   1.379   4.193   8.326 -1.1029 -0.5469  1.2891
  135OSM   C15F14713   1.184   4.129   8.402 -0.2692  0.5339 -0.2078
  135OSM   H15F14714   1.190   4.036   8.462 -0.7814  1.7767  1.8294
  135OSM   H15G14715   1.094   4.116   8.338  0.0955  0.2782 -0.6628
  135OSM   C16F14716   1.154   4.249   8.498 -0.7090 -0.4649 -0.1158
  135OSM   H16F14717   1.073   4.219   8.568 -0.4173 -3.7715 -1.1202
  135OSM   H16G14718   1.118   4.334   8.437  1.3407 -0.1893 -0.9659
  135OSM   C17F14719   1.263   4.287   8.593 -0.4453  0.3919 -0.3753
  135OSM   H17F14720   1.223   4.375   8.648 -0.1411 -0.8941  1.9851
  135OSM   H17G14721   1.354   4.332   8.548  0.1924  0.0642  0.5690
  135OSM   C18F14722   1.316   4.188   8.691  0.6344  0.7915  0.0623
  135OSM   H18F14723   1.407   4.215   8.750  2.1412 -1.3739 -1.1797
  135OSM   H18G14724   1.350   4.106   8.623  0.1978  0.7157 -0.0628
  135OSM   H18H14725   1.237   4.134   8.747  2.1097 -1.7230 -0.1529
  136OSM      N14726   5.824   5.386   5.751 -0.3176 -0.1300 -0.7304
  136OSM    C1514727   5.749   5.254   5.733  0.3697 -0.7971  0.1151
  136OSM   H15A14728   5.696   5.257   5.639 -1.3842  1.0364  1.1184
  136OSM   H15B14729   5.677   5.242   5.812 -0.4813  0.1877 -0.4964
  136OSM   H15C14730   5.814   5.168   5.739 -0.5043 -1.4508  0.2017
  136OSM    C1414731   5.930   5.394   5.647 -0.2140  0.6855 -0.7760
  136OSM   H14A14732   5.890   5.407   5.547 -4.7699  2.9946  1.2278
  136OSM   H14B14733   6.000   5.312   5.652 -1.3629 -0.2462  0.2464
  136OSM   H14C14734   5.990   5.483   5.659  0.8049 -0.2488  1.2130
  136OSM    C1314735   5.729   5.508   5.745  0.3551 -0.0443  0.1155
  136OSM   H13A14736   5.670   5.488   5.657 -0.8745  1.1317  0.6544
  136OSM   H13B14737   5.776   5.605   5.744 -0.1511  0.2158  0.9572
  136OSM   H13C14738   5.662   5.500   5.829  0.9681  0.4285  0.6598
  136OSM    C1214739   5.901   5.389   5.884 -0.6921 -0.6478 -0.8514
  136OSM   H12A14740   5.962   5.478   5.881 -1.1270 -0.3653 -1.5713
  136OSM   H12B14741   5.960   5.298   5.886  0.0957 -0.1355 -0.8744
  136OSM    C1114742   5.824   5.414   6.017 -0.0208 -0.2391  0.0436
  136OSM   H11A14743   5.777   5.514   6.023 -0.8006 -0.6076  0.2112
  136OSM   H11B14744   5.893   5.401   6.103 -0.6640  0.0190  0.6032
  136OSM      P14745   5.617   5.332   6.150 -0.0409  0.0175 -0.1681
  136OSM    O1314746   5.537   5.453   6.127 -1.0206 -0.3564 -0.4740
  136OSM    O1414747   5.539   5.204   6.158 -0.0428 -0.1457  0.0015
  136OSM    O1114748   5.707   5.338   6.278  0.2028  0.5207  0.2496
  136OSM    O1214749   5.727   5.316   6.035 -0.0028  0.5223  0.2913
  136OSM    C1S14750   5.801   5.238   6.310  0.8102  0.0108 -0.0046
  136OSM    H1S14751   5.884   5.238   6.237 -0.5565  1.5623 -1.6130
  136OSM    H1T14752   5.759   5.135   6.315  1.3070 -0.3189 -2.3885
  136OSM     NF14753   5.978   5.162   6.482 -0.1042 -0.3462  0.3229
  136OSM    HNF14754   5.962   5.085   6.543 -1.2639  0.2681  0.8208
  136OSM    C2S14755   5.872   5.271   6.450 -0.5242  0.1369 -0.6807
  136OSM    H2S14756   5.919   5.368   6.423  1.8750 -0.6928  0.3615
  136OSM    C3S14757   5.768   5.290   6.560  0.0170 -0.0129 -0.2615
  136OSM    H3S14758   5.718   5.194   6.583 -0.6472  0.7645  1.6425
  136OSM     O314759   5.665   5.381   6.534 -0.2197 -0.1148 -0.3453
  136OSM    HO314760   5.656   5.377   6.438  3.3750 -1.9288 -0.6890
  136OSM    C4S14761   5.841   5.333   6.686 -0.2610  0.2693 -0.0936
  136OSM    H4S14762   5.895   5.428   6.667 -0.7468  0.1904 -1.9817
  136OSM    C5S14763   5.856   5.263   6.794  0.1920  0.2732  0.4432
  136OSM    H5S14764   5.809   5.164   6.799 -1.3516  0.9698  0.0487
  136OSM    C6S14765   5.929   5.306   6.913  0.4830  0.1440  0.4399
  136OSM    H6S14766   6.031   5.266   6.896 -0.4104 -0.9691 -2.7264
  136OSM    H6T14767   5.892   5.256   7.005  0.4566  0.9203  0.8540
  136OSM    C7S14768   5.947   5.453   6.949  0.4245 -0.7356 -0.0312
  136OSM    H7S14769   5.845   5.495   6.934  1.4447  1.5496 -0.8008
  136OSM    H7T14770   6.012   5.512   6.881  0.8555  0.4558  1.4076
  136OSM    C8S14771   5.976   5.492   7.093 -0.2709  0.5867 -0.3417
  136OSM    H8S14772   5.909   5.424   7.150  0.8292  0.8816  1.3517
  136OSM    H8T14773   5.934   5.594   7.109 -2.1755 -0.2311 -0.0382
  136OSM    C9S14774   6.122   5.482   7.144 -0.2025 -0.7727 -0.2766
  136OSM    H9S14775   6.182   5.550   7.080 -1.2569  1.4439  1.0118
  136OSM    H9T14776   6.160   5.379   7.133  1.9940  0.0367 -0.4925
  136OSM   C10S14777   6.145   5.533   7.290 -0.2143 -0.2033 -0.1166
  136OSM   H10S14778   6.087   5.454   7.342 -2.2477 -0.7809 -3.1263
  136OSM   H10T14779   6.113   5.638   7.307  0.3366 -0.4478  2.7853
  136OSM   C11S14780   6.291   5.510   7.329 -0.1057  0.7690  0.5612
  136OSM   H11S14781   6.341   5.609   7.336  1.1428  0.1441  0.6061
  136OSM   H11T14782   6.345   5.458   7.247  0.8842  3.5601 -0.6408
  136OSM   C12S14783   6.320   5.424   7.455 -0.9013  0.2430  0.9219
  136OSM   H12S14784   6.427   5.397   7.465 -1.1077 -0.6798  0.6822
  136OSM   H12T14785   6.261   5.332   7.437  1.2069 -0.6405 -1.8313
  136OSM   C13S14786   6.262   5.477   7.584  0.3892  0.0640 -0.3547
  136OSM   H13S14787   6.231   5.396   7.653  0.6936 -0.0649 -0.3652
  136OSM   H13T14788   6.168   5.535   7.576 -0.2309 -0.6705  1.4960
  136OSM   C14S14789   6.359   5.551   7.672 -0.2151 -0.4047 -0.2369
  136OSM   H14S14790   6.464   5.517   7.678  0.3442  1.4574  0.8684
  136OSM   H14T14791   6.321   5.561   7.776 -1.3704  0.1244 -0.7007
  136OSM   C15S14792   6.371   5.697   7.623 -0.1147 -0.4732  0.6871
  136OSM   H15S14793   6.274   5.751   7.630  1.2288  2.5151 -2.3069
  136OSM   H15T14794   6.408   5.687   7.519 -1.4534 -1.6260  0.2990
  136OSM   C16S14795   6.467   5.777   7.715 -0.6726  0.4091  0.3951
  136OSM   H16S14796   6.513   5.862   7.660  0.8524 -0.1394  0.7943
  136OSM   H16T14797   6.554   5.710   7.731  0.7460  0.9640 -4.3037
  136OSM   C17S14798   6.415   5.829   7.848  0.0377 -0.0456  0.8237
  136OSM   H17S14799   6.409   5.747   7.922 -1.9976 -0.5451  0.1437
  136OSM   H17T14800   6.313   5.873   7.835 -0.4348 -0.6033  2.5559
  136OSM   C18S14801   6.497   5.939   7.915 -0.6514  0.5798 -0.5790
  136OSM   H18S14802   6.506   6.028   7.850 -0.2415 -0.7611 -2.3842
  136OSM   H18T14803   6.598   5.898   7.934 -0.0528  1.5195 -1.6813
  136OSM   H18U14804   6.446   5.955   8.013  1.0178  1.0625  0.2279
  136OSM    C1F14805   6.089   5.149   6.413 -0.3799 -0.0448 -0.3532
  136OSM     OF14806   6.124   5.236   6.335  0.2928  0.0233  0.2611
  136OSM    C2F14807   6.167   5.020   6.430 -0.4925 -0.6573  0.1582
  136OSM    H2F14808   6.194   4.980   6.330 -3.1250 -0.1857 -0.7810
  136OSM    H2G14809   6.098   4.947   6.480  0.1253  0.5340  2.8279
  136OSM    C3F14810   6.295   5.048   6.520  0.1294 -0.5079  0.0519
  136OSM    H3F14811   6.357   5.111   6.453 -0.8084  1.7488  1.2647
  136OSM    H3G14812   6.343   4.951   6.547  0.3453 -0.2216  0.7033
  136OSM    C4F14813   6.250   5.124   6.651 -0.3587 -0.3813 -0.6307
  136OSM    H4F14814   6.170   5.062   6.699 -0.4985 -1.1742 -1.8674
  136OSM    H4G14815   6.223   5.231   6.638 -3.4394 -1.4476 -3.8253
  136OSM    C5F14816   6.365   5.125   6.757  0.1961  0.3221  0.1321
  136OSM    H5F14817   6.342   5.200   6.836  0.5949  2.1213 -1.3964
  136OSM    H5G14818   6.466   5.159   6.723  0.6399  1.6878  2.6855
  136OSM    C6F14819   6.377   4.983   6.813  0.1176  0.6784  0.6200
  136OSM    H6F14820   6.382   4.902   6.736  0.3919  0.8603  0.4469
  136OSM    H6G14821   6.286   4.963   6.873  0.6309  2.8736  2.1749
  136OSM    C7F14822   6.482   4.964   6.928  0.7368 -0.3514  0.0736
  136OSM    H7F14823   6.580   4.997   6.886  0.7714  0.7571  1.0033
  136OSM    H7G14824   6.485   4.859   6.964 -1.3851  0.1085  1.7103
  136OSM    C8F14825   6.456   5.065   7.041 -0.3832  0.1642  0.5440
  136OSM    H8F14826   6.361   5.038   7.091 -0.5376  0.7093  0.5444
  136OSM    H8G14827   6.441   5.168   7.002 -1.3118 -0.6141 -1.2172
  136OSM    C9F14828   6.566   5.051   7.140 -0.2239  0.2616 -0.5809
  136OSM    H9F14829   6.660   5.093   7.103 -0.0580  2.4965  2.1757
  136OSM   C10F14830   6.563   5.007   7.265  0.0309 -0.9453 -0.0843
  136OSM   H10F14831   6.658   4.999   7.319 -0.6483 -0.5042  1.2296
  136OSM   C11F14832   6.444   4.961   7.343  0.3096  0.5191  0.1835
  136OSM   H11F14833   6.396   4.879   7.285 -3.3952  1.3473  1.8949
  136OSM   H11G14834   6.369   5.042   7.359 -0.9065  0.1546 -3.3459
  136OSM   C12F14835   6.463   4.903   7.488  0.2214  0.7136  0.0106
  136OSM   H12F14836   6.515   4.805   7.483  1.3779  1.1819  2.4665
  136OSM   H12G14837   6.359   4.890   7.525 -1.0873  4.1157 -2.1628
  136OSM   C13F14838   6.540   5.000   7.591  0.1344  0.1559  0.2432
  136OSM   H13F14839   6.645   5.020   7.559  0.3924  0.3863  1.2008
  136OSM   H13G14840   6.561   4.943   7.684 -1.0574 -0.3611  0.2035
  136OSM   C14F14841   6.467   5.126   7.616  0.0661  0.2663 -0.4976
  136OSM   H14F14842   6.358   5.105   7.611  0.3312 -0.9422 -1.5037
  136OSM   H14G14843   6.494   5.193   7.532  1.6730  1.4763  0.9532
  136OSM   C15F14844   6.509   5.202   7.741 -0.3195 -0.0029 -0.3513
  136OSM   H15F14845   6.446   5.293   7.748 -1.6908 -0.8787 -1.2018
  136OSM   H15G14846   6.617   5.227   7.742 -0.4389  0.5405 -0.7651
  136OSM   C16F14847   6.492   5.128   7.875 -1.0207 -0.4538  0.1373
  136OSM   H16F14848   6.557   5.038   7.871  2.2879  1.8427  0.0957
  136OSM   H16G14849   6.391   5.088   7.899 -1.6709  1.5565  0.8874
  136OSM   C17F14850   6.532   5.214   7.998 -0.0670 -0.2099 -0.0034
  136OSM   H17F14851   6.641   5.224   8.014 -0.0262 -0.4833 -0.1111
  136OSM   H17G14852   6.489   5.154   8.081  0.2144  0.3899  0.5774
  136OSM   C18F14853   6.480   5.346   8.002  0.4692  0.1846  0.2112
  136OSM   H18F14854   6.515   5.418   7.925  2.2918  2.5820  3.1912
  136OSM   H18G14855   6.497   5.390   8.102 -2.8163 -1.2904  1.5078
  136OSM   H18H14856   6.369   5.336   7.992  0.6760 -2.0273 -0.2857
  137OSM      N14857   3.099   3.128   6.092  0.7345 -0.7511  0.4067
  137OSM    C1514858   3.099   3.274   6.122 -0.4157 -0.2200 -0.6483
  137OSM   H15A14859   3.046   3.335   6.050 -0.2742 -0.3113 -0.8328
  137OSM   H15B14860   3.197   3.320   6.111 -0.8966  0.9222 -0.2027
  137OSM   H15C14861   3.073   3.297   6.224  2.9369 -1.4971  0.5863
  137OSM    C1414862   2.950   3.095   6.098  0.6461 -0.3745  0.8501
  137OSM   H14A14863   2.893   3.165   6.039 -1.7137 -2.9790 -0.0750
  137OSM   H14B14864   2.923   3.101   6.203 -1.0983 -0.9351  0.4475
  137OSM   H14C14865   2.919   3.002   6.053 -1.0556  0.0156  1.1643
  137OSM    C1314866   3.146   3.103   5.953 -0.4389  0.2004 -0.5319
  137OSM   H13A14867   3.084   3.160   5.885  0.8209  2.1239 -0.1106
  137OSM   H13B14868   3.148   3.001   5.918  0.1971 -0.5149  1.5518
  137OSM   H13C14869   3.245   3.146   5.940 -0.4310  0.2404 -0.3408
  137OSM    C1214870   3.168   3.045   6.199 -1.1642 -0.0910 -0.3457
  137OSM   H12A14871   3.275   3.039   6.191 -1.0861 -0.9058  1.0911
  137OSM   H12B14872   3.132   2.943   6.190  2.9325 -1.5568 -1.2449
  137OSM    C1114873   3.133   3.079   6.354  0.3824 -0.9810 -0.8620
  137OSM   H11A14874   3.133   3.189   6.362 -1.6208 -0.8217 -2.5125
  137OSM   H11B14875   3.225   3.052   6.410 -0.2638  0.3837  0.8925
  137OSM      P14876   2.989   2.871   6.416  0.6417  0.1295  0.0127
  137OSM    O1314877   2.854   2.844   6.459  0.4144  0.1183 -1.0301
  137OSM    O1414878   3.033   2.811   6.289 -0.1233  0.6928 -0.0350
  137OSM    O1114879   3.087   2.835   6.538  0.6053 -0.6143 -0.0105
  137OSM    O1214880   3.009   3.027   6.398 -0.1899 -0.6546 -0.1128
  137OSM    C1S14881   3.081   2.906   6.663  0.4571 -0.1576 -0.0393
  137OSM    H1S14882   3.033   3.004   6.643  0.0732 -0.3753 -0.1913
  137OSM    H1T14883   3.184   2.925   6.700  1.1577 -2.2240 -0.8438
  137OSM     NF14884   2.930   2.919   6.861  0.4757  0.1481 -0.4785
  137OSM    HNF14885   2.957   2.910   6.957  2.5415  1.9195 -0.8509
  137OSM    C2S14886   2.992   2.825   6.762  0.1443  0.4387  0.5586
  137OSM    H2S14887   2.903   2.789   6.705 -1.0088  2.2166  1.1871
  137OSM    C3S14888   3.070   2.703   6.822  0.1654 -0.7714 -0.2099
  137OSM    H3S14889   3.167   2.734   6.865 -0.3386  2.0809 -1.0354
  137OSM     O314890   3.109   2.613   6.715  0.0048 -0.4320 -0.1565
  137OSM    HO314891   3.086   2.661   6.636  2.6098  0.4986 -0.3803
  137OSM    C4S14892   2.989   2.637   6.925  0.1672  0.4315  0.7918
  137OSM    H4S14893   3.026   2.631   7.028  0.0713  1.9150  0.9261
  137OSM    C5S14894   2.891   2.555   6.906 -0.0098  1.0292 -0.0869
  137OSM    H5S14895   2.850   2.539   6.806 -2.0967 -1.5488  1.0978
  137OSM    C6S14896   2.825   2.479   7.017  0.4215  0.3496  0.4620
  137OSM    H6S14897   2.906   2.442   7.084  2.0586  0.1334 -1.5720
  137OSM    H6T14898   2.771   2.391   6.977  1.3357  0.0868 -0.2225
  137OSM    C7S14899   2.717   2.563   7.093  0.0884  0.3015  0.0138
  137OSM    H7S14900   2.630   2.594   7.032 -1.3751 -0.3463  1.7284
  137OSM    H7T14901   2.762   2.657   7.131 -1.8063  1.1796  0.1296
  137OSM    C8S14902   2.670   2.495   7.222 -0.7769 -0.6330  0.0423
  137OSM    H8S14903   2.757   2.458   7.279 -0.4683  1.4189  0.9685
  137OSM    H8T14904   2.614   2.401   7.204 -0.0531 -0.8229 -1.3118
  137OSM    C9S14905   2.579   2.581   7.310 -0.2498 -0.2616  0.4959
  137OSM    H9S14906   2.488   2.600   7.248 -1.7238 -3.9355  1.4123
  137OSM    H9T14907   2.621   2.681   7.335 -1.1282  0.2584 -0.0451
  137OSM   C10S14908   2.537   2.518   7.445 -0.3969  0.8215 -0.1717
  137OSM   H10S14909   2.483   2.421   7.438  1.7316 -0.4616  0.8206
  137OSM   H10T14910   2.463   2.590   7.488 -0.5685  0.1301  0.7160
  137OSM   C11S14911   2.650   2.507   7.554 -0.3348  0.3220 -0.2730
  137OSM   H11S14912   2.705   2.595   7.593  0.6937 -0.0123 -0.9309
  137OSM   H11T14913   2.722   2.439   7.504 -1.8957 -1.1934 -0.5224
  137OSM   C12S14914   2.593   2.442   7.681  0.5397 -0.0212  0.4085
  137OSM   H12S14915   2.665   2.369   7.722  0.6327 -0.1101  0.0881
  137OSM   H12T14916   2.495   2.390   7.677  0.3661  0.1397  1.9886
  137OSM   C13S14917   2.599   2.539   7.796  0.3063 -0.3807  0.2479
  137OSM   H13S14918   2.543   2.628   7.759 -0.3331 -0.6084  0.6720
  137OSM   H13T14919   2.705   2.562   7.822  0.6320 -2.7803  1.1111
  137OSM   C14S14920   2.521   2.480   7.913  0.3973 -0.4744 -0.8011
  137OSM   H14S14921   2.562   2.384   7.951 -1.3903 -0.4897  1.2100
  137OSM   H14T14922   2.415   2.457   7.888 -0.1612 -0.3044  1.3035
  137OSM   C15S14923   2.529   2.578   8.031 -0.4647 -0.3084  0.0445
  137OSM   H15S14924   2.510   2.683   8.001 -1.5551 -1.2349 -2.6897
  137OSM   H15T14925   2.634   2.580   8.066  0.1333 -2.0920 -1.5306
  137OSM   C16S14926   2.433   2.550   8.141 -0.1600 -0.2882  0.1464
  137OSM   H16S14927   2.464   2.454   8.186 -1.5479 -1.7518 -1.8854
  137OSM   H16T14928   2.338   2.537   8.085  0.1943 -0.7011 -0.3648
  137OSM   C17S14929   2.427   2.663   8.245 -0.2639  0.3624  0.7703
  137OSM   H17S14930   2.394   2.760   8.201 -1.4561 -0.4669 -0.1944
  137OSM   H17T14931   2.532   2.673   8.282  0.3121 -0.6095 -0.5791
  137OSM   C18S14932   2.330   2.629   8.347  0.3206 -0.0384 -0.0267
  137OSM   H18S14933   2.317   2.697   8.434 -1.6417 -1.7498  1.1010
  137OSM   H18T14934   2.373   2.540   8.399 -0.4795 -3.8351 -5.3507
  137OSM   H18U14935   2.224   2.609   8.319 -0.3771  0.8484  1.8650
  137OSM    C1F14936   2.842   3.015   6.833 -0.2480  0.3392 -0.1799
  137OSM     OF14937   2.811   3.034   6.717  0.2714 -0.0989  0.6380
  137OSM    C2F14938   2.789   3.086   6.950  0.2530 -0.3317  0.6496
  137OSM    H2F14939   2.870   3.097   7.025  0.2917  0.8584  0.4441
  137OSM    H2G14940   2.717   3.016   6.999 -1.0883  0.0366 -0.7445
  137OSM    C3F14941   2.742   3.233   6.926 -0.0615  0.6310  0.3335
  137OSM    H3F14942   2.639   3.222   6.886  0.2749  1.2699 -0.7278
  137OSM    H3G14943   2.806   3.282   6.850 -2.6002 -0.1502 -2.3999
  137OSM    C4F14944   2.730   3.333   7.043  0.1436 -0.3910  0.3791
  137OSM    H4F14945   2.674   3.425   7.016  0.0320 -0.7186 -0.5347
  137OSM    H4G14946   2.823   3.376   7.086 -1.5239  0.4966  3.1895
  137OSM    C5F14947   2.670   3.273   7.174 -0.2888 -1.0334 -0.3588
  137OSM    H5F14948   2.746   3.205   7.216 -0.5342 -1.8446 -1.2264
  137OSM    H5G14949   2.593   3.200   7.143  1.7632 -4.0303  1.3927
  137OSM    C6F14950   2.613   3.367   7.284 -1.0079  0.7467  0.5833
  137OSM    H6F14951   2.523   3.330   7.338 -1.7633  1.5325 -0.1116
  137OSM    H6G14952   2.585   3.464   7.238 -0.4640  0.6898  0.1311
  137OSM    C7F14953   2.735   3.394   7.387  0.3048 -0.1250 -0.3476
  137OSM    H7F14954   2.821   3.421   7.323  0.4625  1.6141  0.5631
  137OSM    H7G14955   2.753   3.298   7.440  2.1754 -0.9429 -2.3929
  137OSM    C8F14956   2.710   3.509   7.489  0.8848  0.3563 -0.2586
  137OSM    H8F14957   2.704   3.608   7.441 -1.6875 -0.7851 -2.4150
  137OSM    H8G14958   2.805   3.513   7.548 -0.3354  1.8970  1.6742
  137OSM    C9F14959   2.586   3.495   7.572 -0.3408 -0.4453  0.1756
  137OSM    H9F14960   2.506   3.555   7.526  1.9717  1.7355 -1.1522
  137OSM   C10F14961   2.576   3.454   7.696  0.5666 -0.1087  0.0797
  137OSM   H10F14962   2.479   3.457   7.747 -0.7677 -2.1321 -2.2389
  137OSM   C11F14963   2.697   3.408   7.775 -0.2290  0.4554 -0.9822
  137OSM   H11F14964   2.728   3.487   7.846 -1.9876 -1.4019  1.9331
  137OSM   H11G14965   2.784   3.395   7.707 -1.7981 -0.7632 -2.8162
  137OSM   C12F14966   2.673   3.269   7.838 -0.6443  0.3492 -0.1332
  137OSM   H12F14967   2.771   3.224   7.866 -1.0936 -0.4191  0.2013
  137OSM   H12G14968   2.628   3.204   7.761  0.4919  0.4221 -0.8605
  137OSM   C13F14969   2.615   3.267   7.975  0.0346 -0.1438  0.2750
  137OSM   H13F14970   2.669   3.334   8.046 -2.3685 -0.0256  2.0496
  137OSM   H13G14971   2.617   3.166   8.021  1.6192 -1.4209 -2.5068
  137OSM   C14F14972   2.462   3.299   7.977 -0.0457  0.1556 -0.9326
  137OSM   H14F14973   2.405   3.243   7.900 -1.6869  0.6491 -0.0901
  137OSM   H14G14974   2.453   3.407   7.954  1.2291  0.9671  2.1483
  137OSM   C15F14975   2.386   3.271   8.112 -0.6451  0.3539 -0.1637
  137OSM   H15F14976   2.277   3.279   8.091 -0.5614 -0.3962 -0.9105
  137OSM   H15G14977   2.412   3.360   8.173  1.9924 -1.3051  1.1849
  137OSM   C16F14978   2.416   3.146   8.191  0.1182  0.1253  0.6440
  137OSM   H16F14979   2.526   3.157   8.204  0.4240 -0.0971 -1.5956
  137OSM   H16G14980   2.378   3.064   8.126 -0.4102  0.1192  0.9654
  137OSM   C17F14981   2.350   3.142   8.329 -0.5663  0.2817 -0.1908
  137OSM   H17F14982   2.240   3.125   8.325 -0.4163 -0.1409 -3.4390
  137OSM   H17G14983   2.367   3.237   8.386 -0.0203  0.1546 -0.1421
  137OSM   C18F14984   2.401   3.026   8.411  0.5728 -0.8961  0.3248
  137OSM   H18F14985   2.511   3.034   8.431  1.1804 -1.3017 -2.6701
  137OSM   H18G14986   2.388   2.930   8.356 -1.6200 -0.2530 -0.3028
  137OSM   H18H14987   2.349   3.011   8.508 -1.0109  0.7791 -0.2563
  138OSM      N14988   2.987   5.863   5.597 -0.4489 -0.3590 -0.4316
  138OSM    C1514989   2.897   5.837   5.489  0.4216  0.3472  0.6756
  138OSM   H15A14990   2.948   5.822   5.395  0.7221  0.7350  0.7761
  138OSM   H15B14991   2.822   5.914   5.478 -0.3915 -0.6499 -1.0747
  138OSM   H15C14992   2.838   5.753   5.523  0.3163 -0.0520 -0.4666
  138OSM    C1414993   3.090   5.752   5.594 -0.7620  1.2035 -0.5399
  138OSM   H14A14994   3.173   5.764   5.662  1.3495 -1.7560 -2.4466
  138OSM   H14B14995   3.134   5.741   5.496 -0.3308 -0.8628 -0.1537
  138OSM   H14C14996   3.042   5.662   5.632 -1.4384  2.1000  0.7855
  138OSM    C1314997   3.052   5.995   5.568 -0.0353 -0.4395  0.0007
  138OSM   H13A14998   2.975   6.069   5.552 -1.2316 -1.8042 -0.6746
  138OSM   H13B14999   3.116   5.993   5.481 -1.2827 -1.7398 -0.9188
  138OSM   H13C15000   3.113   6.038   5.646 -0.1794 -0.0957 -0.0760
  138OSM    C1215001   2.904   5.865   5.719  0.4465 -0.0145 -0.3593
  138OSM   H12A15002   2.855   5.769   5.724 -0.2068  0.3761  1.1070
  138OSM   H12B15003   2.824   5.936   5.708 -0.2583 -1.0762 -2.2756
  138OSM    C1115004   2.970   5.891   5.858 -0.3229  0.0537  0.2890
  138OSM   H11A15005   2.881   5.903   5.923 -1.5046  0.6814 -1.4024
  138OSM   H11B15006   3.025   5.987   5.848  0.4189 -0.3015  0.9166
  138OSM      P15007   3.162   5.798   6.002  0.1138 -0.1237  0.0522
  138OSM    O1315008   3.242   5.679   5.968  0.3342  0.6117  0.0812
  138OSM    O1415009   3.226   5.934   5.978  0.2076  0.7320 -0.0198
  138OSM    O1115010   3.100   5.783   6.152 -0.7465 -0.9623  0.1787
  138OSM    O1215011   3.045   5.780   5.897  0.1020 -0.3929  0.4290
  138OSM    C1S15012   3.007   5.676   6.176 -0.8268  0.0986  0.0912
  138OSM    H1S15013   3.066   5.582   6.187 -0.7360 -0.0860 -1.8177
  138OSM    H1T15014   2.935   5.669   6.091  0.5585 -0.4068 -1.0518
  138OSM     NF15015   2.871   5.566   6.357 -0.1139  0.3307  0.5136
  138OSM    HNF15016   2.779   5.534   6.335 -0.4885  0.3493  1.9791
  138OSM    C2S15017   2.922   5.695   6.304  0.3429  0.1815  0.2049
  138OSM    H2S15018   2.994   5.743   6.374  1.8314  0.2741 -1.3418
  138OSM    C3S15019   2.814   5.799   6.272  0.0850 -0.0358 -0.0109
  138OSM    H3S15020   2.735   5.761   6.204  2.3127 -1.7118 -1.7455
  138OSM     O315021   2.855   5.920   6.196 -0.1346 -0.2924 -0.1786
  138OSM    HO315022   2.935   5.899   6.148 -1.0688  1.2121 -2.4557
  138OSM    C4S15023   2.743   5.828   6.401  0.2569 -0.4853  0.0393
  138OSM    H4S15024   2.654   5.768   6.424 -1.8906  2.9861  1.1648
  138OSM    C5S15025   2.786   5.919   6.488 -0.4971 -1.1499 -0.6452
  138OSM    H5S15026   2.869   5.988   6.467 -0.1303 -1.6571 -0.8632
  138OSM    C6S15027   2.704   5.938   6.610 -0.3163 -0.0119 -0.2438
  138OSM    H6S15028   2.626   5.860   6.613  0.2352 -0.5366  0.9190
  138OSM    H6T15029   2.655   6.038   6.609  0.1146  0.2028 -3.1526
  138OSM    C7S15030   2.775   5.924   6.747  0.4935  0.4912 -0.0551
  138OSM    H7S15031   2.860   5.995   6.751  2.2968 -1.6405  0.5923
  138OSM    H7T15032   2.828   5.826   6.745  2.6692  1.6719 -2.7370
  138OSM    C8S15033   2.688   5.951   6.861  0.6938  0.3696  0.4952
  138OSM    H8S15034   2.620   5.864   6.866 -1.6028  2.0826  0.2656
  138OSM    H8T15035   2.612   6.032   6.854 -1.4389 -1.3518  3.2534
  138OSM    C9S15036   2.757   5.974   6.997  0.4996 -0.3453 -0.3369
  138OSM    H9S15037   2.830   6.057   6.983  1.6919 -1.1844  0.7250
  138OSM    H9T15038   2.810   5.880   7.024 -0.1773 -0.3987  0.7958
  138OSM   C10S15039   2.652   6.018   7.102  0.5157 -0.6258 -0.0664
  138OSM   H10S15040   2.605   5.922   7.132  2.3405 -0.7716  2.5361
  138OSM   H10T15041   2.581   6.095   7.068  0.7885 -0.6036 -0.5900
  138OSM   C11S15042   2.716   6.086   7.230 -0.4699  0.1747 -0.2042
  138OSM   H11S15043   2.767   6.179   7.199  2.2202 -1.0279  0.4653
  138OSM   H11T15044   2.794   6.017   7.270 -1.1110  1.7481  4.0497
  138OSM   C12S15045   2.610   6.107   7.339  0.0769  0.1655 -0.0584
  138OSM   H12S15046   2.585   6.008   7.383 -1.9098 -0.1531 -1.8394
  138OSM   H12T15047   2.518   6.140   7.286 -1.0185  2.7037  3.2187
  138OSM   C13S15048   2.631   6.216   7.441  0.2288 -0.7133 -0.0933
  138OSM   H13S15049   2.540   6.234   7.501 -0.0957 -0.4439 -0.6534
  138OSM   H13T15050   2.643   6.318   7.398 -1.1258 -0.8744 -0.8914
  138OSM   C14S15051   2.735   6.190   7.547  0.4471  0.1380  0.3688
  138OSM   H14S15052   2.829   6.149   7.505 -0.9864  1.0639 -3.9896
  138OSM   H14T15053   2.691   6.115   7.617 -2.6658 -1.6846 -3.3201
  138OSM   C15S15054   2.768   6.313   7.626  0.0985 -0.5857  0.9693
  138OSM   H15S15055   2.673   6.370   7.635  0.7808  0.7408 -0.0980
  138OSM   H15T15056   2.836   6.368   7.558 -0.0171  0.5207  1.7179
  138OSM   C16S15057   2.814   6.279   7.759 -0.0467  0.2699 -0.9592
  138OSM   H16S15058   2.758   6.188   7.790 -0.9608  1.7042  1.8152
  138OSM   H16T15059   2.803   6.350   7.843  1.4627 -0.7828  0.1479
  138OSM   C17S15060   2.960   6.230   7.780  0.0504 -0.0669 -0.0945
  138OSM   H17S15061   3.037   6.309   7.785 -0.2224  0.1109  2.4361
  138OSM   H17T15062   2.989   6.165   7.695 -1.9129 -2.1603  0.7708
  138OSM   C18S15063   2.971   6.135   7.900 -0.4379 -0.6847 -0.2537
  138OSM   H18S15064   3.068   6.082   7.906 -0.8906 -1.3169  1.6820
  138OSM   H18T15065   2.886   6.066   7.920 -0.7133  0.6857  3.6527
  138OSM   H18U15066   2.957   6.203   7.987  1.8988 -0.3040 -0.1573
  138OSM    C1F15067   2.950   5.487   6.428 -0.9673  0.2575 -0.1946
  138OSM     OF15068   3.062   5.535   6.452  0.3329  0.0203  0.0030
  138OSM    C2F15069   2.890   5.358   6.465 -0.1826  0.1697 -0.4686
  138OSM    H2F15070   2.916   5.271   6.400 -0.5330  0.1952 -0.6442
  138OSM    H2G15071   2.781   5.360   6.448 -0.0985  0.8370 -0.9488
  138OSM    C3F15072   2.928   5.321   6.609 -0.0694  0.5825  0.3432
  138OSM    H3F15073   2.880   5.396   6.675 -2.8960 -0.7503 -0.1098
  138OSM    H3G15074   3.038   5.327   6.618  0.0182 -0.6022  0.1845
  138OSM    C4F15075   2.883   5.176   6.636  0.7082  0.0188 -0.1569
  138OSM    H4F15076   2.929   5.113   6.557  1.5170  0.3399  0.0641
  138OSM    H4G15077   2.774   5.164   6.618 -0.1023  1.9182  2.9498
  138OSM    C5F15078   2.913   5.136   6.783  0.4651 -0.1873  0.0972
  138OSM    H5F15079   2.853   5.199   6.853  1.3993 -0.2328  0.9432
  138OSM    H5G15080   3.021   5.131   6.811  0.4361  0.0424  0.2575
  138OSM    C6F15081   2.865   4.992   6.814  0.3582 -0.2097 -0.4295
  138OSM    H6F15082   2.891   4.932   6.724  2.6433  1.6857 -1.1046
  138OSM    H6G15083   2.754   4.989   6.819  0.3533  1.7494  1.5939
  138OSM    C7F15084   2.928   4.934   6.943 -0.2292  0.2913  0.3645
  138OSM    H7F15085   3.036   4.916   6.928 -0.7994 -2.1585 -0.9231
  138OSM    H7G15086   2.890   4.831   6.960  2.9138 -0.7966  1.1149
  138OSM    C8F15087   2.923   5.030   7.068  0.0069 -0.5150 -0.2229
  138OSM    H8F15088   2.970   5.129   7.047 -0.6685 -0.1654 -0.1017
  138OSM    H8G15089   2.978   4.982   7.152 -0.6932  2.5108  2.0686
  138OSM    C9F15090   2.784   5.063   7.108 -0.6596 -0.0087 -0.0156
  138OSM    H9F15091   2.707   5.046   7.031  0.9312 -0.4949 -1.5042
  138OSM   C10F15092   2.755   5.107   7.230 -1.0603 -0.7615  0.5956
  138OSM   H10F15093   2.651   5.119   7.262 -0.8688  0.4989  0.7467
  138OSM   C11F15094   2.851   5.127   7.347  1.0654 -0.2713 -0.1635
  138OSM   H11F15095   2.818   5.227   7.384 -1.3313 -1.6016  1.4429
  138OSM   H11G15096   2.954   5.122   7.307  1.4955 -0.9958  1.0085
  138OSM   C12F15097   2.829   5.035   7.468  0.7396 -0.3984  0.0489
  138OSM   H12F15098   2.858   4.933   7.433  1.1047 -0.1967 -0.2395
  138OSM   H12G15099   2.727   5.043   7.512 -0.7320  2.3836 -3.6692
  138OSM   C13F15100   2.907   5.087   7.594 -0.3888 -0.5469  0.1695
  138OSM   H13F15101   2.914   5.198   7.596  0.1359 -0.5484 -0.9669
  138OSM   H13G15102   3.008   5.043   7.578 -0.0317  0.4484 -0.3938
  138OSM   C14F15103   2.845   5.033   7.722 -0.0819 -1.0271  0.4007
  138OSM   H14F15104   2.801   4.933   7.703 -1.8777  0.1632 -1.9259
  138OSM   H14G15105   2.762   5.098   7.758 -0.0862 -1.7105  1.6328
  138OSM   C15F15106   2.930   5.051   7.849  0.1022 -0.5018 -0.2329
  138OSM   H15F15107   2.934   5.159   7.876  1.9617 -0.3462 -1.0938
  138OSM   H15G15108   3.036   5.021   7.840  0.3716  0.1641  0.6763
  138OSM   C16F15109   2.869   4.979   7.967  0.1369  0.3394  0.3678
  138OSM   H16F15110   2.884   4.873   7.937  0.3590  0.0496  1.4776
  138OSM   H16G15111   2.759   4.987   7.977  0.1731 -0.2156  1.3036
  138OSM   C17F15112   2.937   5.008   8.105  0.1879 -0.5706 -0.2321
  138OSM   H17F15113   2.892   5.100   8.146  0.7710 -0.7294  0.7694
  138OSM   H17G15114   3.047   5.019   8.094 -0.0491  0.5899 -1.6197
  138OSM   C18F15115   2.920   4.905   8.211  0.2184 -0.0071 -0.3435
  138OSM   H18F15116   2.942   4.808   8.161 -0.8372  0.0321 -0.8885
  138OSM   H18G15117   2.811   4.892   8.228  0.2170 -1.3898 -1.3399
  138OSM   H18H15118   2.971   4.920   8.309 -0.1267  0.5205 -0.2452
  139OSM      N15119   2.499   6.047   6.160  0.7149 -0.5332 -0.2774
  139OSM    C1515120   2.562   6.065   6.291 -0.3102  0.2288 -0.0915
  139OSM   H15A15121   2.486   6.033   6.361 -0.4628  2.9296  1.0329
  139OSM   H15B15122   2.594   6.165   6.318 -0.6871  0.9048 -2.0442
  139OSM   H15C15123   2.646   5.999   6.301  0.0549  0.5476 -1.0045
  139OSM    C1415124   2.379   6.133   6.164  0.6133  0.0384  0.1668
  139OSM   H14A15125   2.322   6.112   6.253 -0.7917  2.8111 -0.0306
  139OSM   H14B15126   2.310   6.109   6.084  3.4788 -0.7713 -2.1723
  139OSM   H14C15127   2.399   6.239   6.167  0.2964  0.1040 -0.0449
  139OSM    C1315128   2.589   6.092   6.054 -1.1524 -0.0480  0.0894
  139OSM   H13A15129   2.611   6.198   6.054  0.2275 -0.3165  1.4827
  139OSM   H13B15130   2.551   6.078   5.954  0.1484  1.6863 -0.6780
  139OSM   H13C15131   2.685   6.045   6.070 -0.0375  1.8453 -0.8341
  139OSM    C1215132   2.463   5.905   6.133 -0.3968 -0.3168  0.1422
  139OSM   H12A15133   2.551   5.852   6.102 -0.3247 -0.9054  1.3418
  139OSM   H12B15134   2.393   5.891   6.052 -0.4913 -2.1204  0.4998
  139OSM    C1115135   2.404   5.822   6.259  0.8457 -0.6088 -0.1281
  139OSM   H11A15136   2.474   5.828   6.346 -0.6149  0.4055  1.0078
  139OSM   H11B15137   2.398   5.713   6.242  0.8537 -0.8428  1.2533
  139OSM      P15138   2.137   5.839   6.232  0.1502 -0.2386 -0.0588
  139OSM    O1315139   2.059   5.962   6.199 -0.1523  0.8179 -0.1142
  139OSM    O1415140   2.161   5.737   6.130 -0.0487 -0.0119  0.3102
  139OSM    O1115141   2.055   5.764   6.355  0.3687  0.1734 -0.2542
  139OSM    O1215142   2.275   5.865   6.310  0.3188  1.2055 -0.1460
  139OSM    C1S15143   2.045   5.830   6.485 -0.3928  0.2227 -0.0138
  139OSM    H1S15144   2.097   5.928   6.489  2.6943 -1.3267 -0.5978
  139OSM    H1T15145   2.101   5.772   6.562 -0.3135 -2.5059 -2.0386
  139OSM     NF15146   1.884   5.944   6.649 -0.0233 -0.5688 -0.1524
  139OSM    HNF15147   1.876   5.898   6.738  0.1694 -0.4146 -0.0567
  139OSM    C2S15148   1.898   5.840   6.542  0.7831  0.5490 -0.3973
  139OSM    H2S15149   1.837   5.872   6.456 -2.3187 -1.3646  1.0168
  139OSM    C3S15150   1.849   5.701   6.581 -0.0642  0.0825 -0.6056
  139OSM    H3S15151   1.923   5.657   6.650  0.1856 -0.2417 -1.0742
  139OSM     O315152   1.844   5.609   6.475 -0.0381 -0.3527 -0.7109
  139OSM    HO315153   1.887   5.654   6.401  1.9479  0.6800  1.0417
  139OSM    C4S15154   1.718   5.710   6.657  0.1470  0.8320  0.3298
  139OSM    H4S15155   1.648   5.777   6.604  0.5224 -0.3564 -1.7435
  139OSM    C5S15156   1.688   5.658   6.781  0.6019  0.5361 -0.5921
  139OSM    H5S15157   1.772   5.630   6.846  0.2591  2.1419  0.5645
  139OSM    C6S15158   1.559   5.664   6.869  0.3101 -0.4979 -0.1311
  139OSM    H6S15159   1.529   5.559   6.895 -0.0147 -0.7154 -1.3779
  139OSM    H6T15160   1.471   5.704   6.815  1.5437  1.9355 -0.3808
  139OSM    C7S15161   1.566   5.735   7.007 -1.3761  0.0097 -0.2590
  139OSM    H7S15162   1.580   5.845   6.999 -2.9049  0.2116 -0.2978
  139OSM    H7T15163   1.658   5.692   7.052 -1.5278  0.2717  0.3056
  139OSM    C8S15164   1.436   5.714   7.093  0.5742  0.0052 -0.3716
  139OSM    H8S15165   1.399   5.616   7.055 -1.2307  1.3686 -2.2519
  139OSM    H8T15166   1.356   5.786   7.066  0.5517 -0.2685 -1.0505
  139OSM    C9S15167   1.457   5.712   7.246 -0.2659  0.2555 -0.2366
  139OSM    H9S15168   1.530   5.634   7.274 -0.1975  0.6189  0.6165
  139OSM    H9T15169   1.358   5.710   7.297 -0.6016 -2.4905 -0.9099
  139OSM   C10S15170   1.509   5.847   7.298  0.8235  0.0751 -0.0008
  139OSM   H10S15171   1.458   5.933   7.249  0.2687 -0.1880  0.1100
  139OSM   H10T15172   1.618   5.854   7.278  0.5920 -0.0437 -1.3035
  139OSM   C11S15173   1.493   5.859   7.453  0.3495  0.3753 -0.2245
  139OSM   H11S15174   1.570   5.927   7.496  0.7145  0.4109 -0.9289
  139OSM   H11T15175   1.497   5.756   7.494 -0.1495  0.5255  0.2127
  139OSM   C12S15176   1.356   5.920   7.491 -0.1708  0.0145  0.1998
  139OSM   H12S15177   1.273   5.869   7.438 -0.8499  0.3892  0.8856
  139OSM   H12T15178   1.349   6.029   7.471 -0.8217 -0.2408 -1.0352
  139OSM   C13S15179   1.327   5.908   7.644 -0.3614 -0.2388  0.0818
  139OSM   H13S15180   1.401   5.976   7.692  2.3638 -1.5281 -2.1934
  139OSM   H13T15181   1.368   5.808   7.667 -0.2527 -0.1093  0.4710
  139OSM   C14S15182   1.185   5.926   7.691  0.0356  0.4718  0.3928
  139OSM   H14S15183   1.130   5.873   7.611 -0.5711 -1.2317  1.9082
  139OSM   H14T15184   1.159   6.034   7.697 -0.9051  0.1790  1.6443
  139OSM   C15S15185   1.156   5.855   7.817 -0.6617  0.2531  0.1229
  139OSM   H15S15186   1.186   5.749   7.802 -0.4999  0.5416 -1.6131
  139OSM   H15T15187   1.048   5.866   7.841 -0.4484 -0.0806  1.3090
  139OSM   C16S15188   1.236   5.913   7.944  0.0274 -0.1129  0.8245
  139OSM   H16S15189   1.191   5.877   8.040 -1.4775  0.7057  0.4419
  139OSM   H16T15190   1.228   6.023   7.934  0.8976 -0.2471 -1.7112
  139OSM   C17S15191   1.378   5.868   7.965 -0.4870 -0.6117 -0.4156
  139OSM   H17S15192   1.453   5.891   7.886 -1.1838 -0.3103 -0.9927
  139OSM   H17T15193   1.380   5.757   7.961 -0.0648 -0.5777 -1.3567
  139OSM   C18S15194   1.436   5.904   8.107  0.3380  0.7003 -0.4670
  139OSM   H18S15195   1.358   5.898   8.185  1.5614  1.1999  0.8149
  139OSM   H18T15196   1.466   6.012   8.104 -0.2419  0.9721  2.2912
  139OSM   H18U15197   1.519   5.837   8.139 -2.1331 -2.0471  0.3960
  139OSM    C1F15198   1.900   6.075   6.632  0.1226 -0.2643  0.1741
  139OSM     OF15199   1.936   6.121   6.524  0.0582 -0.4562 -0.4647
  139OSM    C2F15200   1.886   6.164   6.750  0.0972 -0.5119 -0.2491
  139OSM    H2F15201   1.942   6.118   6.834 -0.2701  1.8316  1.3435
  139OSM    H2G15202   1.778   6.160   6.779 -0.1022 -0.0167 -0.9043
  139OSM    C3F15203   1.931   6.312   6.729  0.0727 -0.9076 -0.7003
  139OSM    H3F15204   1.874   6.353   6.643 -1.9037 -3.4599 -0.6780
  139OSM    H3G15205   2.038   6.317   6.699  0.0453  3.3988 -0.4004
  139OSM    C4F15206   1.895   6.397   6.846 -0.1550 -0.5790  0.7226
  139OSM    H4F15207   1.930   6.347   6.939  3.1853  0.4053  0.0740
  139OSM    H4G15208   1.789   6.423   6.866  0.9622  2.0736  3.7323
  139OSM    C5F15209   1.969   6.528   6.838 -0.1450 -0.1144 -0.3906
  139OSM    H5F15210   1.916   6.589   6.762 -0.9243 -0.2354  0.0538
  139OSM    H5G15211   2.072   6.506   6.804  0.7737  1.1957  1.4259
  139OSM    C6F15212   1.974   6.599   6.974 -0.3796  0.1338 -0.6847
  139OSM    H6F15213   2.000   6.524   7.052 -1.0386 -2.2093 -2.6615
  139OSM    H6G15214   1.870   6.631   6.997  0.0425  0.5733  0.6359
  139OSM    C7F15215   2.065   6.715   6.966  0.1947 -0.6436  0.2459
  139OSM    H7F15216   2.039   6.767   6.871 -2.1560 -1.9644  0.1253
  139OSM    H7G15217   2.167   6.671   6.964  0.2103 -0.6028  0.1035
  139OSM    C8F15218   2.065   6.807   7.089 -0.1581  0.0941  0.7154
  139OSM    H8F15219   2.145   6.883   7.073  0.7154 -0.9182  0.2105
  139OSM    H8G15220   2.083   6.751   7.183  1.6649  3.2284  2.3291
  139OSM    C9F15221   1.930   6.876   7.110 -0.3587  0.8950 -0.3367
  139OSM    H9F15222   1.864   6.870   7.022  1.5323 -1.1027 -1.6605
  139OSM   C10F15223   1.886   6.933   7.224  0.5936  0.2037  0.3753
  139OSM   H10F15224   1.782   6.963   7.244  0.4115 -0.5320  0.5401
  139OSM   C11F15225   1.977   6.945   7.347  0.0397  0.1022  0.4703
  139OSM   H11F15226   2.037   7.037   7.337 -0.0379 -0.1080 -2.2242
  139OSM   H11G15227   2.048   6.859   7.349  0.8025  0.7268  0.2185
  139OSM   C12F15228   1.908   6.944   7.477 -0.0117 -0.2644  0.1204
  139OSM   H12F15229   1.819   7.011   7.481  0.3036  0.2373 -0.9881
  139OSM   H12G15230   1.976   6.982   7.556  3.3981  0.4786 -3.0227
  139OSM   C13F15231   1.878   6.800   7.536  0.0452 -0.4807  0.7843
  139OSM   H13F15232   1.958   6.725   7.524  0.3516 -0.3820  2.1557
  139OSM   H13G15233   1.795   6.750   7.482  1.7352 -2.3982 -0.0751
  139OSM   C14F15234   1.844   6.799   7.681 -0.2274 -1.1410 -0.3022
  139OSM   H14F15235   1.765   6.874   7.702  2.3546  1.7545 -0.6496
  139OSM   H14G15236   1.934   6.836   7.735 -0.7900 -1.5987  0.9635
  139OSM   C15F15237   1.808   6.660   7.736 -0.0191  0.2516  0.2168
  139OSM   H15F15238   1.900   6.602   7.757 -0.8975 -0.7664  1.3301
  139OSM   H15G15239   1.772   6.601   7.649 -0.2263  0.1608  0.3625
  139OSM   C16F15240   1.706   6.667   7.863 -0.6493  0.2584  0.1563
  139OSM   H16F15241   1.672   6.568   7.900  0.1887  0.5626  1.8019
  139OSM   H16G15242   1.616   6.730   7.847 -0.5841  0.7974  1.8712
  139OSM   C17F15243   1.786   6.724   7.964  0.1393  0.1131  0.0423
  139OSM   H17F15244   1.806   6.831   7.940  1.2457 -0.4078 -1.4126
  139OSM   H17G15245   1.880   6.665   7.966 -0.1580 -0.4818 -2.5915
  139OSM   C18F15246   1.727   6.713   8.103  0.4926  0.1311  0.4516
  139OSM   H18F15247   1.721   6.608   8.137 -0.8844  0.3237  0.8535
  139OSM   H18G15248   1.622   6.749   8.102 -0.4672 -2.3902  3.9034
  139OSM   H18H15249   1.784   6.769   8.180  1.2563 -0.3601  0.2409
  140OSM      N15250   2.200   1.424   5.998 -0.6350  0.1772 -0.1832
  140OSM    C1515251   2.325   1.467   5.919  0.6388 -0.5211  0.0596
  140OSM   H15A15252   2.313   1.447   5.814  1.7635  1.8812 -0.5481
  140OSM   H15B15253   2.404   1.407   5.961  0.0609 -0.2855  1.5173
  140OSM   H15C15254   2.343   1.573   5.927  0.7154 -0.6964  2.9978
  140OSM    C1415255   2.080   1.478   5.929 -0.0190  0.2541  0.1771
  140OSM   H14A15256   2.087   1.584   5.911 -1.4242  0.0020 -1.9915
  140OSM   H14B15257   1.989   1.462   5.986  0.5521  0.5117  1.1754
  140OSM   H14C15258   2.071   1.428   5.834  2.5045  0.8454 -0.4139
  140OSM    C1315259   2.189   1.276   6.004  0.3082  0.9081  0.3279
  140OSM   H13A15260   2.288   1.246   6.034  1.1224 -0.3607 -3.4168
  140OSM   H13B15261   2.172   1.247   5.902  0.3585 -2.1174  1.1146
  140OSM   H13C15262   2.113   1.235   6.070 -0.4846  1.2249 -0.3878
  140OSM    C1215263   2.194   1.483   6.140  0.4272  0.6293 -1.2220
  140OSM   H12A15264   2.105   1.456   6.193  1.2074  0.5804  0.0761
  140OSM   H12B15265   2.188   1.590   6.126 -1.4304  0.6105 -0.6100
  140OSM    C1115266   2.319   1.446   6.230 -0.1618 -0.6181  0.4474
  140OSM   H11A15267   2.332   1.529   6.302 -0.4333  1.7588 -2.1747
  140OSM   H11B15268   2.405   1.443   6.160 -0.7427  0.5620 -0.3461
  140OSM      P15269   2.186   1.278   6.365 -0.1209  0.3885 -0.4155
  140OSM    O1315270   2.123   1.399   6.435 -0.1969 -0.0181  0.6536
  140OSM    O1415271   2.098   1.204   6.275  0.2508 -0.0401 -0.6410
  140OSM    O1115272   2.243   1.176   6.478  0.6804  0.1478  0.2813
  140OSM    O1215273   2.307   1.319   6.280  0.1608 -0.2909  0.0905
  140OSM    C1S15274   2.376   1.213   6.528 -0.2093 -0.3768  0.0040
  140OSM    H1S15275   2.410   1.318   6.518  1.7307 -1.0802 -1.1710
  140OSM    H1T15276   2.447   1.141   6.482 -0.4356  0.2607 -1.3915
  140OSM     NF15277   2.523   1.186   6.729  0.2882 -0.7910  0.0351
  140OSM    HNF15278   2.564   1.100   6.759  1.0832 -0.2652  0.4687
  140OSM    C2S15279   2.386   1.178   6.680  0.7018  0.3639  0.4697
  140OSM    H2S15280   2.335   1.264   6.728 -2.0822  0.4416 -2.4513
  140OSM    C3S15281   2.307   1.047   6.718  0.6669 -0.8288  0.7377
  140OSM    H3S15282   2.358   0.963   6.666  1.0387 -0.3422  0.3059
  140OSM     O315283   2.163   1.050   6.691  1.2410 -0.0531  0.1240
  140OSM    HO315284   2.151   1.128   6.635 -0.5475 -3.1300 -4.0748
  140OSM    C4S15285   2.332   1.027   6.869 -1.8902 -0.3339 -0.1266
  140OSM    H4S15286   2.394   0.938   6.887 -1.4141 -0.1106 -0.6308
  140OSM    C5S15287   2.284   1.106   6.973 -0.4128 -0.3360  0.1998
  140OSM    H5S15288   2.224   1.193   6.943 -0.4308 -0.8025 -1.1138
  140OSM    C6S15289   2.295   1.096   7.120 -0.6390  0.3569  0.5107
  140OSM    H6S15290   2.227   1.160   7.181 -2.2299  0.3267 -1.1975
  140OSM    H6T15291   2.400   1.112   7.153 -0.5327  0.1966  0.2467
  140OSM    C7S15292   2.262   0.952   7.169 -0.5713  0.3679  0.1624
  140OSM    H7S15293   2.342   0.882   7.138  2.1541  2.8496  1.3548
  140OSM    H7T15294   2.165   0.928   7.120 -0.8160  2.1558 -0.2762
  140OSM    C8S15295   2.235   0.946   7.321  0.8973 -0.9020  0.1337
  140OSM    H8S15296   2.145   1.004   7.350 -0.0217 -2.5591  0.6208
  140OSM    H8T15297   2.332   0.980   7.364  0.0192  0.6848  0.9260
  140OSM    C9S15298   2.202   0.807   7.389 -0.7617 -0.1022 -0.1799
  140OSM    H9S15299   2.267   0.731   7.342 -0.7238 -0.2693  0.1466
  140OSM    H9T15300   2.100   0.786   7.349 -1.1220  0.5184  0.3911
  140OSM   C10S15301   2.219   0.787   7.536  0.6000  0.0680  0.1512
  140OSM   H10S15302   2.328   0.796   7.555  0.9538  1.4827 -2.3705
  140OSM   H10T15303   2.180   0.687   7.564 -0.5581  0.8679  1.4325
  140OSM   C11S15304   2.145   0.899   7.611 -0.8262 -0.0161 -0.6794
  140OSM   H11S15305   2.037   0.905   7.587 -1.1886  2.8669  1.4029
  140OSM   H11T15306   2.194   0.990   7.570 -1.8983  0.5663 -0.6936
  140OSM   C12S15307   2.151   0.893   7.765 -0.1875 -0.0484 -0.2713
  140OSM   H12S15308   2.113   0.992   7.799 -1.5191 -1.5222  2.6732
  140OSM   H12T15309   2.253   0.877   7.806  0.0105 -3.5662 -2.0012
  140OSM   C13S15310   2.058   0.792   7.838  0.1580  0.0172 -0.3947
  140OSM   H13S15311   2.078   0.689   7.800 -2.3574 -1.6151  2.5164
  140OSM   H13T15312   1.952   0.814   7.812 -0.0427 -1.0028 -0.4799
  140OSM   C14S15313   2.082   0.791   7.991  0.5492  0.2082 -0.2706
  140OSM   H14S15314   2.091   0.892   8.037  1.4176  0.0507 -0.0950
  140OSM   H14T15315   2.180   0.743   8.010  0.1412 -0.2327  0.7411
  140OSM   C15S15316   1.967   0.718   8.071  0.5543  0.1835  0.1227
  140OSM   H15S15317   1.974   0.611   8.039 -3.0443 -0.1324  0.1318
  140OSM   H15T15318   1.866   0.762   8.057 -0.1977 -1.3794  0.4723
  140OSM   C16S15319   2.011   0.728   8.221 -0.0562 -0.3869 -0.6786
  140OSM   H16S15320   2.122   0.728   8.219 -0.0064 -2.6792  0.9986
  140OSM   H16T15321   1.993   0.632   8.274  1.7675 -0.1618  0.3933
  140OSM   C17S15322   1.956   0.850   8.298 -0.0378 -0.0139 -0.3627
  140OSM   H17S15323   2.008   0.944   8.271  0.9435 -0.3541  0.2938
  140OSM   H17T15324   1.992   0.824   8.400  1.7519  3.4331 -0.0391
  140OSM   C18S15325   1.807   0.857   8.305  0.3856  0.3794  0.1544
  140OSM   H18S15326   1.767   0.762   8.347  1.7429 -1.0711 -1.7793
  140OSM   H18T15327   1.766   0.871   8.203  0.9118 -0.5680 -0.1832
  140OSM   H18U15328   1.771   0.932   8.380  0.7283  1.3672 -0.6591
  140OSM    C1F15329   2.608   1.288   6.696  0.4511 -0.7735  0.0533
  140OSM     OF15330   2.565   1.404   6.671 -0.7877 -0.0878 -0.0962
  140OSM    C2F15331   2.765   1.268   6.701 -0.3224 -0.6623 -0.4563
  140OSM    H2F15332   2.810   1.330   6.621 -0.5002 -0.7754 -0.6438
  140OSM    H2G15333   2.793   1.162   6.682 -2.4826 -1.0023 -1.9544
  140OSM    C3F15334   2.811   1.315   6.835  1.0843 -0.1879  0.6440
  140OSM    H3F15335   2.757   1.407   6.866 -1.1171 -1.7641  1.7037
  140OSM    H3G15336   2.920   1.331   6.845  1.3868 -2.5014  1.2363
  140OSM    C4F15337   2.773   1.227   6.956 -0.4075 -0.0846  0.4039
  140OSM    H4F15338   2.811   1.123   6.945  0.9936  0.6223 -1.7788
  140OSM    H4G15339   2.663   1.236   6.956 -0.4203 -0.2227 -0.0036
  140OSM    C5F15340   2.840   1.258   7.095 -0.0301  0.3375  0.8871
  140OSM    H5F15341   2.793   1.354   7.125 -0.6060 -0.2794  2.0044
  140OSM    H5G15342   2.951   1.258   7.102  0.0148  1.7722  0.3387
  140OSM    C6F15343   2.797   1.160   7.210  0.0381 -0.4931 -0.3069
  140OSM    H6F15344   2.835   1.060   7.179 -0.9793 -1.1813  0.6028
  140OSM    H6G15345   2.687   1.170   7.196  0.3768  2.7186 -1.0698
  140OSM    C7F15346   2.839   1.204   7.354 -0.2870 -0.2398  0.4143
  140OSM    H7F15347   2.803   1.307   7.374 -2.0954 -0.6012 -0.8471
  140OSM    H7G15348   2.949   1.212   7.369  0.0996 -0.9364 -1.9161
  140OSM    C8F15349   2.774   1.109   7.455  0.4465 -0.2346  0.8453
  140OSM    H8F15350   2.827   1.126   7.551 -1.7911  1.4826  1.8250
  140OSM    H8G15351   2.810   1.010   7.419  1.4713  0.3820  0.1502
  140OSM    C9F15352   2.621   1.113   7.472 -0.1081  0.0610 -0.2071
  140OSM    H9F15353   2.564   1.058   7.396 -2.7348  1.6487  0.5593
  140OSM   C10F15354   2.551   1.165   7.577 -0.3500  1.1417 -0.4545
  140OSM   H10F15355   2.441   1.165   7.579 -0.3353 -0.4076  3.0525
  140OSM   C11F15356   2.604   1.236   7.701  0.0852 -0.5539 -0.2925
  140OSM   H11F15357   2.569   1.340   7.714 -0.6632 -0.6127 -1.7652
  140OSM   H11G15358   2.713   1.255   7.694  0.0941  0.0263  1.1860
  140OSM   C12F15359   2.596   1.154   7.831  0.3526  0.6652  0.6703
  140OSM   H12F15360   2.652   1.210   7.908 -2.3238  2.2019  1.5543
  140OSM   H12G15361   2.638   1.053   7.813 -1.0235  0.5185 -2.1385
  140OSM   C13F15362   2.453   1.129   7.879  0.4938 -0.6832  0.5438
  140OSM   H13F15363   2.402   1.055   7.815 -0.3135 -1.5002  2.1014
  140OSM   H13G15364   2.397   1.224   7.869  0.8449 -0.4698  0.5981
  140OSM   C14F15365   2.453   1.100   8.032 -0.1334 -0.2180  0.2712
  140OSM   H14F15366   2.498   1.189   8.081  1.1888 -0.9474  0.4245
  140OSM   H14G15367   2.529   1.020   8.049 -0.5324 -0.1108  2.7306
  140OSM   C15F15368   2.317   1.075   8.092 -0.1673  0.2784 -0.2695
  140OSM   H15F15369   2.273   0.979   8.060  0.4046 -1.0196  2.6825
  140OSM   H15G15370   2.249   1.156   8.058  0.2210  1.1737  1.0590
  140OSM   C16F15371   2.317   1.072   8.249  0.2506 -0.2618 -0.4327
  140OSM   H16F15372   2.407   1.021   8.288  0.7022  0.2460 -0.8004
  140OSM   H16G15373   2.221   1.024   8.278 -0.0212  1.4161  1.6280
  140OSM   C17F15374   2.301   1.208   8.322 -0.8152 -0.0475  0.4031
  140OSM   H17F15375   2.217   1.262   8.273 -1.7903 -1.2809  0.6654
  140OSM   H17G15376   2.391   1.270   8.310 -1.1130  1.3575  4.8417
  140OSM   C18F15377   2.268   1.199   8.471  0.1436  0.6688  0.3555
  140OSM   H18F15378   2.158   1.193   8.481  0.2529  1.0895  1.9091
  140OSM   H18G15379   2.315   1.287   8.520  2.1557  0.1189 -0.5086
  140OSM   H18H15380   2.313   1.105   8.511 -0.2671  0.3953  0.1831
  141OSM      N15381   2.076   3.341   6.042 -0.2200 -0.6015  0.5801
  141OSM    C1515382   2.140   3.273   5.924  0.6602 -0.6241  0.3990
  141OSM   H15A15383   2.110   3.313   5.828 -0.0178  1.2187  1.3687
  141OSM   H15B15384   2.098   3.173   5.928  1.3633 -0.8614  2.0909
  141OSM   H15C15385   2.248   3.278   5.928  0.7598  0.6057 -2.6144
  141OSM    C1415386   2.087   3.492   6.013  0.3904 -0.8447 -0.5525
  141OSM   H14A15387   2.032   3.542   6.092  1.6387  0.6103 -0.5991
  141OSM   H14B15388   2.029   3.511   5.924 -1.0584 -0.8715  0.3626
  141OSM   H14C15389   2.187   3.531   6.019  0.4346 -1.2028  1.3265
  141OSM    C1315390   1.932   3.306   6.040 -0.0902 -0.0136 -0.6274
  141OSM   H13A15391   1.883   3.290   5.945 -0.5575  0.1141 -0.4140
  141OSM   H13B15392   1.872   3.382   6.089  0.7347 -0.1610  0.6379
  141OSM   H13C15393   1.918   3.206   6.079 -1.9267  0.3341 -0.3461
  141OSM    C1215394   2.141   3.303   6.169 -0.4305 -0.9420  0.4840
  141OSM   H12A15395   2.081   3.334   6.253 -2.1492 -2.4636 -0.1451
  141OSM   H12B15396   2.233   3.358   6.183 -0.4901 -0.7062 -0.0376
  141OSM    C1115397   2.175   3.153   6.191  0.0660  0.0781  0.0492
  141OSM   H11A15398   2.243   3.137   6.278  1.4131  3.3186 -0.3507
  141OSM   H11B15399   2.242   3.129   6.105 -0.8935 -2.6456  0.0170
  141OSM      P15400   2.034   2.957   6.086  0.7057  0.6094  0.0727
  141OSM    O1315401   1.916   3.009   6.004 -0.0358  0.0090 -0.3531
  141OSM    O1415402   2.158   2.923   6.013 -0.4087 -0.3235 -0.1630
  141OSM    O1115403   1.989   2.832   6.175 -0.0973  0.2165  0.2554
  141OSM    O1215404   2.058   3.071   6.193 -0.4318  0.0616  0.0664
  141OSM    C1S15405   2.035   2.818   6.307 -0.7407  0.1730  0.5655
  141OSM    H1S15406   2.128   2.874   6.327 -0.9878  1.2699 -1.2257
  141OSM    H1T15407   2.057   2.710   6.324  2.6191  0.1795 -3.0971
  141OSM     NF15408   1.977   2.830   6.542 -0.0141 -0.3294 -0.2149
  141OSM    HNF15409   1.932   2.751   6.582 -2.5851  1.1905  0.0217
  141OSM    C2S15410   1.932   2.859   6.414 -0.1256 -0.1361 -0.2521
  141OSM    H2S15411   1.925   2.970   6.405 -1.6341 -0.1234  0.9392
  141OSM    C3S15412   1.790   2.804   6.377  0.0376 -0.0497 -0.3238
  141OSM    H3S15413   1.799   2.696   6.351  0.2006 -0.5558  1.7228
  141OSM     O315414   1.720   2.874   6.269 -0.0575 -0.3173  0.0874
  141OSM    HO315415   1.776   2.942   6.231 -0.8108  1.0375  1.3345
  141OSM    C4S15416   1.693   2.839   6.493 -0.3501 -0.2927 -0.0007
  141OSM    H4S15417   1.685   2.947   6.511 -0.1237 -0.2468 -0.1614
  141OSM    C5S15418   1.623   2.752   6.563  0.5244  0.4240 -0.1688
  141OSM    H5S15419   1.636   2.645   6.541  0.6816  0.9845 -2.9189
  141OSM    C6S15420   1.536   2.774   6.686 -0.9924 -0.0792  0.5582
  141OSM    H6S15421   1.447   2.707   6.684 -0.2270 -1.1102  0.9466
  141OSM    H6T15422   1.498   2.878   6.678 -1.8198 -0.4595 -0.7484
  141OSM    C7S15423   1.612   2.739   6.820  0.2940  0.2003  0.3701
  141OSM    H7S15424   1.714   2.784   6.827  1.7461 -3.1297  1.5549
  141OSM    H7T15425   1.629   2.629   6.820  0.2523  0.1713 -1.6173
  141OSM    C8S15426   1.531   2.793   6.941  0.3339 -0.2099  0.2628
  141OSM    H8S15427   1.433   2.741   6.950  0.4603 -0.8557 -1.8083
  141OSM    H8T15428   1.523   2.902   6.922  0.9158  0.0173  1.3129
  141OSM    C9S15429   1.600   2.762   7.074 -0.2455 -0.5023 -0.0398
  141OSM    H9S15430   1.708   2.789   7.067  0.1033 -1.5387  1.2266
  141OSM    H9T15431   1.594   2.654   7.098 -0.0939 -0.6140 -0.5050
  141OSM   C10S15432   1.529   2.825   7.194  0.4926 -0.1276 -0.0202
  141OSM   H10S15433   1.425   2.786   7.201  1.2717 -2.0390  1.3778
  141OSM   H10T15434   1.509   2.932   7.172  0.2342 -0.5455 -1.9400
  141OSM   C11S15435   1.609   2.832   7.329 -0.2477  0.0454  0.5768
  141OSM   H11S15436   1.701   2.889   7.307 -0.8834  0.7995 -0.1758
  141OSM   H11T15437   1.629   2.726   7.356  0.1333 -0.0463 -0.0467
  141OSM   C12S15438   1.544   2.902   7.451  0.2211 -0.7202  0.1797
  141OSM   H12S15439   1.437   2.871   7.463 -0.1130  0.0701 -0.7180
  141OSM   H12T15440   1.539   3.012   7.438  0.5989 -0.6997  0.2157
  141OSM   C13S15441   1.623   2.858   7.575  0.1451  0.1960 -0.7370
  141OSM   H13S15442   1.727   2.894   7.590  0.0018  0.7781 -1.1003
  141OSM   H13T15443   1.642   2.749   7.575 -0.4263  0.0778 -2.6769
  141OSM   C14S15444   1.552   2.890   7.709  0.1040  0.2028  0.1351
  141OSM   H14S15445   1.445   2.860   7.705  0.4162 -0.8064 -1.2994
  141OSM   H14T15446   1.560   2.996   7.740  1.5813  0.0350  0.3396
  141OSM   C15S15447   1.596   2.805   7.827  0.3426  0.6402  0.3964
  141OSM   H15S15448   1.700   2.828   7.857 -0.5834  1.8422  2.8290
  141OSM   H15T15449   1.600   2.694   7.817  0.3394  0.7382 -0.6915
  141OSM   C16S15450   1.517   2.841   7.956  0.5579  0.5022 -0.2059
  141OSM   H16S15451   1.501   2.951   7.958 -2.1525  0.1892 -1.9642
  141OSM   H16T15452   1.583   2.815   8.042  0.5331 -1.5589 -0.7895
  141OSM   C17S15453   1.387   2.764   7.943 -0.3784 -0.0534 -0.1226
  141OSM   H17S15454   1.404   2.668   7.889  1.5578 -0.2330  0.7720
  141OSM   H17T15455   1.315   2.831   7.891  1.2384  0.9065 -1.1201
  141OSM   C18S15456   1.331   2.719   8.080 -0.3390  0.1851  0.0234
  141OSM   H18S15457   1.306   2.811   8.138 -1.5631  0.0522 -0.2841
  141OSM   H18T15458   1.401   2.652   8.135 -0.6817  0.1888  0.4678
  141OSM   H18U15459   1.228   2.679   8.071 -1.1943  2.3811 -0.2729
  141OSM    C1F15460   2.091   2.884   6.595 -0.3959 -0.4629  0.1944
  141OSM     OF15461   2.165   2.958   6.537 -0.0770 -0.1525  0.5050
  141OSM    C2F15462   2.126   2.846   6.732 -0.2699 -0.1261  0.1903
  141OSM    H2F15463   2.157   2.740   6.728 -1.3852 -0.3918 -1.9154
  141OSM    H2G15464   2.033   2.852   6.792  0.4103  0.8399  1.1866
  141OSM    C3F15465   2.256   2.925   6.775 -0.4093  0.6313  0.2349
  141OSM    H3F15466   2.232   3.033   6.771 -2.2534  0.1754 -3.3498
  141OSM    H3G15467   2.343   2.898   6.710  0.6895  2.4961  0.9149
  141OSM    C4F15468   2.299   2.889   6.919  0.3545  0.2788  0.6649
  141OSM    H4F15469   2.317   2.780   6.932  0.2567 -0.0604 -1.7038
  141OSM    H4G15470   2.214   2.919   6.983 -1.4134 -0.4018 -1.2971
  141OSM    C5F15471   2.428   2.948   6.978 -0.0705  0.7186  0.6465
  141OSM    H5F15472   2.403   3.056   6.983  0.4386  0.9216 -1.0457
  141OSM    H5G15473   2.509   2.936   6.904  0.4714 -3.3667  1.8095
  141OSM    C6F15474   2.463   2.907   7.124  0.4385 -0.2347 -0.0412
  141OSM    H6F15475   2.557   2.962   7.149 -1.1763  2.3827  0.5197
  141OSM    H6G15476   2.500   2.803   7.128  1.0927 -0.0274 -0.5522
  141OSM    C7F15477   2.341   2.919   7.218  0.1420  0.1261 -0.1333
  141OSM    H7F15478   2.263   2.847   7.187  1.4103 -0.7173 -1.4035
  141OSM    H7G15479   2.300   3.022   7.213  0.9428  0.6638  3.1720
  141OSM    C8F15480   2.373   2.884   7.366  0.1625 -0.2301 -0.2315
  141OSM    H8F15481   2.403   2.778   7.371  0.3376 -0.1313  0.9602
  141OSM    H8G15482   2.277   2.894   7.422  0.7046 -0.3991  0.7454
  141OSM    C9F15483   2.483   2.977   7.428 -0.1596  0.6282  0.0625
  141OSM    H9F15484   2.583   2.986   7.382  0.5096  1.8490  1.7303
  141OSM   C10F15485   2.457   3.042   7.544  0.2451  0.0853  0.7810
  141OSM   H10F15486   2.535   3.113   7.575  0.9931  0.2959 -1.5069
  141OSM   C11F15487   2.342   3.042   7.638 -0.1789  0.4022 -0.8217
  141OSM   H11F15488   2.247   3.011   7.589  1.2062 -2.0419 -2.0673
  141OSM   H11G15489   2.337   3.144   7.682 -0.5447  0.3115 -0.6470
  141OSM   C12F15490   2.348   2.949   7.760  0.4414 -0.8574  0.0522
  141OSM   H12F15491   2.415   2.985   7.840 -0.2624 -1.0017  0.7078
  141OSM   H12G15492   2.379   2.847   7.728  1.2192 -0.1585 -1.4712
  141OSM   C13F15493   2.211   2.955   7.836  0.2068 -0.2165 -0.2562
  141OSM   H13F15494   2.134   2.934   7.759 -1.9112 -0.6974  1.9274
  141OSM   H13G15495   2.196   3.062   7.860 -0.7700 -0.4636  0.2674
  141OSM   C14F15496   2.211   2.860   7.960  0.5505 -0.0755  0.0849
  141OSM   H14F15497   2.286   2.891   8.035 -0.6555  1.2753  0.7571
  141OSM   H14G15498   2.260   2.767   7.923  2.1123  0.9922 -0.6023
  141OSM   C15F15499   2.077   2.865   8.025 -0.2211  0.2209  0.5452
  141OSM   H15F15500   1.992   2.836   7.959 -0.7561 -1.5303  1.9630
  141OSM   H15G15501   2.037   2.964   8.053 -1.8588 -0.1760 -0.3222
  141OSM   C16F15502   2.068   2.782   8.157 -0.6160 -0.5987  0.1435
  141OSM   H16F15503   2.156   2.805   8.220 -0.4265 -0.1289 -0.2904
  141OSM   H16G15504   2.086   2.679   8.118 -2.8162 -0.3450 -1.6859
  141OSM   C17F15505   1.936   2.790   8.228 -0.0030 -0.3344 -0.8015
  141OSM   H17F15506   1.918   2.898   8.246 -1.0006 -0.7133  0.5622
  141OSM   H17G15507   1.950   2.728   8.319  0.5234 -2.6849 -2.4439
  141OSM   C18F15508   1.821   2.726   8.153  0.1015 -0.0594 -0.1353
  141OSM   H18F15509   1.724   2.747   8.204 -0.2067 -2.3056  0.2521
  141OSM   H18G15510   1.835   2.617   8.141 -0.1120  0.0121 -1.0643
  141OSM   H18H15511   1.804   2.773   8.054  2.3261  1.2265  0.0650
  142OSM      N15512   2.418   4.306   6.110  0.2046 -0.3607 -0.0604
  142OSM    C1515513   2.442   4.223   5.988  0.3827 -0.1205  0.4573
  142OSM   H15A15514   2.345   4.225   5.940 -1.2030 -0.3014  3.5511
  142OSM   H15B15515   2.455   4.119   6.011 -2.8272 -0.5381  0.6527
  142OSM   H15C15516   2.526   4.248   5.925 -0.5848 -0.8438 -1.1578
  142OSM    C1415517   2.550   4.320   6.175 -0.7894  0.1203 -0.3135
  142OSM   H14A15518   2.531   4.376   6.266 -0.3643 -0.2641  0.0146
  142OSM   H14B15519   2.618   4.372   6.110  1.8133 -0.5076  1.7932
  142OSM   H14C15520   2.603   4.229   6.201 -0.6967  0.6056  1.2899
  142OSM    C1315521   2.380   4.448   6.061  0.0962 -0.1486 -0.5599
  142OSM   H13A15522   2.465   4.497   6.015  0.2581  0.0693 -0.0349
  142OSM   H13B15523   2.362   4.504   6.152 -0.7930 -0.3140 -0.6297
  142OSM   H13C15524   2.290   4.454   6.002 -0.9715 -0.6796  0.9932
  142OSM    C1215525   2.318   4.241   6.210  0.2470  0.3133 -0.0912
  142OSM   H12A15526   2.360   4.143   6.230  0.2871  0.6259  1.3942
  142OSM   H12B15527   2.220   4.224   6.168  0.9863 -0.0357 -1.7554
  142OSM    C1115528   2.291   4.316   6.339 -0.3227  0.4860 -0.9119
  142OSM   H11A15529   2.378   4.328   6.407  0.0942 -0.0810 -1.3489
  142OSM   H11B15530   2.210   4.268   6.397 -0.0033 -0.3661 -1.1715
  142OSM      P15531   2.092   4.485   6.293 -0.3552 -0.3588  0.1269
  142OSM    O1315532   2.075   4.613   6.222 -0.3015 -0.5618 -0.2822
  142OSM    O1415533   2.024   4.374   6.225  0.0246  0.1081  0.1491
  142OSM    O1115534   2.053   4.493   6.449 -0.5327  0.4657  0.1710
  142OSM    O1215535   2.245   4.452   6.306  0.1268  0.0801 -0.0421
  142OSM    C1S15536   2.113   4.584   6.536 -0.5814  0.3815 -0.1326
  142OSM    H1S15537   2.130   4.684   6.490  2.1950  1.1182  2.3590
  142OSM    H1T15538   2.215   4.545   6.557 -1.3476 -0.1070  2.8868
  142OSM     NF15539   2.089   4.687   6.751  0.2109  0.2435  0.4922
  142OSM    HNF15540   2.142   4.660   6.831  1.9036  1.2597 -0.2532
  142OSM    C2S15541   2.034   4.586   6.668  0.6057  0.0618 -0.7992
  142OSM    H2S15542   1.927   4.613   6.653  0.4603 -1.1565 -2.1271
  142OSM    C3S15543   2.019   4.440   6.728  0.3995 -0.1970 -0.3201
  142OSM    H3S15544   2.122   4.398   6.723  1.0289  1.4200 -1.3687
  142OSM     O315545   1.945   4.353   6.646 -0.1097  0.4066 -0.2397
  142OSM    HO315546   1.980   4.381   6.561 -1.7197 -0.2198 -1.1344
  142OSM    C4S15547   1.956   4.456   6.864 -0.6777  0.3860  0.2211
  142OSM    H4S15548   1.854   4.495   6.858 -0.0102  1.9788 -1.4134
  142OSM    C5S15549   2.008   4.410   6.978 -0.4536  0.1540  0.3473
  142OSM    H5S15550   2.104   4.357   6.966  0.4917  1.7927  0.4404
  142OSM    C6S15551   1.938   4.402   7.106 -0.3815 -0.2849 -0.0423
  142OSM    H6S15552   2.010   4.433   7.184  0.5266  1.8381 -1.6968
  142OSM    H6T15553   1.927   4.296   7.141  2.8915 -1.0547 -1.2127
  142OSM    C7S15554   1.798   4.462   7.106  0.0665  0.9320  0.7335
  142OSM    H7S15555   1.735   4.444   7.017  1.9950  2.1172 -0.9253
  142OSM    H7T15556   1.818   4.571   7.091 -1.2668  1.3476  1.9234
  142OSM    C8S15557   1.719   4.447   7.245 -0.3294 -0.2536 -0.8089
  142OSM    H8S15558   1.664   4.351   7.246 -0.2916 -0.3055 -2.3459
  142OSM    H8T15559   1.631   4.515   7.237  0.4060  0.6251 -1.6057
  142OSM    C9S15560   1.788   4.473   7.375 -0.2422 -0.3618 -0.2471
  142OSM    H9S15561   1.862   4.392   7.393  0.2051  0.0338 -0.2995
  142OSM    H9T15562   1.709   4.491   7.452  2.3910  4.1869  1.5963
  142OSM   C10S15563   1.862   4.610   7.375 -0.3173 -0.0734 -0.2751
  142OSM   H10S15564   1.779   4.680   7.350  0.0390  1.3483  2.3701
  142OSM   H10T15565   1.945   4.607   7.301 -0.0155 -0.1340  0.0668
  142OSM   C11S15566   1.934   4.640   7.504 -0.6663 -0.5106  0.1702
  142OSM   H11S15567   1.990   4.735   7.496  4.7586 -3.3952  1.7341
  142OSM   H11T15568   2.006   4.557   7.514 -0.3418 -0.4947 -1.9977
  142OSM   C12S15569   1.838   4.641   7.625 -0.6083 -0.0222  0.2683
  142OSM   H12S15570   1.821   4.534   7.651  0.6167 -0.4648 -0.6864
  142OSM   H12T15571   1.751   4.701   7.592  0.4915  0.3583 -1.9919
  142OSM   C13S15572   1.916   4.708   7.742 -0.0867 -0.0592 -0.3881
  142OSM   H13S15573   1.981   4.787   7.698  1.5996 -0.9313  0.5097
  142OSM   H13T15574   1.998   4.640   7.772 -0.8930 -0.8317  0.0812
  142OSM   C14S15575   1.828   4.741   7.863  0.4487  0.3976 -0.3460
  142OSM   H14S15576   1.792   4.645   7.904 -1.3108  0.3879 -1.8352
  142OSM   H14T15577   1.742   4.802   7.828 -0.6965 -0.8648  0.2498
  142OSM   C15S15578   1.912   4.799   7.975 -0.6520  0.0835 -0.2975
  142OSM   H15S15579   1.938   4.902   7.944 -0.3894  0.4213  1.0243
  142OSM   H15T15580   1.998   4.735   8.004 -0.1663 -0.1934 -2.2640
  142OSM   C16S15581   1.828   4.811   8.111  0.4576 -0.3857 -0.1771
  142OSM   H16S15582   1.822   4.708   8.150 -1.7601 -1.0774 -2.1861
  142OSM   H16T15583   1.727   4.858   8.101 -0.6057 -2.7382 -0.7769
  142OSM   C17S15584   1.917   4.898   8.195  0.1975 -0.0029  0.0520
  142OSM   H17S15585   1.928   4.994   8.140  0.1495  1.5709  2.6967
  142OSM   H17T15586   2.014   4.848   8.212  0.0704 -0.7913 -1.4351
  142OSM   C18S15587   1.854   4.920   8.332 -0.2024 -0.1777  0.1202
  142OSM   H18S15588   1.924   4.960   8.408 -0.5198 -0.3217  0.4909
  142OSM   H18T15589   1.823   4.821   8.374 -0.1328 -1.0013 -1.7141
  142OSM   H18U15590   1.766   4.988   8.335 -1.4840 -1.8245  1.0109
  142OSM    C1F15591   2.092   4.820   6.716 -0.0190  0.3059 -0.5771
  142OSM     OF15592   2.031   4.868   6.618 -0.0251 -0.0755  0.3705
  142OSM    C2F15593   2.177   4.900   6.802 -1.1366  0.6951  0.5559
  142OSM    H2F15594   2.281   4.866   6.787 -1.1603  0.0650  1.6999
  142OSM    H2G15595   2.159   4.860   6.905 -1.3432  0.6139  0.4888
  142OSM    C3F15596   2.158   5.051   6.779 -0.2353  0.2695 -0.1892
  142OSM    H3F15597   2.055   5.088   6.796 -0.4801 -0.3702 -0.2679
  142OSM    H3G15598   2.183   5.075   6.674  1.5916  2.4007  0.6757
  142OSM    C4F15599   2.244   5.127   6.880 -0.2197 -0.1841  0.0867
  142OSM    H4F15600   2.229   5.232   6.848 -3.9189 -0.4067  0.9537
  142OSM    H4G15601   2.353   5.106   6.874 -0.2043 -0.3958  0.9789
  142OSM    C5F15602   2.213   5.090   7.025 -0.5748  0.9958  0.2298
  142OSM    H5F15603   2.254   4.991   7.054  0.3776  1.2621 -0.1925
  142OSM    H5G15604   2.106   5.095   7.055 -0.3508 -0.1616  1.2472
  142OSM    C6F15605   2.279   5.190   7.125 -0.2708 -0.2675 -0.4676
  142OSM    H6F15606   2.234   5.290   7.108 -0.7882 -0.2375  1.0570
  142OSM    H6G15607   2.386   5.190   7.094  0.6685 -2.3327  2.5524
  142OSM    C7F15608   2.260   5.166   7.271  0.6552  0.3678 -0.0534
  142OSM    H7F15609   2.335   5.091   7.305  0.4575  1.9987  4.2648
  142OSM    H7G15610   2.154   5.138   7.292 -0.1575  0.7266 -3.4491
  142OSM    C8F15611   2.292   5.294   7.346 -0.3918 -0.3491 -0.1467
  142OSM    H8F15612   2.254   5.285   7.450  1.1088 -0.9732  0.3483
  142OSM    H8G15613   2.229   5.372   7.296  1.8622  3.5328  2.8191
  142OSM    C9F15614   2.436   5.352   7.325 -0.1044 -0.0131  1.0141
  142OSM    H9F15615   2.455   5.390   7.223  1.7236 -0.2022  1.2775
  142OSM   C10F15616   2.533   5.352   7.412 -0.2375 -0.0548 -0.8296
  142OSM   H10F15617   2.631   5.394   7.385  0.4812 -1.1028  0.0697
  142OSM   C11F15618   2.528   5.292   7.548 -0.6597  0.4047 -0.1953
  142OSM   H11F15619   2.585   5.197   7.556  0.1051  0.7256 -1.7456
  142OSM   H11G15620   2.426   5.256   7.572  0.2627 -2.1033  0.1511
  142OSM   C12F15621   2.574   5.382   7.668  0.5616  0.9575 -0.1728
  142OSM   H12F15622   2.514   5.474   7.681  0.2555  0.6105  0.9131
  142OSM   H12G15623   2.679   5.412   7.648  1.0207 -0.0195  0.7549
  142OSM   C13F15624   2.564   5.305   7.797  0.0799 -0.5055 -0.0365
  142OSM   H13F15625   2.596   5.199   7.805 -0.5947 -0.7287 -0.2850
  142OSM   H13G15626   2.456   5.310   7.821  0.3414  0.6787  0.9448
  142OSM   C14F15627   2.636   5.380   7.914 -0.1494  0.1780 -0.5784
  142OSM   H14F15628   2.629   5.490   7.901  0.4672  0.3550  0.5130
  142OSM   H14G15629   2.745   5.361   7.902  0.2902  1.2977  1.4153
  142OSM   C15F15630   2.570   5.346   8.052 -0.1454 -0.2658  0.0372
  142OSM   H15F15631   2.576   5.240   8.084  2.5573  0.1160  0.9701
  142OSM   H15G15632   2.462   5.359   8.033 -0.7543 -1.5192  2.4818
  142OSM   C16F15633   2.612   5.428   8.169  0.4057  0.7511 -0.0111
  142OSM   H16F15634   2.550   5.403   8.257  0.4122  0.9714  0.0575
  142OSM   H16G15635   2.608   5.538   8.155  1.3247  0.5793 -1.7583
  142OSM   C17F15636   2.758   5.400   8.215  0.5822  0.0664 -0.5647
  142OSM   H17F15637   2.824   5.468   8.158  0.8964 -0.4341 -0.7948
  142OSM   H17G15638   2.797   5.300   8.185  0.3570  0.4402 -2.1381
  142OSM   C18F15639   2.792   5.444   8.352 -0.1845 -0.3704  0.1165
  142OSM   H18F15640   2.901   5.459   8.370 -0.4177 -0.8139  1.9742
  142OSM   H18G15641   2.754   5.376   8.431 -3.3972  1.7194  0.4628
  142OSM   H18H15642   2.748   5.544   8.374  1.6774  0.1205  1.7473
  143OSM      N15643   3.936   6.463   6.152 -0.0369 -0.0880  0.5439
  143OSM    C1515644   4.019   6.474   6.034  0.0787  0.5937  0.0876
  143OSM   H15A15645   3.981   6.546   5.964 -1.4931  1.2739  1.6194
  143OSM   H15B15646   4.033   6.382   5.980 -0.6177  0.7781 -0.4014
  143OSM   H15C15647   4.115   6.509   6.070  1.2889 -0.6834 -1.7889
  143OSM    C1415648   3.807   6.408   6.109  0.0846 -0.0697 -0.2993
  143OSM   H14A15649   3.734   6.389   6.186  0.7411 -2.2381 -0.1639
  143OSM   H14B15650   3.819   6.312   6.061  3.6195 -0.0681  0.4361
  143OSM   H14C15651   3.761   6.476   6.039 -0.1063  1.0022  0.8538
  143OSM    C1315652   3.999   6.377   6.264  0.3033  0.1887  0.0647
  143OSM   H13A15653   4.102   6.400   6.289  0.1417  1.1920 -0.1762
  143OSM   H13B15654   3.996   6.270   6.248  2.4845  0.1513 -0.2722
  143OSM   H13C15655   3.952   6.392   6.360 -2.0559 -2.9405 -0.4995
  143OSM    C1215656   3.921   6.605   6.205  0.2249  0.2714 -0.0456
  143OSM   H12A15657   3.899   6.665   6.118  1.3896 -1.0983 -1.3025
  143OSM   H12B15658   4.016   6.644   6.239  0.6768 -2.4044  1.9514
  143OSM    C1115659   3.833   6.634   6.325 -0.3399  0.6281  0.6016
  143OSM   H11A15660   3.853   6.727   6.382 -1.2948  0.8482  0.5871
  143OSM   H11B15661   3.842   6.554   6.401  0.4261  0.4364  0.3107
  143OSM      P15662   3.635   6.762   6.214 -0.3259  0.2625 -0.0984
  143OSM    O1315663   3.730   6.829   6.123 -0.0335 -0.0069 -0.3848
  143OSM    O1415664   3.510   6.712   6.153  0.1245 -0.0018 -0.6728
  143OSM    O1115665   3.601   6.862   6.340  0.2067 -0.1885  0.6760
  143OSM    O1215666   3.703   6.641   6.278  0.4927  0.5231 -0.4626
  143OSM    C1S15667   3.546   6.811   6.464 -0.1127 -0.1005  0.2258
  143OSM    H1S15668   3.622   6.756   6.524 -0.0335 -0.2149  0.0238
  143OSM    H1T15669   3.459   6.743   6.454 -0.2083  0.5719 -4.7193
  143OSM     NF15670   3.471   6.888   6.689 -0.2666 -0.0349  0.2006
  143OSM    HNF15671   3.375   6.884   6.715 -0.5893  0.2636 -0.9195
  143OSM    C2S15672   3.505   6.932   6.551  0.3545 -0.4612 -0.7420
  143OSM    H2S15673   3.584   7.010   6.556  0.5612 -0.8301  2.5789
  143OSM    C3S15674   3.390   7.015   6.486  0.0939  0.7140 -0.0737
  143OSM    H3S15675   3.305   6.943   6.485 -0.5469  1.4631 -0.3813
  143OSM     O315676   3.422   7.070   6.353 -0.6309 -0.4497 -0.5878
  143OSM    HO315677   3.503   7.023   6.332 -0.9611 -0.7852 -1.1062
  143OSM    C4S15678   3.343   7.124   6.587 -0.2113 -0.4863  0.6216
  143OSM    H4S15679   3.427   7.181   6.629 -0.2699  0.4991 -0.5807
  143OSM    C5S15680   3.220   7.130   6.645 -0.2209 -0.1902 -0.7465
  143OSM    H5S15681   3.147   7.055   6.612  0.3729 -0.5614 -1.2323
  143OSM    C6S15682   3.180   7.230   6.753  0.2996 -0.3296 -0.1973
  143OSM    H6S15683   3.102   7.173   6.808 -1.9089  1.5951 -1.2322
  143OSM    H6T15684   3.136   7.320   6.706  1.1143  0.3056  0.2652
  143OSM    C7S15685   3.284   7.271   6.858 -0.6014 -0.5476 -0.2967
  143OSM    H7S15686   3.256   7.374   6.889  0.2136 -0.1687 -0.7836
  143OSM    H7T15687   3.386   7.283   6.814  0.3222 -1.9425  1.4039
  143OSM    C8S15688   3.290   7.175   6.979 -0.1178 -0.1042 -0.4333
  143OSM    H8S15689   3.315   7.076   6.934 -0.8548 -1.4776  2.1097
  143OSM    H8T15690   3.190   7.164   7.028  0.2320  2.6661  0.9891
  143OSM    C9S15691   3.403   7.217   7.074 -0.0058 -0.5851  0.0092
  143OSM    H9S15692   3.382   7.311   7.129 -1.9209 -1.6638  1.1471
  143OSM    H9T15693   3.494   7.232   7.012 -1.6012  0.1147 -2.2313
  143OSM   C10S15694   3.445   7.117   7.180 -0.2384 -0.8225  0.7850
  143OSM   H10S15695   3.532   7.153   7.237  1.2855 -1.2658 -1.2126
  143OSM   H10T15696   3.475   7.017   7.141  1.6793  0.6522 -1.6413
  143OSM   C11S15697   3.340   7.079   7.286 -0.1360 -0.4719 -0.2900
  143OSM   H11S15698   3.319   6.972   7.270 -3.1692  0.0765 -0.2429
  143OSM   H11T15699   3.247   7.138   7.270  0.9970  1.2175 -0.8414
  143OSM   C12S15700   3.381   7.088   7.433 -0.7571 -0.6910 -0.2931
  143OSM   H12S15701   3.481   7.042   7.431  0.1972  1.3625 -1.1922
  143OSM   H12T15702   3.315   7.025   7.497  0.3837 -1.1809  0.4023
  143OSM   C13S15703   3.388   7.235   7.492  0.2390  0.0357 -0.4173
  143OSM   H13S15704   3.291   7.289   7.499  1.0549  1.4664  0.0586
  143OSM   H13T15705   3.444   7.291   7.414  0.9299  0.7209  0.5514
  143OSM   C14S15706   3.456   7.244   7.624  0.7510  0.7654 -0.2956
  143OSM   H14S15707   3.456   7.352   7.650  0.5470  0.6850  0.0422
  143OSM   H14T15708   3.558   7.201   7.615  0.2103 -0.5053 -0.5562
  143OSM   C15S15709   3.386   7.168   7.734  0.0728 -0.0509  0.1585
  143OSM   H15S15710   3.391   7.059   7.712 -1.4212 -0.3097  1.0093
  143OSM   H15T15711   3.278   7.194   7.740  0.1928  0.0511  2.0701
  143OSM   C16S15712   3.452   7.182   7.874  0.2709 -0.3355  0.2648
  143OSM   H16S15713   3.373   7.158   7.948  0.8481 -0.6673  0.7747
  143OSM   H16T15714   3.495   7.281   7.901  0.5675  0.1159 -1.7926
  143OSM   C17S15715   3.569   7.082   7.885 -0.0150 -1.4578 -0.3016
  143OSM   H17S15716   3.656   7.118   7.826  1.3048  0.3969  2.6306
  143OSM   H17T15717   3.545   6.987   7.832  0.1489 -1.5031 -0.2932
  143OSM   C18S15718   3.612   7.068   8.027 -0.6520 -1.2328  0.4945
  143OSM   H18S15719   3.621   7.176   8.050 -2.1940 -1.1306  0.6777
  143OSM   H18T15720   3.708   7.014   8.040 -0.3315 -0.7641  0.0987
  143OSM   H18U15721   3.534   7.027   8.095 -0.5264 -2.0694  0.1409
  143OSM    C1F15722   3.564   6.857   6.778 -0.5871 -0.5786  0.3630
  143OSM     OF15723   3.679   6.853   6.737  0.1889  0.3099 -0.4015
  143OSM    C2F15724   3.527   6.842   6.917 -0.2358 -0.2381 -0.2848
  143OSM    H2F15725   3.421   6.867   6.941  0.1179  0.2087  0.8173
  143OSM    H2G15726   3.590   6.917   6.969  0.1273  2.5397 -4.4597
  143OSM    C3F15727   3.558   6.705   6.982 -0.6038 -0.0391  0.1271
  143OSM    H3F15728   3.667   6.683   6.973 -0.4898  1.4885 -2.7829
  143OSM    H3G15729   3.505   6.623   6.930 -2.0073  1.2762 -0.5467
  143OSM    C4F15730   3.542   6.694   7.134 -0.0609 -0.0159 -0.1626
  143OSM    H4F15731   3.551   6.591   7.174  0.1468  0.2824  0.5795
  143OSM    H4G15732   3.441   6.737   7.152 -0.6845 -1.4112 -0.3239
  143OSM    C5F15733   3.636   6.779   7.224  0.3108 -0.2423 -0.3873
  143OSM    H5F15734   3.639   6.887   7.197 -0.4267  0.1875  1.2151
  143OSM    H5G15735   3.734   6.733   7.203 -0.0743 -0.5856 -1.5080
  143OSM    C6F15736   3.600   6.768   7.375 -0.6472  0.1832 -0.4651
  143OSM    H6F15737   3.491   6.745   7.372 -0.2952 -1.3117 -2.6469
  143OSM    H6G15738   3.626   6.863   7.428 -2.1012 -0.5696  1.6772
  143OSM    C7F15739   3.675   6.644   7.445 -1.0591  0.0913  0.0494
  143OSM    H7F15740   3.779   6.674   7.472 -1.0937 -0.4162  0.7456
  143OSM    H7G15741   3.679   6.565   7.368  1.8207 -0.6352  0.8819
  143OSM    C8F15742   3.609   6.596   7.573 -0.6665  0.0502  0.0226
  143OSM    H8F15743   3.656   6.498   7.598 -1.0692 -0.0896  0.2328
  143OSM    H8G15744   3.507   6.565   7.544 -1.2089 -1.3671  3.2364
  143OSM    C9F15745   3.598   6.691   7.688 -0.4487  0.2249 -0.8903
  143OSM    H9F15746   3.560   6.791   7.660 -0.3098  0.3878 -0.5051
  143OSM   C10F15747   3.658   6.680   7.804 -0.0840  0.3259  0.0166
  143OSM   H10F15748   3.624   6.748   7.883 -0.5578  0.9008 -0.6783
  143OSM   C11F15749   3.746   6.563   7.847  0.4068  0.6037  0.3324
  143OSM   H11F15750   3.812   6.539   7.761 -1.4785  1.1185 -1.2936
  143OSM   H11G15751   3.685   6.471   7.858  0.0662  0.6605 -1.0237
  143OSM   C12F15752   3.828   6.588   7.974  0.3941  0.3837 -0.5436
  143OSM   H12F15753   3.884   6.497   8.006 -2.0986 -0.1655  2.5029
  143OSM   H12G15754   3.761   6.607   8.061 -1.8178 -1.9478 -1.6665
  143OSM   C13F15755   3.927   6.698   7.966  0.1324  0.0074  0.3790
  143OSM   H13F15756   3.894   6.785   7.906 -1.2121 -1.4725 -1.0614
  143OSM   H13G15757   4.017   6.650   7.921  1.0648 -0.4791  2.6819
  143OSM   C14F15758   3.977   6.746   8.099  0.2447  0.1623  0.1082
  143OSM   H14F15759   4.082   6.780   8.091  1.1843 -2.2642  1.5245
  143OSM   H14G15760   3.970   6.652   8.157 -0.1042 -0.8183 -1.4781
  143OSM   C15F15761   3.884   6.847   8.172 -0.1119  0.1727  0.1060
  143OSM   H15F15762   3.786   6.794   8.177  0.1729 -0.1891  2.1927
  143OSM   H15G15763   3.878   6.945   8.121  0.9351  0.0193 -0.3236
  143OSM   C16F15764   3.920   6.890   8.318 -0.0637  0.1863 -0.2022
  143OSM   H16F15765   4.027   6.920   8.321 -0.1551  0.3092  2.5623
  143OSM   H16G15766   3.918   6.806   8.391  2.5756 -0.9303 -1.3751
  143OSM   C17F15767   3.836   7.002   8.373  0.7767 -0.0940 -0.1021
  143OSM   H17F15768   3.731   6.972   8.393  1.0237  0.8161  2.9001
  143OSM   H17G15769   3.832   7.077   8.291  1.8808 -1.4368 -1.4054
  143OSM   C18F15770   3.896   7.059   8.500  0.5237 -0.2355 -0.3841
  143OSM   H18F15771   3.896   6.982   8.580 -0.6757 -0.9597 -1.0706
  143OSM   H18G15772   3.833   7.145   8.534 -0.6706 -1.7589  1.3442
  143OSM   H18H15773   4.000   7.096   8.487  0.0983  0.8470 -0.7954
  144OSM      N15774   2.090   0.077   5.975 -0.0094 -0.0899  0.3467
  144OSM    C1515775   1.948   0.104   5.928 -0.1943 -0.1257 -0.7644
  144OSM   H15A15776   1.905   0.199   5.956  2.4887  0.7389  0.6525
  144OSM   H15B15777   1.884   0.040   5.986  2.5431 -0.9405  1.4875
  144OSM   H15C15778   1.935   0.102   5.821  1.3834 -0.3293 -0.9742
  144OSM    C1415779   2.155  -0.031   5.894  0.5239  0.4092 -0.3298
  144OSM   H14A15780   2.102  -0.120   5.926  1.1307 -0.1465 -0.8620
  144OSM   H14B15781   2.256  -0.056   5.920  0.4299  0.7377  0.3581
  144OSM   H14C15782   2.149  -0.009   5.788  0.3527  3.8602  0.3485
  144OSM    C1315783   2.172   0.196   5.960 -0.2022 -0.1664 -0.4765
  144OSM   H13A15784   2.147   0.278   6.025  0.5409 -0.8447  0.6926
  144OSM   H13B15785   2.186   0.227   5.858 -0.3763 -3.3037 -1.5074
  144OSM   H13C15786   2.274   0.167   5.980 -0.8457 -0.5568  2.4660
  144OSM    C1215787   2.084   0.045   6.117  0.1450  0.3388  0.1562
  144OSM   H12A15788   2.031   0.118   6.177 -0.4865  0.0047  0.0084
  144OSM   H12B15789   2.181   0.047   6.163 -1.0755  1.1468  2.8416
  144OSM    C1115790   2.036  -0.100   6.152 -0.2622 -0.3145  0.0521
  144OSM   H11A15791   1.934  -0.111   6.109 -0.8041  2.1496  0.6173
  144OSM   H11B15792   2.018  -0.117   6.260 -1.9272 -2.5993 -0.5408
  144OSM      P15793   2.152  -0.336   6.157  0.1943  0.3460  0.1131
  144OSM    O1315794   2.024  -0.416   6.131  0.5502  0.0591  0.5684
  144OSM    O1415795   2.280  -0.391   6.113  0.8658  0.1600 -0.7730
  144OSM    O1115796   2.176  -0.318   6.306  0.1560 -0.0575  0.1937
  144OSM    O1215797   2.132  -0.191   6.103 -0.2190  0.3733  0.0789
  144OSM    C1S15798   2.270  -0.229   6.363 -0.1893 -0.1634  0.2733
  144OSM    H1S15799   2.239  -0.123   6.363  0.2953 -0.0184  0.4403
  144OSM    H1T15800   2.372  -0.233   6.317  0.2885  1.2543  1.1664
  144OSM     NF15801   2.370  -0.180   6.581 -0.6526 -0.0648 -0.0250
  144OSM    HNF15802   2.470  -0.190   6.586 -0.9805 -3.3499  1.2243
  144OSM    C2S15803   2.291  -0.280   6.514 -0.2850  0.4335  0.2228
  144OSM    H2S15804   2.195  -0.290   6.568 -0.3447 -3.2612 -0.4403
  144OSM    C3S15805   2.353  -0.425   6.513 -0.5446 -0.4884 -0.2017
  144OSM    H3S15806   2.448  -0.427   6.457 -0.4194  2.1977 -0.1499
  144OSM     O315807   2.258  -0.519   6.454 -0.0155 -0.0732  0.2410
  144OSM    HO315808   2.184  -0.464   6.426 -1.3728 -1.7049  0.5195
  144OSM    C4S15809   2.381  -0.466   6.653 -0.3247 -0.0190  0.2476
  144OSM    H4S15810   2.453  -0.396   6.700  1.0265 -0.3231 -1.3316
  144OSM    C5S15811   2.311  -0.554   6.728  0.2955 -0.6103  0.5974
  144OSM    H5S15812   2.226  -0.612   6.690 -0.1990 -0.0234  0.8080
  144OSM    C6S15813   2.338  -0.579   6.873  0.1866 -0.1932  0.1448
  144OSM    H6S15814   2.444  -0.574   6.906  0.5441 -0.8852 -0.8673
  144OSM    H6T15815   2.300  -0.680   6.901 -0.6511  0.1021  0.0943
  144OSM    C7S15816   2.265  -0.476   6.973  0.5933 -0.1585 -0.2822
  144OSM    H7S15817   2.158  -0.483   6.941  0.4603  0.7866 -0.0694
  144OSM    H7T15818   2.296  -0.374   6.942 -0.4683  0.1982 -0.2143
  144OSM    C8S15819   2.300  -0.490   7.122  0.3509  0.5629  0.5121
  144OSM    H8S15820   2.404  -0.458   7.143  0.6828 -1.7153  2.4347
  144OSM    H8T15821   2.288  -0.595   7.156 -0.3982 -0.3878 -2.5615
  144OSM    C9S15822   2.197  -0.407   7.202  0.0742 -0.1559 -1.2258
  144OSM    H9S15823   2.099  -0.458   7.192 -0.9789  2.0664 -2.5525
  144OSM    H9T15824   2.192  -0.308   7.151  0.9035  0.6552  0.2536
  144OSM   C10S15825   2.228  -0.390   7.352  0.3515  0.5165  0.2707
  144OSM   H10S15826   2.318  -0.326   7.367 -1.0342  2.4318  0.6965
  144OSM   H10T15827   2.252  -0.490   7.394 -0.8565  0.8229  1.7109
  144OSM   C11S15828   2.114  -0.318   7.431 -0.0985 -0.8075  0.1560
  144OSM   H11S15829   2.027  -0.385   7.415 -0.2057 -0.9205  1.1514
  144OSM   H11T15830   2.096  -0.221   7.382 -3.3750 -1.4607 -0.0338
  144OSM   C12S15831   2.144  -0.295   7.578 -0.0031  0.0059  0.1021
  144OSM   H12S15832   2.062  -0.238   7.627  0.7586  0.5187  0.8013
  144OSM   H12T15833   2.234  -0.232   7.593  1.2736 -1.5926 -0.6936
  144OSM   C13S15834   2.157  -0.429   7.645 -0.4225 -0.8850  0.1883
  144OSM   H13S15835   2.250  -0.482   7.613  0.7493  1.5412 -0.5150
  144OSM   H13T15836   2.068  -0.492   7.626 -0.6930 -0.5356  0.3074
  144OSM   C14S15837   2.196  -0.411   7.791  0.0358  0.0851 -0.3888
  144OSM   H14S15838   2.188  -0.512   7.837 -0.3667  0.6029  0.7057
  144OSM   H14T15839   2.111  -0.364   7.846 -0.0933 -1.1085  0.4591
  144OSM   C15S15840   2.332  -0.349   7.820  0.2578 -0.3595  0.0296
  144OSM   H15S15841   2.319  -0.240   7.833 -1.3093 -0.5779  0.3933
  144OSM   H15T15842   2.402  -0.364   7.735  1.1857  1.1515  0.5331
  144OSM   C16S15843   2.402  -0.423   7.944 -0.3691  0.3237 -0.1393
  144OSM   H16S15844   2.328  -0.410   8.026 -0.5306  0.4281 -0.3003
  144OSM   H16T15845   2.487  -0.356   7.968  1.4372 -1.9979  0.1374
  144OSM   C17S15846   2.451  -0.562   7.911  0.3672 -0.7286 -0.4092
  144OSM   H17S15847   2.519  -0.555   7.823 -0.8198  1.4752 -1.2077
  144OSM   H17T15848   2.360  -0.620   7.885 -1.5490  2.5781 -1.3310
  144OSM   C18S15849   2.524  -0.631   8.031 -0.4515  0.2317 -0.4937
  144OSM   H18S15850   2.581  -0.715   7.986 -0.1277  0.2472 -0.1072
  144OSM   H18T15851   2.459  -0.670   8.112  0.6340 -0.5955 -0.0165
  144OSM   H18U15852   2.604  -0.572   8.080 -0.1215 -0.9077  0.3343
  144OSM    C1F15853   2.318  -0.065   6.611  0.3340 -0.3093  0.5219
  144OSM     OF15854   2.197  -0.037   6.590 -0.4301  0.1147  0.0414
  144OSM    C2F15855   2.392   0.040   6.677 -0.2390 -0.5609  0.1300
  144OSM    H2F15856   2.426   0.111   6.599 -0.5619  2.3005  2.4867
  144OSM    H2G15857   2.482  -0.004   6.726  1.0294  0.9856 -0.7589
  144OSM    C3F15858   2.305   0.123   6.774 -0.3589 -0.5407  0.5034
  144OSM    H3F15859   2.241   0.058   6.837 -1.8761 -0.6182 -1.0605
  144OSM    H3G15860   2.231   0.185   6.719 -2.3337  0.3828  4.0706
  144OSM    C4F15861   2.386   0.203   6.875 -0.5261 -0.3145 -0.1764
  144OSM    H4F15862   2.478   0.237   6.823 -0.1976 -0.3117  0.3982
  144OSM    H4G15863   2.425   0.126   6.944 -0.1928 -2.1419 -2.3375
  144OSM    C5F15864   2.302   0.320   6.923  0.1934 -0.1103  0.4732
  144OSM    H5F15865   2.202   0.290   6.960  0.5462 -2.1066 -0.1610
  144OSM    H5G15866   2.271   0.389   6.841 -2.8166  0.7376  2.2593
  144OSM    C6F15867   2.371   0.400   7.035  0.1914 -0.3686  0.4843
  144OSM    H6F15868   2.304   0.485   7.061 -0.8135 -0.8611 -0.4660
  144OSM    H6G15869   2.469   0.440   7.002  0.3470 -0.1748  1.1742
  144OSM    C7F15870   2.407   0.306   7.159  0.1006 -0.2716  0.0465
  144OSM    H7F15871   2.493   0.246   7.126  0.5491  1.4575 -2.0057
  144OSM    H7G15872   2.316   0.244   7.172 -1.7027  2.3613  0.5696
  144OSM    C8F15873   2.443   0.368   7.298  0.0202 -0.1089 -0.3701
  144OSM    H8F15874   2.535   0.429   7.294 -0.1689  0.1589 -0.6317
  144OSM    H8G15875   2.454   0.277   7.361  0.6674  0.2916  0.0975
  144OSM    C9F15876   2.316   0.444   7.335  0.5041  0.6493  0.0396
  144OSM    H9F15877   2.249   0.484   7.258 -0.5597  1.1742  1.2226
  144OSM   C10F15878   2.268   0.468   7.457 -0.0436 -0.1232 -0.3774
  144OSM   H10F15879   2.167   0.508   7.471  0.2458  0.9613 -1.2527
  144OSM   C11F15880   2.325   0.416   7.585 -0.6150 -0.1192  0.1047
  144OSM   H11F15881   2.314   0.489   7.667 -1.4298  0.6934 -0.7226
  144OSM   H11G15882   2.431   0.397   7.558 -1.5394 -0.7515 -3.2880
  144OSM   C12F15883   2.272   0.272   7.622  0.2181 -0.4690  0.1335
  144OSM   H12F15884   2.316   0.207   7.544  1.2504  2.9619 -2.2805
  144OSM   H12G15885   2.161   0.264   7.615  0.1896 -0.8288  0.9020
  144OSM   C13F15886   2.319   0.215   7.752  0.8325 -0.0100 -0.1793
  144OSM   H13F15887   2.318   0.296   7.829  1.2686 -0.2789  0.1148
  144OSM   H13G15888   2.422   0.186   7.724  0.9574  1.0788 -0.8831
  144OSM   C14F15889   2.244   0.089   7.810  0.4885  0.3444 -0.8114
  144OSM   H14F15890   2.262  -0.005   7.753  0.9548  0.5047 -0.9316
  144OSM   H14G15891   2.135   0.109   7.816  0.3781 -0.3733 -0.4012
  144OSM   C15F15892   2.270   0.067   7.965 -0.3050  0.0379  0.4654
  144OSM   H15F15893   2.237   0.164   8.009 -0.3420  0.8925 -1.3760
  144OSM   H15G15894   2.378   0.071   7.992 -0.8131 -1.9657  2.9653
  144OSM   C16F15895   2.192  -0.049   8.028  0.1173  0.1098  0.3002
  144OSM   H16F15896   2.202  -0.150   7.983  0.3805  0.5000 -0.5355
  144OSM   H16G15897   2.086  -0.021   8.007  0.2259 -0.6222 -1.3354
  144OSM   C17F15898   2.210  -0.053   8.184 -0.3775  0.4603  0.2085
  144OSM   H17F15899   2.168   0.041   8.226  3.3209  1.6156  1.5262
  144OSM   H17G15900   2.318  -0.039   8.204 -0.3976  2.4998 -0.9980
  144OSM   C18F15901   2.158  -0.171   8.253 -0.9048  0.3323 -0.1236
  144OSM   H18F15902   2.224  -0.261   8.248 -1.1312  0.0397  1.8542
  144OSM   H18G15903   2.052  -0.196   8.233 -0.6576 -2.6130  1.9243
  144OSM   H18H15904   2.164  -0.156   8.363  0.6352 -0.3161 -0.0951
  145SAPE     N15905   1.216   1.145  10.982  0.2960 -0.0216 -0.0313
  145SAPE   HN115906   1.271   1.118  11.066  0.4727 -6.0417 -1.8341
  145SAPE   HN215907   1.252   1.097  10.897 -0.7260 -0.0708 -0.4364
  145SAPE   HN315908   1.234   1.248  10.976 -2.5902  0.5466  0.6128
  145SAPE   C1215909   1.069   1.106  11.002 -0.6028  0.1780  0.8765
  145SAPE  H12A15910   1.035   1.166  11.089 -1.5256 -0.3971  0.9242
  145SAPE  H12B15911   1.062   0.996  11.021 -0.5124  0.0381  0.1214
  145SAPE   C1115912   0.990   1.130  10.871  0.3880 -0.2564 -0.0094
  145SAPE  H11A15913   0.885   1.094  10.883  1.2979 -3.2342 -0.5961
  145SAPE  H11B15914   1.048   1.060  10.807 -0.2199 -2.5484  1.8844
  145SAPE     P15915   0.933   1.309  10.692  0.2349  0.0417 -0.1206
  145SAPE   O1315916   0.789   1.284  10.718  1.0715  0.1722  0.2307
  145SAPE   O1415917   0.975   1.446  10.663  0.6463 -0.2412 -0.1046
  145SAPE   O1215918   0.996   1.266  10.829 -0.5182  0.2211  0.1923
  145SAPE   O1115919   1.000   1.208  10.594 -0.1615  0.0821  0.5201
  145SAPE    C115920   0.920   1.098  10.533 -0.2350  0.4397 -1.3745
  145SAPE    HA15921   0.960   0.997  10.560 -2.0448  0.8276  3.2959
  145SAPE    HB15922   0.818   1.089  10.576  0.9639 -1.5765  1.2466
  145SAPE    C215923   0.903   1.117  10.378  0.2710 -0.0794 -0.2197
  145SAPE    HS15924   1.006   1.128  10.338  0.8379 -3.6513  0.0605
  145SAPE   O2115925   0.829   1.240  10.361 -0.2273 -0.3598  0.1845
  145SAPE   C2115926   0.865   1.318  10.258 -0.2244 -0.1463 -0.5695
  145SAPE   O2215927   0.970   1.309  10.198 -0.2054  0.3850  0.5236
  145SAPE   C2215928   0.739   1.394  10.203  0.0729 -0.3293 -0.0795
  145SAPE   H2R15929   0.669   1.315  10.169  2.3157 -3.2080  1.6846
  145SAPE   H2S15930   0.698   1.436  10.297 -0.3661 -2.3573  0.6691
  145SAPE    C315931   0.828   1.000  10.306 -0.5337 -0.0857  0.1638
  145SAPE    HX15932   0.727   1.010  10.352 -1.5998  0.4182 -2.2135
  145SAPE    HY15933   0.881   0.908  10.339  0.6876  0.8211  0.7561
  145SAPE   O3115934   0.828   1.019  10.167  0.2069  0.6782 -0.0950
  145SAPE   C3115935   0.939   0.996  10.102 -1.1197  0.3354 -0.4984
  145SAPE   O3215936   1.038   0.933  10.154 -0.1303 -0.0590 -0.1140
  145SAPE   C3215937   0.932   1.050   9.965  0.8335 -1.2369  0.2805
  145SAPE   H2X15938   0.918   1.160   9.965  2.1520 -1.0583 -1.0643
  145SAPE   H2Y15939   0.847   0.996   9.917  0.3518 -1.5550  1.4702
  145SAPE   C2315940   0.768   1.525  10.112  0.0757  0.3773 -0.9599
  145SAPE   H3R15941   0.871   1.504  10.075 -0.2984 -1.0676 -1.2097
  145SAPE   H3S15942   0.775   1.614  10.177  0.4544 -0.4329  0.1168
  145SAPE   C2415943   0.674   1.529   9.987  0.2127 -0.7550 -0.0138
  145SAPE   H4R15944   0.672   1.424   9.951  2.4892 -0.7202 -0.3263
  145SAPE   H4S15945   0.728   1.586   9.908 -0.2856  2.5134  1.8813
  145SAPE   C2515946   0.536   1.586  10.021 -0.4500  0.5649 -0.0418
  145SAPE   H5R15947   0.516   1.655  10.105  3.1493  0.5083  0.9187
  145SAPE   C2615948   0.422   1.544   9.957  0.7319  0.6621  0.6572
  145SAPE   H6R15949   0.324   1.589   9.977 -0.0888 -0.9878  0.4184
  145SAPE   C2715950   0.412   1.437   9.848  0.1941 -0.5313 -0.5746
  145SAPE   H7R15951   0.306   1.409   9.831  0.4961 -2.3358  0.3421
  145SAPE   H7S15952   0.459   1.346   9.893 -1.4848 -0.8391  0.6151
  145SAPE   C2815953   0.478   1.472   9.719 -0.0259 -0.3180 -0.4655
  145SAPE   H8R15954   0.584   1.447   9.708 -0.1051 -1.5287  1.2005
  145SAPE   C2915955   0.421   1.535   9.613  0.6175 -0.1339 -0.1296
  145SAPE   H9R15956   0.490   1.562   9.532 -1.7154  1.2915 -1.7131
  145SAPE  C21015957   0.276   1.577   9.600  0.0720  0.8829 -0.2059
  145SAPE  H10R15958   0.279   1.685   9.576  0.7970  0.7415 -0.8203
  145SAPE  H10S15959   0.229   1.569   9.700  0.1391 -1.6434 -0.3472
  145SAPE  C21115960   0.201   1.498   9.493  0.3281 -0.3067 -0.8232
  145SAPE  H11R15961   0.210   1.388   9.496 -0.6577 -0.3730  0.5056
  145SAPE  C21215962   0.107   1.547   9.420 -0.2539  0.1425 -0.1755
  145SAPE  H12R15963   0.050   1.473   9.361  1.2457 -2.1265  1.1305
  145SAPE  C21315964   0.055   1.686   9.420  0.3202  0.3903 -0.4946
  145SAPE  H13R15965   0.104   1.736   9.334  1.5528  1.3121  0.7287
  145SAPE  H13S15966   0.089   1.736   9.513  2.1712 -3.2095  0.8702
  145SAPE  C21415967  -0.097   1.684   9.397  0.3449  0.7017  0.2639
  145SAPE  H14R15968  -0.149   1.642   9.484 -0.2359 -0.4348 -0.6093
  145SAPE  C21515969  -0.165   1.721   9.286 -0.0274 -0.0183 -0.6739
  145SAPE  H15R15970  -0.275   1.725   9.284 -0.0128  2.5487  1.1941
  145SAPE  C21615971  -0.102   1.781   9.164  0.5255  0.3007 -0.6179
  145SAPE  H16R15972  -0.003   1.741   9.132  0.4502  0.6693 -1.3158
  145SAPE  H16S15973  -0.097   1.891   9.180 -0.8213  0.1118  1.3630
  145SAPE  C21715974  -0.184   1.744   9.041 -0.9675 -0.6047 -0.6401
  145SAPE  H17R15975  -0.293   1.760   9.060 -0.1328  2.7248  1.7739
  145SAPE  H17S15976  -0.178   1.635   9.023 -0.2322 -0.2067 -2.9228
  145SAPE  C21815977  -0.125   1.810   8.915 -0.4565  0.2763  1.0375
  145SAPE  H18R15978  -0.018   1.780   8.912  0.2097  2.4841  2.0984
  145SAPE  H18S15979  -0.113   1.919   8.925  0.2511  0.6935 -3.3289
  145SAPE  C21915980  -0.187   1.768   8.780  0.1497 -0.0085  0.2680
  145SAPE  H19R15981  -0.131   1.806   8.693 -0.6017 -0.2406 -0.3205
  145SAPE  H19S15982  -0.279   1.829   8.782 -0.9560 -1.6435  0.8539
  145SAPE  C22015983  -0.217   1.627   8.755  0.4914  0.7170  0.0702
  145SAPE  H20R15984  -0.137   1.554   8.779 -0.6498 -1.2631 -1.9599
  145SAPE  H20S15985  -0.231   1.614   8.645 -1.9600  1.2340  0.2901
  145SAPE  H20T15986  -0.309   1.591   8.807  0.7463  0.4629  0.3401
  145SAPE   C3315987   1.055   1.026   9.880 -0.1242  0.3011  0.1489
  145SAPE   H3X15988   1.146   1.026   9.944  0.9709  3.3997 -1.3220
  145SAPE   H3Y15989   1.081   1.091   9.794  1.6881 -2.3902 -1.4341
  145SAPE   C3415990   1.065   0.883   9.819  0.0955  0.4147 -0.1788
  145SAPE   H4X15991   1.009   0.865   9.725 -1.1275  1.6233  0.3005
  145SAPE   H4Y15992   1.027   0.817   9.900 -1.0935  1.6317  0.2628
  145SAPE   C3515993   1.207   0.826   9.783 -0.5175  0.6146 -0.2419
  145SAPE   H5X15994   1.192   0.719   9.758 -0.0482  0.1609  1.3743
  145SAPE   H5Y15995   1.282   0.819   9.865 -1.0722  1.0155  0.3026
  145SAPE   C3615996   1.254   0.901   9.658  0.0516  0.2977  0.0276
  145SAPE   H6X15997   1.280   1.007   9.681  2.9298 -0.4773  0.5918
  145SAPE   H6Y15998   1.174   0.907   9.581  2.2564 -0.9328 -2.4513
  145SAPE   C3715999   1.366   0.841   9.575 -0.2426  0.2015 -0.0545
  145SAPE   H7X16000   1.325   0.743   9.542  0.4336 -0.0455 -0.1754
  145SAPE   H7Y16001   1.447   0.823   9.649 -1.0602 -1.3905  0.4906
  145SAPE   C3816002   1.424   0.939   9.470 -0.3188  0.2161  0.4989
  145SAPE   H8X16003   1.429   1.037   9.521  0.6907  0.3506  0.1562
  145SAPE   H8Y16004   1.352   0.939   9.385 -1.4160 -2.1677  1.3808
  145SAPE   C3916005   1.564   0.891   9.429 -0.0678 -0.3080  0.6974
  145SAPE   H9X16006   1.537   0.798   9.375  0.4998 -0.7628  1.2039
  145SAPE   H9Y16007   1.620   0.850   9.515 -1.7287 -0.5381  1.6849
  145SAPE  C31016008   1.643   0.989   9.340 -0.3175 -0.0897 -0.8866
  145SAPE  H10X16009   1.591   1.025   9.249  0.3943  0.9047 -0.9116
  145SAPE  H10Y16010   1.734   0.933   9.309 -0.1440 -1.1351  1.4386
  145SAPE  C31116011   1.693   1.109   9.423  0.1967  0.6647  0.0836
  145SAPE  H11X16012   1.754   1.059   9.502 -0.0837 -1.2980 -0.8995
  145SAPE  H11Y16013   1.606   1.166   9.461  1.8131  1.7054  2.3183
  145SAPE  C31216014   1.787   1.203   9.344  0.2804  0.4057 -0.3656
  145SAPE  H12X16015   1.839   1.152   9.260 -2.1588  0.8691 -2.2167
  145SAPE  H12Y16016   1.865   1.251   9.407 -0.3225  0.0647  0.6392
  145SAPE  C31316017   1.709   1.315   9.275 -0.5985 -0.5908 -0.0708
  145SAPE  H13X16018   1.646   1.361   9.355  1.2185  0.7755  0.6106
  145SAPE  H13Y16019   1.635   1.272   9.204  1.3456 -0.9410 -1.9057
  145SAPE  C31416020   1.792   1.424   9.221 -0.1228 -0.1003 -1.2856
  145SAPE  H14X16021   1.882   1.451   9.280 -0.7070  0.8607 -0.8285
  145SAPE  H14Y16022   1.741   1.521   9.236  2.1220  0.8287  0.7105
  145SAPE  C31516023   1.827   1.395   9.077 -0.6993 -0.0321 -0.0724
  145SAPE  H15X16024   1.755   1.324   9.030 -0.7232 -0.2162  0.2441
  145SAPE  H15Y16025   1.930   1.355   9.073  0.0101  1.6179  1.4901
  145SAPE  C31616026   1.826   1.527   8.988  0.5106  0.5036 -0.2328
  145SAPE  H16X16027   1.737   1.586   9.016 -1.5110 -2.2261 -0.6860
  145SAPE  H16Y16028   1.813   1.498   8.881  4.4029 -0.3559 -0.5436
  145SAPE  C31716029   1.955   1.596   9.012  0.5683 -0.1088 -0.6868
  145SAPE  H17X16030   2.037   1.535   8.968  0.4985 -0.3925 -0.4240
  145SAPE  H17Y16031   1.968   1.606   9.122 -0.8461  1.7967 -0.6527
  145SAPE  C31816032   1.974   1.744   8.970  0.3208 -0.1097 -0.6800
  145SAPE  H18X16033   2.081   1.771   8.982  0.4773 -0.4192 -1.3562
  145SAPE  H18Y16034   1.901   1.812   9.020  2.2078  0.6905  1.0734
  145SAPE  H18Z16035   1.953   1.762   8.863 -0.5012 -1.5225 -0.7651
  146SAPE     N16036   0.101   2.016  10.759 -0.0182  0.0440 -0.3228
  146SAPE   HN116037   0.135   1.919  10.739 -1.2947 -0.3275 -0.7671
  146SAPE   HN216038   0.100   2.050  10.661  1.1459 -2.0562 -1.1009
  146SAPE   HN316039   0.179   2.064  10.808 -1.9955  1.6206  1.3818
  146SAPE   C1216040  -0.039   2.025  10.819 -0.2540 -0.2697  0.1298
  146SAPE  H12A16041  -0.065   2.133  10.822  0.0978 -0.1835  0.0775
  146SAPE  H12B16042  -0.042   1.992  10.925 -1.8918 -0.3491  0.0777
  146SAPE   C1116043  -0.141   1.944  10.734  0.3755  0.2438 -0.1031
  146SAPE  H11A16044  -0.142   1.991  10.634 -1.7315  0.6191  0.0822
  146SAPE  H11B16045  -0.242   1.963  10.776 -1.2204 -1.4094 -3.0231
  146SAPE     P16046  -0.172   1.712  10.604  0.1122  0.2442  0.0654
  146SAPE   O1316047  -0.100   1.586  10.612  0.2231  1.1228  0.3468
  146SAPE   O1416048  -0.320   1.723  10.600 -0.5702  0.2833  0.3378
  146SAPE   O1216049  -0.122   1.801  10.730 -0.1746  0.2184  0.3377
  146SAPE   O1116050  -0.124   1.798  10.480  0.0972  0.6114  0.0882
  146SAPE    C116051   0.011   1.802  10.447  0.0706  0.1789  0.7746
  146SAPE    HA16052   0.068   1.869  10.515 -1.0786  1.4107  0.5402
  146SAPE    HB16053   0.056   1.700  10.439  1.2950  0.7112  0.7880
  146SAPE    C216054   0.035   1.869  10.300  0.1738 -0.0510 -1.1863
  146SAPE    HS16055  -0.002   1.971  10.324  0.0585 -0.5131  0.6443
  146SAPE   O2116056  -0.043   1.803  10.202 -0.0151  0.4343  0.0126
  146SAPE   C2116057  -0.156   1.865  10.169 -0.1303  0.2756 -0.3752
  146SAPE   O2216058  -0.186   1.981  10.202  0.1467  0.1882 -0.2883
  146SAPE   C2216059  -0.229   1.778  10.070 -0.2408 -0.8795 -0.3050
  146SAPE   H2R16060  -0.158   1.712  10.015  1.3723  0.5967 -0.0305
  146SAPE   H2S16061  -0.290   1.701  10.122  0.0975 -0.3020  0.9499
  146SAPE    C316062   0.189   1.872  10.263  0.5764 -0.3859 -0.5130
  146SAPE    HX16063   0.213   1.764  10.255  3.3536  0.0251  1.6307
  146SAPE    HY16064   0.257   1.894  10.348  0.3239  1.1741 -0.6998
  146SAPE   O3116065   0.216   1.952  10.144  0.6248  0.2197 -0.1974
  146SAPE   C3116066   0.189   1.885  10.033 -0.0302 -0.4624 -0.1766
  146SAPE   O3216067   0.164   1.767  10.019 -0.4010  0.2065  0.1508
  146SAPE   C3216068   0.208   1.981   9.920 -0.4625 -0.4105 -0.1513
  146SAPE   H2X16069   0.221   2.088   9.948  0.1372 -0.2388 -1.0763
  146SAPE   H2Y16070   0.116   1.975   9.858  0.5250 -2.4911 -1.4513
  146SAPE   C2316071  -0.322   1.868   9.982  0.0264  0.6805  0.3789
  146SAPE   H3R16072  -0.265   1.932   9.910  0.2763 -0.8557 -0.8057
  146SAPE   H3S16073  -0.386   1.929  10.049 -0.2268  2.6888 -1.6175
  146SAPE   C2416074  -0.433   1.788   9.912  0.5537 -0.4125 -0.1693
  146SAPE   H4R16075  -0.479   1.715   9.982  0.7313 -0.0407  0.3433
  146SAPE   H4S16076  -0.394   1.721   9.833  0.7402 -0.3955 -0.0918
  146SAPE   C2516077  -0.530   1.892   9.852 -0.2609  0.6383  0.7701
  146SAPE   H5R16078  -0.600   1.940   9.923 -0.0235  1.7571  0.2687
  146SAPE   C2616079  -0.532   1.927   9.724  0.6316  0.5009  0.0868
  146SAPE   H6R16080  -0.610   1.997   9.691 -0.4873 -0.9978 -0.4698
  146SAPE   C2716081  -0.443   1.882   9.610 -0.0223  0.4003  0.0313
  146SAPE   H7R16082  -0.483   1.786   9.570 -0.2589  0.8027 -0.6986
  146SAPE   H7S16083  -0.343   1.845   9.643 -0.0850 -1.7754 -2.0474
  146SAPE   C2816084  -0.405   1.983   9.497 -0.0160  0.0936 -0.1918
  146SAPE   H8R16085  -0.324   2.054   9.523  0.5672  0.6309 -3.2340
  146SAPE   C2916086  -0.471   1.997   9.383 -0.6383  0.7905 -0.6867
  146SAPE   H9R16087  -0.431   2.062   9.304  2.6176 -1.7739 -1.2567
  146SAPE  C21016088  -0.592   1.919   9.341 -0.7089  0.1272 -0.4976
  146SAPE  H10R16089  -0.644   1.980   9.265 -1.7153 -1.1033 -0.8178
  146SAPE  H10S16090  -0.652   1.905   9.434 -0.8157  2.3717 -0.1930
  146SAPE  C21116091  -0.557   1.785   9.288 -0.3798  0.4787  0.2243
  146SAPE  H11R16092  -0.493   1.734   9.362 -1.1601 -1.3058 -0.3035
  146SAPE  C21216093  -0.582   1.728   9.167 -0.1720  0.3277 -0.0182
  146SAPE  H12R16094  -0.545   1.627   9.145  1.7092  1.2947 -1.4290
  146SAPE  C21316095  -0.660   1.788   9.050 -0.7180  0.3480 -0.3928
  146SAPE  H13R16096  -0.754   1.840   9.078 -2.2980 -1.8619 -1.4260
  146SAPE  H13S16097  -0.705   1.706   8.989  0.4674 -1.0667  0.5997
  146SAPE  C21416098  -0.576   1.891   8.972  0.0472 -0.5040  0.5242
  146SAPE  H14R16099  -0.506   1.948   9.035 -0.1284  0.4589 -0.1447
  146SAPE  C21516100  -0.602   1.934   8.842 -0.6869 -0.1643 -0.0588
  146SAPE  H15R16101  -0.544   2.017   8.798  0.2200 -0.6800  0.1638
  146SAPE  C21616102  -0.711   1.883   8.760 -0.2479 -0.1522 -0.8254
  146SAPE  H16R16103  -0.809   1.866   8.810  0.2058 -1.0361 -0.2378
  146SAPE  H16S16104  -0.681   1.778   8.741  1.3170  0.2285 -0.4848
  146SAPE  C21716105  -0.749   1.945   8.625  0.0950  0.5476  0.4655
  146SAPE  H17R16106  -0.778   2.052   8.634 -1.6105  0.0610  0.9462
  146SAPE  H17S16107  -0.842   1.895   8.590  0.8256  0.6363 -1.6563
  146SAPE  C21816108  -0.637   1.935   8.520 -0.2159 -0.3710 -0.0858
  146SAPE  H18R16109  -0.602   1.830   8.529 -0.0405 -0.1684  1.8120
  146SAPE  H18S16110  -0.552   2.002   8.546  0.4444 -0.6833 -1.4005
  146SAPE  C21916111  -0.674   1.957   8.370  0.0783 -0.3844  0.0256
  146SAPE  H19R16112  -0.720   2.057   8.359 -1.3498 -0.6999  2.7565
  146SAPE  H19S16113  -0.755   1.886   8.341 -0.8846  0.4639  0.6242
  146SAPE  C22016114  -0.551   1.946   8.270 -0.0167  0.4375 -0.5340
  146SAPE  H20R16115  -0.568   1.870   8.190 -0.6130  0.9930 -0.9412
  146SAPE  H20S16116  -0.462   1.918   8.330  0.5800 -1.4774 -2.2272
  146SAPE  H20T16117  -0.535   2.041   8.214 -0.8636  1.6102  1.1961
  146SAPE   C3316118   0.330   1.938   9.831 -0.8389 -0.0532  0.1065
  146SAPE   H3X16119   0.320   1.829   9.814 -1.5798  0.2452 -1.5368
  146SAPE   H3Y16120   0.430   1.958   9.873 -1.3673  0.2081  1.2523
  146SAPE   C3416121   0.318   2.000   9.687  0.4507  0.4893  0.1656
  146SAPE   H4X16122   0.225   2.058   9.679 -0.5417 -0.9582  0.9118
  146SAPE   H4Y16123   0.295   1.913   9.622  1.0658 -1.4176  2.4014
  146SAPE   C3516124   0.445   2.067   9.632  0.0824 -1.0192 -0.0073
  146SAPE   H5X16125   0.532   1.999   9.642  1.8225  0.8936 -1.7253
  146SAPE   H5Y16126   0.458   2.155   9.699  0.7656 -0.9591 -0.2206
  146SAPE   C3616127   0.431   2.100   9.483  0.3164 -0.2850 -0.3517
  146SAPE   H6X16128   0.510   2.175   9.461 -0.6460  0.2742 -1.9010
  146SAPE   H6Y16129   0.332   2.147   9.466  0.2529 -0.7483 -1.2677
  146SAPE   C3716130   0.451   1.970   9.398  0.2718 -0.2577 -0.5461
  146SAPE   H7X16131   0.379   1.890   9.426  0.3522 -0.1359  0.0132
  146SAPE   H7Y16132   0.550   1.932   9.432  0.1285 -1.8952 -1.8830
  146SAPE   C3816133   0.449   2.001   9.247 -0.0205  0.1070  0.1102
  146SAPE   H8X16134   0.514   1.920   9.205 -0.7368 -0.3623 -0.0961
  146SAPE   H8Y16135   0.513   2.092   9.243  0.2373 -0.0443  0.7644
  146SAPE   C3916136   0.313   2.012   9.178  0.9698  0.3491  0.1986
  146SAPE   H9X16137   0.258   2.103   9.211  2.8084  1.3934  0.4529
  146SAPE   H9Y16138   0.249   1.924   9.200  1.3452 -0.1652 -0.7673
  146SAPE  C31016139   0.318   2.035   9.020  0.3475 -0.0373  0.6676
  146SAPE  H10X16140   0.387   1.957   8.979  1.2509  2.2696 -2.3694
  146SAPE  H10Y16141   0.372   2.131   9.008  0.5457 -0.2219  0.0449
  146SAPE  C31116142   0.176   2.027   8.949  0.2536 -0.1095 -0.5478
  146SAPE  H11X16143   0.097   2.064   9.018  1.1335  0.9605 -0.1109
  146SAPE  H11Y16144   0.145   1.923   8.923 -0.6982  0.0821 -0.2156
  146SAPE  C31216145   0.160   2.105   8.817 -0.2722  0.3169  0.0572
  146SAPE  H12X16146   0.197   2.206   8.844 -1.7279  0.9924 -0.4095
  146SAPE  H12Y16147   0.052   2.093   8.793  0.1136 -1.6550 -0.8074
  146SAPE  C31316148   0.255   2.045   8.703  0.3111  0.2255 -0.1969
  146SAPE  H13X16149   0.223   1.940   8.689  0.4159  0.2258 -0.4606
  146SAPE  H13Y16150   0.361   2.049   8.735  0.7684  1.4031 -1.7330
  146SAPE  C31416151   0.219   2.113   8.571  0.9689 -0.8640  1.0002
  146SAPE  H14X16152   0.238   2.223   8.569 -0.7257 -0.5606  0.7628
  146SAPE  H14Y16153   0.112   2.098   8.547  0.9092  0.9315  0.0706
  146SAPE  C31516154   0.284   2.048   8.448 -0.3856 -0.7213  0.5247
  146SAPE  H15X16155   0.267   1.939   8.458 -0.6596 -0.7869 -0.5143
  146SAPE  H15Y16156   0.392   2.073   8.451 -0.3423 -0.5400 -1.7303
  146SAPE  C31616157   0.236   2.086   8.313  0.0214  0.0295  0.3973
  146SAPE  H16X16158   0.276   2.188   8.297 -2.8624  0.8454 -2.2061
  146SAPE  H16Y16159   0.125   2.094   8.301  0.0909  1.0614  0.4013
  146SAPE  C31716160   0.296   2.010   8.194 -0.1591  0.1914 -0.3024
  146SAPE  H17X16161   0.267   1.904   8.208 -0.5429  0.2645 -0.5318
  146SAPE  H17Y16162   0.405   1.995   8.210 -0.6551 -1.5363  1.6797
  146SAPE  C31816163   0.262   2.057   8.054  0.2920  0.5591  0.4199
  146SAPE  H18X16164   0.278   2.166   8.039 -1.0347  0.7484  0.2649
  146SAPE  H18Y16165   0.153   2.049   8.032  0.6456  1.2665 -1.7626
  146SAPE  H18Z16166   0.315   1.992   7.981  2.1410  2.2320  0.2561
  147SAPE     N16167   1.179   5.504  10.671 -0.4155 -0.5992 -0.1019
  147SAPE   HN116168   1.277   5.492  10.705  0.1286 -0.7511 -1.6361
  147SAPE   HN216169   1.165   5.589  10.613 -1.1565 -0.4488  0.2964
  147SAPE   HN316170   1.133   5.527  10.760  0.1418 -0.8832  0.2645
  147SAPE   C1216171   1.141   5.375  10.603  0.3983  0.9741 -0.4363
  147SAPE  H12A16172   1.198   5.359  10.509  3.7619 -3.7378  2.1320
  147SAPE  H12B16173   1.038   5.390  10.563 -0.3544 -0.6689  0.7986
  147SAPE   C1116174   1.168   5.262  10.695 -0.3955  0.2600  0.1858
  147SAPE  H11A16175   1.277   5.244  10.693  0.1742  3.5477 -2.0454
  147SAPE  H11B16176   1.116   5.180  10.642 -1.3333  0.6429  0.4959
  147SAPE     P16177   1.166   5.176  10.931 -0.3352 -0.3997 -0.1028
  147SAPE   O1316178   1.288   5.243  10.977 -0.4592 -0.4166  0.3574
  147SAPE   O1416179   1.057   5.161  11.034 -0.0188 -0.3797 -0.2098
  147SAPE   O1216180   1.104   5.269  10.818  0.0622  0.1219 -0.5240
  147SAPE   O1116181   1.204   5.039  10.865 -0.3173 -0.2800 -0.0918
  147SAPE    C116182   1.105   4.951  10.821 -0.0789 -0.1860  0.3165
  147SAPE    HA16183   1.048   4.905  10.905 -1.7183 -1.1842 -1.3163
  147SAPE    HB16184   1.027   4.994  10.755 -1.9880 -3.5062  0.3145
  147SAPE    C216185   1.170   4.828  10.750  0.0893  0.3195  0.8232
  147SAPE    HS16186   1.241   4.783  10.824 -0.8832 -0.6043  1.2100
  147SAPE   O2116187   1.233   4.882  10.635 -0.0152 -0.3304 -0.3745
  147SAPE   C2116188   1.338   4.825  10.592  0.2656  0.0837  0.2553
  147SAPE   O2216189   1.401   4.742  10.655  0.1621 -0.2618 -0.0863
  147SAPE   C2216190   1.369   4.871  10.449 -0.2511 -0.1410 -0.1254
  147SAPE   H2R16191   1.378   4.981  10.435 -0.8404  0.0628  1.0203
  147SAPE   H2S16192   1.464   4.819  10.424  0.0402 -0.3102  1.3025
  147SAPE    C316193   1.077   4.715  10.705 -0.0837 -0.6803  0.5877
  147SAPE    HX16194   0.995   4.759  10.644 -0.4467  0.6144  1.9674
  147SAPE    HY16195   1.032   4.676  10.799 -1.9648 -1.4381 -0.5907
  147SAPE   O3116196   1.150   4.604  10.636  0.1848 -0.4562  0.0998
  147SAPE   C3116197   1.193   4.504  10.713  0.5803  0.5144  0.4839
  147SAPE   O3216198   1.181   4.504  10.835 -0.2722 -0.2570 -0.2259
  147SAPE   C3216199   1.279   4.416  10.630  0.1519 -0.0537  0.6601
  147SAPE   H2X16200   1.262   4.313  10.670  3.1298 -1.0358 -0.4878
  147SAPE   H2Y16201   1.386   4.432  10.652  0.3197  0.4499 -0.5074
  147SAPE   C2316202   1.260   4.824  10.354 -0.9534  0.4370  0.6266
  147SAPE   H3R16203   1.174   4.895  10.363 -0.5643  1.3339 -2.2343
  147SAPE   H3S16204   1.218   4.726  10.387 -1.6609  0.9773  1.3812
  147SAPE   C2416205   1.311   4.823  10.208  0.2287 -0.5728 -0.6803
  147SAPE   H4R16206   1.351   4.924  10.185 -2.1694  0.5212 -0.1440
  147SAPE   H4S16207   1.223   4.802  10.143 -0.8137 -1.8359  1.0820
  147SAPE   C2516208   1.427   4.725  10.186  0.2723 -0.2122 -0.2077
  147SAPE   H5R16209   1.418   4.640  10.255 -0.0200  2.3417  3.0132
  147SAPE   C2616210   1.513   4.719  10.093 -0.0603 -0.3027 -0.3589
  147SAPE   H6R16211   1.575   4.629  10.099 -0.3740 -0.4533  0.7268
  147SAPE   C2716212   1.530   4.815   9.978 -0.0969 -0.8856  0.0208
  147SAPE   H7R16213   1.629   4.794   9.930  1.0534 -2.4362  2.9840
  147SAPE   H7S16214   1.522   4.920  10.015 -2.2844 -0.2881 -2.0113
  147SAPE   C2816215   1.433   4.793   9.861  0.5789  0.4124  0.4232
  147SAPE   H8R16216   1.353   4.719   9.875 -0.1776  1.0856 -0.3175
  147SAPE   C2916217   1.423   4.856   9.745 -0.1312  0.4042 -0.7837
  147SAPE   H9R16218   1.351   4.831   9.665 -1.3604 -0.9297  0.6908
  147SAPE  C21016219   1.513   4.967   9.689 -0.2010 -0.1424  0.2236
  147SAPE  H10R16220   1.574   5.015   9.769  1.5093 -0.0535 -1.1150
  147SAPE  H10S16221   1.451   5.050   9.649  0.6929 -0.8050 -2.6449
  147SAPE  C21116222   1.613   4.922   9.592  0.0314  0.0181  0.2937
  147SAPE  H11R16223   1.710   4.902   9.639  0.1797  0.1321  0.0419
  147SAPE  C21216224   1.607   4.919   9.456 -0.2989 -0.0238 -0.7998
  147SAPE  H12R16225   1.698   4.890   9.402  0.1902  2.0418 -1.1055
  147SAPE  C21316226   1.489   4.960   9.374  0.6178  0.6794  0.1273
  147SAPE  H13R16227   1.492   5.069   9.353 -2.0304  0.7112 -0.2959
  147SAPE  H13S16228   1.397   4.956   9.436  0.1259 -0.6046 -0.6527
  147SAPE  C21416229   1.480   4.868   9.250 -0.1870 -0.2160  0.5834
  147SAPE  H14R16230   1.434   4.768   9.258 -0.2169 -0.3275 -0.8415
  147SAPE  C21516231   1.554   4.890   9.137  0.5268 -0.8066 -0.0128
  147SAPE  H15R16232   1.554   4.821   9.051  0.8529 -0.6320 -0.1563
  147SAPE  C21616233   1.634   5.013   9.111 -0.3084 -0.5656 -0.8335
  147SAPE  H16R16234   1.654   5.066   9.206 -0.1885  1.5682 -2.0130
  147SAPE  H16S16235   1.577   5.080   9.043 -2.8584 -0.8390  0.9839
  147SAPE  C21716236   1.777   4.986   9.054  0.0246 -0.5796 -0.1415
  147SAPE  H17R16237   1.820   4.903   9.114 -0.9391 -0.5897  0.5437
  147SAPE  H17S16238   1.841   5.075   9.074  0.5416 -1.0241  0.2060
  147SAPE  C21816239   1.769   4.960   8.900 -0.0460  0.5750  0.0688
  147SAPE  H18R16240   1.682   4.895   8.881 -2.2260  3.6124 -0.7706
  147SAPE  H18S16241   1.865   4.906   8.885  0.2034  0.8039  0.8070
  147SAPE  C21916242   1.772   5.080   8.810 -0.1930  0.2581  0.5463
  147SAPE  H19R16243   1.857   5.149   8.829 -0.0223 -0.4654  2.4352
  147SAPE  H19S16244   1.689   5.151   8.828  0.2603  1.1121 -0.6889
  147SAPE  C22016245   1.783   5.050   8.664  0.3063  0.1091 -0.0603
  147SAPE  H20R16246   1.822   5.136   8.606 -0.8200  0.1021 -0.8430
  147SAPE  H20S16247   1.682   5.016   8.631 -0.8874  1.2529  2.2889
  147SAPE  H20T16248   1.856   4.967   8.653  1.5354  0.9879  1.3756
  147SAPE   C3316249   1.240   4.423  10.482 -0.1240  1.1248  0.2419
  147SAPE   H3X16250   1.276   4.520  10.441  1.4214 -0.3656 -2.0871
  147SAPE   H3Y16251   1.134   4.396  10.462  0.1956 -0.3489  0.4982
  147SAPE   C3416252   1.328   4.318  10.403  0.2578 -0.4985  0.1817
  147SAPE   H4X16253   1.331   4.214  10.443  3.4890  0.4691  2.7054
  147SAPE   H4Y16254   1.430   4.362  10.399  0.4385 -0.9782 -0.4165
  147SAPE   C3516255   1.292   4.304  10.252  0.5366  0.1829 -0.9375
  147SAPE   H5X16256   1.279   4.405  10.208 -0.4758  1.2226  1.6811
  147SAPE   H5Y16257   1.196   4.249  10.239  0.5715 -0.6982  2.2977
  147SAPE   C3616258   1.392   4.225  10.169  0.2798 -0.1583 -0.2512
  147SAPE   H6X16259   1.356   4.120  10.179 -1.4541  0.1301 -3.0441
  147SAPE   H6Y16260   1.496   4.242  10.206 -0.4406  0.8912  1.3667
  147SAPE   C3716261   1.378   4.276  10.027 -0.5177  0.2566 -0.0171
  147SAPE   H7X16262   1.436   4.369  10.007 -0.1708  0.2163  0.7976
  147SAPE   H7Y16263   1.273   4.285   9.993 -0.4821 -0.0227 -0.2098
  147SAPE   C3816264   1.444   4.180   9.922 -0.4416 -0.1320  0.0756
  147SAPE   H8X16265   1.400   4.079   9.939 -0.6919 -0.1077 -0.4437
  147SAPE   H8Y16266   1.554   4.174   9.941  0.0105  0.0427 -2.3420
  147SAPE   C3916267   1.425   4.225   9.778  0.0197  0.2011 -0.5741
  147SAPE   H9X16268   1.315   4.235   9.769 -0.3518  0.1747  3.1645
  147SAPE   H9Y16269   1.453   4.143   9.708  0.5584  1.6603 -2.0790
  147SAPE  C31016270   1.516   4.334   9.732  0.1234  0.5620  0.4355
  147SAPE  H10X16271   1.623   4.315   9.757  0.4163  1.7028  0.0460
  147SAPE  H10Y16272   1.490   4.421   9.796  1.4373 -0.4127  2.3707
  147SAPE  C31116273   1.496   4.373   9.585 -0.7223 -0.1105 -0.1273
  147SAPE  H11X16274   1.391   4.403   9.566 -0.8133  0.6486  1.4799
  147SAPE  H11Y16275   1.503   4.276   9.532 -0.8297  0.0385 -0.4148
  147SAPE  C31216276   1.591   4.475   9.532  0.3842  0.2345 -0.4120
  147SAPE  H12X16277   1.695   4.436   9.537  0.6506  1.0863  0.6905
  147SAPE  H12Y16278   1.592   4.559   9.604  1.5845  0.1650 -0.3505
  147SAPE  C31316279   1.570   4.521   9.380  0.0509 -0.8733 -0.5089
  147SAPE  H13X16280   1.649   4.597   9.363 -0.7605 -0.1550 -1.1079
  147SAPE  H13Y16281   1.468   4.565   9.380 -1.1558 -3.5929  0.3254
  147SAPE  C31416282   1.571   4.412   9.274 -0.0910 -0.0763 -0.2000
  147SAPE  H14X16283   1.609   4.326   9.334 -0.7169  0.8149  1.5186
  147SAPE  H14Y16284   1.642   4.430   9.190 -0.3576  0.7833 -0.2446
  147SAPE  C31516285   1.431   4.369   9.216  0.9245 -0.6881 -0.2814
  147SAPE  H15X16286   1.363   4.338   9.299  1.5399 -0.5682  0.2683
  147SAPE  H15Y16287   1.442   4.286   9.143 -2.4893 -1.8387  0.4173
  147SAPE  C31616288   1.358   4.485   9.137  0.4053 -0.4017  0.7334
  147SAPE  H16X16289   1.353   4.572   9.206  1.2709  0.1461  0.1212
  147SAPE  H16Y16290   1.251   4.466   9.114  0.4849 -1.4200  1.1981
  147SAPE  C31716291   1.440   4.528   9.015 -0.3035  0.0826  0.1638
  147SAPE  H17X16292   1.523   4.457   8.995 -0.1707  0.4405 -0.5732
  147SAPE  H17Y16293   1.491   4.622   9.045 -1.5117  0.5292  0.8524
  147SAPE  C31816294   1.360   4.538   8.890 -0.4367  0.3352  0.0392
  147SAPE  H18X16295   1.285   4.619   8.892  1.7168  2.3544  2.1386
  147SAPE  H18Y16296   1.317   4.438   8.865 -0.8640  0.7195 -0.8050
  147SAPE  H18Z16297   1.427   4.557   8.803  1.7553 -1.0475  1.3862
  148SAPE     N16298   2.829   6.771  10.976  0.0070 -0.5681 -0.8178
  148SAPE   HN116299   2.817   6.847  10.906  2.0557  0.5734  0.0327
  148SAPE   HN216300   2.736   6.763  11.021  0.1734 -2.2280 -0.7265
  148SAPE   HN316301   2.894   6.807  11.049 -0.9001  1.5487 -1.0228
  148SAPE   C1216302   2.862   6.655  10.894  0.0674  1.2704  0.4611
  148SAPE  H12A16303   2.763   6.620  10.858  0.5697  0.9040 -0.5972
  148SAPE  H12B16304   2.909   6.585  10.966 -2.9516 -1.6099 -0.2237
  148SAPE   C1116305   2.955   6.679  10.772 -0.3675 -0.2398  0.2982
  148SAPE  H11A16306   2.943   6.595  10.701 -1.8747  1.2990 -1.3137
  148SAPE  H11B16307   3.062   6.684  10.800 -0.4016  0.2151  0.3665
  148SAPE     P16308   3.027   6.885  10.615  0.1416  0.0920  0.3546
  148SAPE   O1316309   2.994   7.029  10.646 -0.2712  0.1345  0.3257
  148SAPE   O1416310   3.160   6.834  10.653  0.1656 -0.1777 -0.4191
  148SAPE   O1216311   2.927   6.798  10.697  0.2791 -0.5102  0.1752
  148SAPE   O1116312   2.988   6.867  10.456 -0.0556  1.4722 -0.8662
  148SAPE    C116313   2.948   6.730  10.423 -0.5889 -0.4526 -0.1632
  148SAPE    HA16314   2.876   6.691  10.497 -1.8803  0.0851 -1.1162
  148SAPE    HB16315   2.896   6.736  10.325 -2.0432  0.0866  0.6335
  148SAPE    C216316   3.066   6.627  10.407  0.7887 -0.3213  0.2339
  148SAPE    HS16317   3.131   6.636  10.497  0.2118  0.4616  0.5753
  148SAPE   O2116318   3.141   6.665  10.287  0.1146 -0.2538  0.2653
  148SAPE   C2116319   3.262   6.611  10.269 -0.1337  0.4807  0.2723
  148SAPE   O2216320   3.324   6.546  10.352  0.1186  0.2404  0.4444
  148SAPE   C2216321   3.315   6.646  10.130 -0.1331  0.3454 -0.4146
  148SAPE   H2R16322   3.338   6.755  10.131 -2.2435  0.8124  0.4324
  148SAPE   H2S16323   3.417   6.602  10.123 -0.3760 -0.2728 -0.0515
  148SAPE    C316324   3.026   6.479  10.387 -0.1395  0.4017  0.0631
  148SAPE    HX16325   2.982   6.450  10.485  1.6721 -2.1099  0.1641
  148SAPE    HY16326   3.115   6.414  10.376 -1.7510 -1.5163 -2.3678
  148SAPE   O3116327   2.952   6.452  10.263 -0.3688 -0.5740 -0.3082
  148SAPE   C3116328   2.824   6.420  10.280 -0.3958 -0.3256 -0.2754
  148SAPE   O3216329   2.764   6.433  10.387  0.2373 -0.5695 -0.9842
  148SAPE   C3216330   2.748   6.379  10.156  1.2990  0.7004  0.4815
  148SAPE   H2X16331   2.644   6.359  10.191  2.3441 -2.1691  2.1246
  148SAPE   H2Y16332   2.782   6.276  10.132 -3.5406 -0.4739 -2.0298
  148SAPE   C2316333   3.234   6.630  10.002 -0.2040 -0.8256  0.5109
  148SAPE   H3R16334   3.283   6.668   9.911  1.5122 -1.6138  1.0932
  148SAPE   H3S16335   3.137   6.685  10.005  1.0995  1.6587 -1.6538
  148SAPE   C2416336   3.200   6.480   9.964 -0.4012 -0.7505  0.3359
  148SAPE   H4R16337   3.119   6.487   9.889  1.6687  0.9443 -1.8231
  148SAPE   H4S16338   3.177   6.428  10.060 -2.3992 -1.3370 -0.4374
  148SAPE   C2516339   3.315   6.414   9.894  0.3100 -0.9007 -0.4222
  148SAPE   H5R16340   3.374   6.346   9.957 -1.5076 -1.9019  0.2285
  148SAPE   C2616341   3.351   6.440   9.766 -0.6403 -0.1194 -0.1950
  148SAPE   H6R16342   3.436   6.379   9.730 -0.0691 -0.5441  1.7977
  148SAPE   C2716343   3.293   6.536   9.661  0.3988 -0.1717 -0.3621
  148SAPE   H7R16344   3.366   6.611   9.625 -0.5475  0.4935 -0.9315
  148SAPE   H7S16345   3.217   6.605   9.705 -0.5331 -1.9807  0.9098
  148SAPE   C2816346   3.233   6.459   9.543 -0.5166 -0.4748  0.1966
  148SAPE   H8R16347   3.136   6.410   9.555 -0.8079  0.5188  2.0607
  148SAPE   C2916348   3.283   6.456   9.418 -0.2033 -0.0757  0.3055
  148SAPE   H9R16349   3.225   6.401   9.343 -0.8318  1.7547 -0.5968
  148SAPE  C21016350   3.412   6.512   9.377 -0.1207 -0.8174  0.3071
  148SAPE  H10R16351   3.445   6.463   9.283  0.7560  0.0978  0.1244
  148SAPE  H10S16352   3.494   6.500   9.451  0.6193  0.0467 -0.3465
  148SAPE  C21116353   3.402   6.656   9.324  0.5611 -0.1757 -0.6744
  148SAPE  H11R16354   3.418   6.736   9.398 -1.1511  1.7534 -2.3252
  148SAPE  C21216355   3.362   6.696   9.200  0.5301 -0.2233 -0.4026
  148SAPE  H12R16356   3.386   6.802   9.180  0.3675  0.0931  0.9995
  148SAPE  C21316357   3.333   6.597   9.080 -1.1011 -0.9105 -0.1418
  148SAPE  H13R16358   3.250   6.526   9.097 -0.4393 -1.2552  1.7147
  148SAPE  H13S16359   3.429   6.541   9.071  0.1878  1.4566 -1.8022
  148SAPE  C21416360   3.290   6.669   8.959 -0.2986 -0.0316 -0.6600
  148SAPE  H14R16361   3.182   6.691   8.959 -0.5910 -1.1332  3.0162
  148SAPE  C21516362   3.360   6.717   8.852 -0.1314 -0.1722  0.5690
  148SAPE  H15R16363   3.296   6.762   8.775  0.0877  0.9160  1.0137
  148SAPE  C21616364   3.515   6.707   8.827 -0.0145  0.2927 -0.2969
  148SAPE  H16R16365   3.538   6.659   8.730 -1.1627 -0.8209 -0.0252
  148SAPE  H16S16366   3.573   6.652   8.905  0.5178  0.9645 -0.1996
  148SAPE  C21716367   3.583   6.845   8.829 -0.7675  0.3055 -0.2713
  148SAPE  H17R16368   3.689   6.825   8.805 -0.4117  1.8686 -0.0882
  148SAPE  H17S16369   3.580   6.896   8.928 -0.8619  0.8291 -0.5400
  148SAPE  C21816370   3.527   6.945   8.722 -0.4768  0.0113 -0.6503
  148SAPE  H18R16371   3.579   7.043   8.730  0.0943 -0.3059 -0.4676
  148SAPE  H18S16372   3.425   6.972   8.757 -1.1176 -3.1690  0.0953
  148SAPE  C21916373   3.526   6.899   8.581 -0.0981  0.0178 -0.6813
  148SAPE  H19R16374   3.465   6.807   8.572  0.6718 -0.6297  0.4935
  148SAPE  H19S16375   3.629   6.872   8.549 -0.3448 -1.3343 -0.3287
  148SAPE  C22016376   3.478   7.012   8.494  0.0251 -0.0409  0.7319
  148SAPE  H20R16377   3.488   6.986   8.386 -2.5140  0.1564  0.4104
  148SAPE  H20S16378   3.540   7.101   8.515  0.0554  0.0636  0.2182
  148SAPE  H20T16379   3.373   7.047   8.511  0.7416  2.4981  0.1421
  148SAPE   C3316380   2.757   6.481  10.044  0.4810  0.1277 -0.4797
  148SAPE   H3X16381   2.864   6.495  10.014  0.5746 -1.9260 -1.2012
  148SAPE   H3Y16382   2.732   6.586  10.072  1.3174  0.9503 -2.6326
  148SAPE   C3416383   2.669   6.439   9.922 -0.2593  0.3564 -0.0788
  148SAPE   H4X16384   2.563   6.450   9.953 -0.4945 -0.9844 -0.3965
  148SAPE   H4Y16385   2.693   6.334   9.895  1.0367  0.3069  1.2333
  148SAPE   C3516386   2.694   6.531   9.803  0.1764  0.3127 -0.1003
  148SAPE   H5X16387   2.778   6.600   9.827  1.3279 -1.5642  1.3652
  148SAPE   H5Y16388   2.606   6.598   9.804 -0.2867 -0.2797 -0.7732
  148SAPE   C3616389   2.714   6.448   9.671 -0.0155  0.6492 -0.6261
  148SAPE   H6X16390   2.635   6.372   9.688 -0.1593  0.8510 -0.3678
  148SAPE   H6Y16391   2.811   6.395   9.675  0.0565  0.8781  1.9205
  148SAPE   C3716392   2.698   6.517   9.542  0.4781 -0.1757  0.3085
  148SAPE   H7X16393   2.779   6.594   9.539  2.3821 -2.1433 -0.0408
  148SAPE   H7Y16394   2.605   6.578   9.543  0.1799 -0.6255  1.2260
  148SAPE   C3816395   2.703   6.422   9.420  0.3025 -0.6486 -0.3523
  148SAPE   H8X16396   2.643   6.467   9.338  0.2765 -0.7234 -0.3742
  148SAPE   H8Y16397   2.650   6.325   9.434 -1.8443  0.6626  0.8074
  148SAPE   C3916398   2.855   6.407   9.370  0.0840  0.4823  0.0585
  148SAPE   H9X16399   2.912   6.347   9.445 -0.2396 -0.2497 -0.2714
  148SAPE   H9Y16400   2.900   6.508   9.359  0.5620  0.1858 -0.8015
  148SAPE  C31016401   2.856   6.341   9.231 -0.0156  0.1972 -0.0487
  148SAPE  H10X16402   2.785   6.386   9.158 -1.8087 -1.7673  0.4270
  148SAPE  H10Y16403   2.811   6.240   9.233  1.2606 -0.3575  1.3762
  148SAPE  C31116404   3.001   6.327   9.181  0.1070 -0.6543  0.1908
  148SAPE  H11X16405   3.053   6.265   9.257  0.0671  1.1563  1.7199
  148SAPE  H11Y16406   3.046   6.426   9.160 -1.0439  0.2349  1.8296
  148SAPE  C31216407   3.012   6.255   9.052 -0.2889 -0.6501  0.1318
  148SAPE  H12X16408   2.976   6.302   8.958  0.5528 -1.9075 -0.8333
  148SAPE  H12Y16409   2.949   6.164   9.064 -2.1351  0.7768  1.6537
  148SAPE  C31316410   3.148   6.193   9.024  0.2049  0.2772  0.4892
  148SAPE  H13X16411   3.182   6.153   9.122 -0.1965 -1.1111  0.0742
  148SAPE  H13Y16412   3.206   6.281   8.988 -0.4547  0.7141  0.4858
  148SAPE  C31416413   3.143   6.082   8.918 -0.0291  0.6396  0.1742
  148SAPE  H14X16414   3.104   6.123   8.822 -2.7547  1.6335  1.6684
  148SAPE  H14Y16415   3.075   6.003   8.955  1.0369 -1.6055 -2.4645
  148SAPE  C31516416   3.278   6.009   8.894  0.8181 -0.0990 -0.0836
  148SAPE  H15X16417   3.308   5.967   8.993  0.0643  0.5225  0.4053
  148SAPE  H15Y16418   3.348   6.083   8.851  1.4628 -2.2848 -3.0023
  148SAPE  C31616419   3.268   5.896   8.799  0.0798 -0.9715 -0.2979
  148SAPE  H16X16420   3.186   5.830   8.836 -0.1008 -0.6310 -0.0894
  148SAPE  H16Y16421   3.358   5.831   8.805  1.0533  0.2284 -1.6997
  148SAPE  C31716422   3.242   5.933   8.652 -0.4092 -0.5763  0.2173
  148SAPE  H17X16423   3.146   5.989   8.652 -0.6380 -0.9551 -1.1367
  148SAPE  H17Y16424   3.236   5.838   8.594  1.0550 -0.7042  0.2784
  148SAPE  C31816425   3.359   6.023   8.591  0.3566 -0.6114  0.3738
  148SAPE  H18X16426   3.454   5.967   8.579  0.8941  0.2622  0.5427
  148SAPE  H18Y16427   3.370   6.120   8.642  1.5239 -0.2488 -0.5584
  148SAPE  H18Z16428   3.345   6.051   8.485  0.1374 -2.4716 -0.1166
  149SAPE     N16429   5.007   2.099  11.036  0.0942  0.1768 -0.0577
  149SAPE   HN116430   5.096   2.122  11.084 -0.9823 -0.4116  2.3286
  149SAPE   HN216431   4.956   2.190  11.039  1.5149  1.0835 -2.4076
  149SAPE   HN316432   4.954   2.036  11.100  0.3341  1.1987  1.1746
  149SAPE   C1216433   5.011   2.050  10.890  0.0639  0.6642 -0.1785
  149SAPE  H12A16434   5.060   2.123  10.821  0.9020 -1.5773 -2.0279
  149SAPE  H12B16435   4.908   2.021  10.859 -0.2524 -0.3080  1.7163
  149SAPE   C1116436   5.092   1.923  10.874  0.1908  0.5178  0.0639
  149SAPE  H11A16437   5.197   1.941  10.906  0.0053 -2.1055  2.2981
  149SAPE  H11B16438   5.105   1.909  10.765 -0.5704 -2.8493  0.3651
  149SAPE     P16439   5.067   1.662  10.863 -0.0479 -0.3540  0.2129
  149SAPE   O1316440   5.213   1.654  10.864  0.0325  0.1795 -0.4710
  149SAPE   O1416441   4.988   1.552  10.928  0.0651 -1.0041 -0.4126
  149SAPE   O1216442   5.034   1.801  10.929 -0.1453 -0.1528  0.1401
  149SAPE   O1116443   5.015   1.686  10.712  0.0739  0.0745  0.5985
  149SAPE    C116444   5.061   1.603  10.605 -0.4421 -0.4589 -1.0701
  149SAPE    HA16445   5.134   1.529  10.645  0.0141 -0.1031 -1.2471
  149SAPE    HB16446   4.971   1.551  10.566 -2.4689  1.5198  0.8045
  149SAPE    C216447   5.134   1.693  10.494 -1.1445 -0.3012 -0.5206
  149SAPE    HS16448   5.155   1.796  10.530  2.3808  0.1067 -3.3584
  149SAPE   O2116449   5.045   1.693  10.375 -0.0677 -0.3523  0.0311
  149SAPE   C2116450   4.978   1.812  10.352  1.0124  0.0449  0.1877
  149SAPE   O2216451   5.013   1.922  10.395 -0.4539 -0.7871 -0.5855
  149SAPE   C2216452   4.857   1.776  10.269  0.4357 -0.6888  0.1397
  149SAPE   H2R16453   4.889   1.712  10.185  1.3723 -0.1345  0.0765
  149SAPE   H2S16454   4.791   1.718  10.338  0.0149  0.3236  0.6019
  149SAPE    C316455   5.267   1.632  10.446 -0.2580 -0.2833 -0.0693
  149SAPE    HX16456   5.248   1.529  10.409 -1.0236  0.4474 -1.7785
  149SAPE    HY16457   5.332   1.626  10.536  1.1683  1.6937 -0.9312
  149SAPE   O3116458   5.328   1.712  10.343  0.2460 -0.2372  1.0697
  149SAPE   C3116459   5.457   1.685  10.322  0.0049 -0.4993  1.0813
  149SAPE   O3216460   5.521   1.600  10.386 -0.5788  0.2904  0.3438
  149SAPE   C3216461   5.523   1.770  10.214 -0.2759  0.2161 -0.2406
  149SAPE   H2X16462   5.629   1.737  10.214 -0.7947 -1.5308  1.6684
  149SAPE   H2Y16463   5.530   1.870  10.261 -0.8791  0.8091 -1.3933
  149SAPE   C2316464   4.779   1.889  10.213  0.0710  0.4801  0.0608
  149SAPE   H3R16465   4.859   1.949  10.164  1.5007 -1.2842  0.2083
  149SAPE   H3S16466   4.733   1.956  10.288 -0.3529 -1.5532  1.6531
  149SAPE   C2416467   4.675   1.855  10.091 -0.2653 -0.1283 -0.0850
  149SAPE   H4R16468   4.611   1.778  10.140  0.8890 -1.2313 -0.2851
  149SAPE   H4S16469   4.738   1.809  10.011  0.9447  0.4263  0.5358
  149SAPE   C2516470   4.597   1.977  10.048 -0.1443 -0.3441  0.5511
  149SAPE   H5R16471   4.534   2.031  10.120 -2.5640 -2.3640 -0.0018
  149SAPE   C2616472   4.601   2.020   9.924  0.1941 -0.3323 -0.6248
  149SAPE   H6R16473   4.521   2.084   9.884 -0.2824 -1.3389 -1.2866
  149SAPE   C2716474   4.678   1.969   9.810  0.4302  0.5997  0.3433
  149SAPE   H7R16475   4.630   1.994   9.712  0.4193  0.8375  0.4077
  149SAPE   H7S16476   4.689   1.859   9.804 -0.9382  0.4243  0.7809
  149SAPE   C2816477   4.818   2.032   9.821 -0.3041 -0.6800  0.4289
  149SAPE   H8R16478   4.847   2.050   9.926 -1.9560 -1.4217  1.0338
  149SAPE   C2916479   4.897   2.085   9.723 -0.2133 -0.2374  0.0153
  149SAPE   H9R16480   4.998   2.118   9.752 -0.1871  0.0177 -0.3782
  149SAPE  C21016481   4.877   2.070   9.573 -0.2529 -0.5205  0.0107
  149SAPE  H10R16482   4.787   2.011   9.545 -0.2603 -1.0449  1.1045
  149SAPE  H10S16483   4.961   2.006   9.536  0.2411  0.5694 -0.7889
  149SAPE  C21116484   4.863   2.200   9.502 -0.5632  0.5024 -0.0241
  149SAPE  H11R16485   4.949   2.262   9.473 -0.9965  2.4804  2.6502
  149SAPE  C21216486   4.741   2.268   9.494  0.1690  0.7226 -0.6832
  149SAPE  H12R16487   4.738   2.364   9.440  1.4699  0.9579 -0.3556
  149SAPE  C21316488   4.606   2.219   9.543 -0.1498 -0.4914  0.3901
  149SAPE  H13R16489   4.586   2.249   9.648  1.6365 -2.0116  1.1936
  149SAPE  H13S16490   4.613   2.108   9.542 -0.0408 -0.4861  0.6924
  149SAPE  C21416491   4.478   2.271   9.472 -0.1502  0.2809 -0.0438
  149SAPE  H14R16492   4.405   2.317   9.540  0.0098  0.7269 -0.1693
  149SAPE  C21516493   4.452   2.274   9.341 -0.3084 -0.7230  0.3979
  149SAPE  H15R16494   4.358   2.319   9.305 -0.5755 -0.3052  1.5933
  149SAPE  C21616495   4.544   2.204   9.239  0.4596  0.1423 -0.1175
  149SAPE  H16R16496   4.485   2.119   9.200  0.6927 -0.3417  0.5867
  149SAPE  H16S16497   4.640   2.159   9.270  1.9098  2.2876 -1.3271
  149SAPE  C21716498   4.580   2.304   9.123  0.5373 -0.3448  0.5550
  149SAPE  H17R16499   4.643   2.263   9.041 -1.5949 -0.2641 -1.1699
  149SAPE  H17S16500   4.630   2.393   9.166 -0.1683  0.4938 -0.3419
  149SAPE  C21816501   4.459   2.341   9.033 -0.6404  0.2551  0.2473
  149SAPE  H18R16502   4.482   2.432   8.974  1.3026 -0.5536 -0.2858
  149SAPE  H18S16503   4.373   2.368   9.098 -1.0480  1.1200 -0.6258
  149SAPE  C21916504   4.412   2.235   8.928 -0.3832 -0.3361 -0.5610
  149SAPE  H19R16505   4.378   2.145   8.983  1.9015 -1.4431 -0.9042
  149SAPE  H19S16506   4.497   2.193   8.871  0.5139 -0.1009  0.5766
  149SAPE  C22016507   4.305   2.280   8.831  0.3059 -0.1275 -0.5241
  149SAPE  H20R16508   4.240   2.347   8.892  1.1524 -0.9203  1.3161
  149SAPE  H20S16509   4.243   2.196   8.794 -3.1609  1.2773  1.8060
  149SAPE  H20T16510   4.355   2.341   8.753  0.9247  1.3003  0.9337
  149SAPE   C3316511   5.478   1.771  10.064  0.7957 -0.4465  0.3939
  149SAPE   H3X16512   5.487   1.665  10.032 -1.2771 -0.6022  0.2795
  149SAPE   H3Y16513   5.549   1.837  10.008 -2.9319  2.0486 -1.6025
  149SAPE   C3416514   5.332   1.819  10.045  0.5934 -0.8433  0.0444
  149SAPE   H4X16515   5.331   1.930  10.044  0.0702 -0.8469 -0.8351
  149SAPE   H4Y16516   5.265   1.772  10.120  0.9664 -1.8689 -0.2510
  149SAPE   C3516517   5.281   1.782   9.906 -0.1683  0.9156  0.0785
  149SAPE   H5X16518   5.354   1.818   9.830  1.4067  0.7480  1.4959
  149SAPE   H5Y16519   5.188   1.842   9.897  1.1397  2.6995 -2.3165
  149SAPE   C3616520   5.252   1.630   9.882  0.7410  0.5442  0.3256
  149SAPE   H6X16521   5.185   1.592   9.962  0.3513  0.4906 -0.0246
  149SAPE   H6Y16522   5.335   1.558   9.892 -0.1951 -0.3419  1.9740
  149SAPE   C3716523   5.168   1.612   9.744  0.2428  0.5865 -0.7834
  149SAPE   H7X16524   5.154   1.502   9.733  1.4504  0.3335  0.2110
  149SAPE   H7Y16525   5.239   1.653   9.669 -0.1742 -0.5944 -1.8472
  149SAPE   C3816526   5.031   1.689   9.729 -0.3158 -0.8326  0.5717
  149SAPE   H8X16527   5.050   1.798   9.714  1.3012 -1.4162 -1.9737
  149SAPE   H8Y16528   4.969   1.680   9.821 -0.6989 -0.8442  0.3138
  149SAPE   C3916529   4.964   1.645   9.601 -0.3001 -0.1913  0.4291
  149SAPE   H9X16530   4.865   1.695   9.603  0.1666  0.9693 -2.8384
  149SAPE   H9Y16531   4.959   1.534   9.601  1.3267 -0.3092 -1.8109
  149SAPE  C31016532   5.040   1.704   9.479  1.5158  0.2819 -0.1465
  149SAPE  H10X16533   5.144   1.668   9.472  1.9630  1.9462 -2.4683
  149SAPE  H10Y16534   5.044   1.814   9.494  2.6939 -0.0712  2.2833
  149SAPE  C31116535   4.974   1.686   9.349  0.1903 -0.5244  0.6624
  149SAPE  H11X16536   4.928   1.586   9.335  1.3361 -0.6241 -3.1784
  149SAPE  H11Y16537   5.047   1.701   9.266 -0.1496 -1.8727  0.1047
  149SAPE  C31216538   4.857   1.786   9.323 -0.8723  0.7192 -0.1136
  149SAPE  H12X16539   4.867   1.896   9.328 -3.8719  1.0531 -0.1413
  149SAPE  H12Y16540   4.789   1.775   9.410 -0.3490  0.0009  0.2044
  149SAPE  C31316541   4.788   1.757   9.185 -0.6474 -0.1019  0.1791
  149SAPE  H13X16542   4.743   1.656   9.192  0.3281 -0.4517  1.9047
  149SAPE  H13Y16543   4.872   1.756   9.113  0.3709  0.5002  1.3344
  149SAPE  C31416544   4.677   1.856   9.144 -0.0850  0.4154  0.1853
  149SAPE  H14X16545   4.701   1.959   9.177  0.2272  0.5900 -0.5935
  149SAPE  H14Y16546   4.596   1.831   9.217 -1.0779  3.1894  0.1102
  149SAPE  C31516547   4.643   1.853   8.993 -0.7199 -0.3248  0.0880
  149SAPE  H15X16548   4.540   1.893   8.979  0.0882  1.0273 -2.2841
  149SAPE  H15Y16549   4.631   1.748   8.959  0.3340 -0.8512  1.3156
  149SAPE  C31616550   4.749   1.913   8.906 -0.0781  0.4760 -0.1924
  149SAPE  H16X16551   4.852   1.881   8.930 -0.2288 -0.1781 -0.4088
  149SAPE  H16Y16552   4.736   2.024   8.912 -0.7160  0.3181  1.2992
  149SAPE  C31716553   4.736   1.864   8.759 -0.7392 -0.1444  0.0490
  149SAPE  H17X16554   4.633   1.887   8.721 -0.7125  0.9394  0.6093
  149SAPE  H17Y16555   4.741   1.753   8.754  0.3916 -0.0782 -0.2791
  149SAPE  C31816556   4.848   1.923   8.680  0.4283  0.4526 -0.5043
  149SAPE  H18X16557   4.940   1.873   8.717 -0.5937  0.1796  1.7716
  149SAPE  H18Y16558   4.840   2.033   8.665 -1.7507  0.4798  0.6404
  149SAPE  H18Z16559   4.831   1.874   8.582 -1.0687  1.8452 -0.9615
  150SAPE     N16560   6.643   1.336  10.705 -0.1222  0.1861 -0.6655
  150SAPE   HN116561   6.663   1.431  10.669  0.1530  0.1795 -0.5317
  150SAPE   HN216562   6.698   1.312  10.789 -3.9193  1.6755  2.4120
  150SAPE   HN316563   6.670   1.272  10.627 -1.5060  0.0512 -1.0510
  150SAPE   C1216564   6.503   1.332  10.756  0.1819 -0.2031 -0.3240
  150SAPE  H12A16565   6.430   1.331  10.673 -1.7908 -0.8983  1.3649
  150SAPE  H12B16566   6.487   1.427  10.812  0.6480 -0.9549  1.1095
  150SAPE   C1116567   6.474   1.204  10.838  0.2116  0.5315 -0.0642
  150SAPE  H11A16568   6.440   1.125  10.768  3.3878 -1.1647  0.2047
  150SAPE  H11B16569   6.393   1.226  10.910 -0.0899 -0.8296  0.0165
  150SAPE     P16570   6.660   1.029  10.910 -0.1825  0.0675  0.0181
  150SAPE   O1316571   6.763   1.014  11.017  0.1440 -0.0969 -0.3262
  150SAPE   O1416572   6.553   0.926  10.899 -0.3829 -0.5415 -0.5649
  150SAPE   O1216573   6.591   1.167  10.923  0.2467 -0.2085  0.3062
  150SAPE   O1116574   6.733   1.056  10.772 -0.0090 -0.0996 -0.0481
  150SAPE    C116575   6.865   1.057  10.743  0.3064  0.2422 -0.4409
  150SAPE    HA16576   6.910   1.140  10.800 -0.3700 -0.9456  1.8767
  150SAPE    HB16577   6.910   0.961  10.776  0.4948 -0.8727 -3.7515
  150SAPE    C216578   6.903   1.076  10.596 -0.4104  0.8120 -0.1466
  150SAPE    HS16579   6.896   1.182  10.564 -0.7079  0.4848 -1.2050
  150SAPE   O2116580   6.825   0.990  10.506 -0.2527 -0.6560 -0.3084
  150SAPE   C2116581   6.709   1.038  10.486  0.4193 -0.7183  0.5923
  150SAPE   O2216582   6.671   1.149  10.524 -0.1862 -0.1286  0.5188
  150SAPE   C2216583   6.620   0.936  10.405 -0.3460 -0.6930  0.0133
  150SAPE   H2R16584   6.621   0.840  10.461 -0.9979 -0.0437  1.1700
  150SAPE   H2S16585   6.516   0.975  10.397 -0.8145 -2.3470 -2.8113
  150SAPE    C316586   7.057   1.050  10.576 -0.4544 -0.2593 -0.0339
  150SAPE    HX16587   7.080   0.944  10.601 -1.4173 -0.2357  0.9527
  150SAPE    HY16588   7.117   1.100  10.655 -1.2877  0.8720 -0.1130
  150SAPE   O3116589   7.098   1.084  10.437  0.5830 -0.5612  0.0164
  150SAPE   C3116590   7.222   1.044  10.416  0.5961  0.5526 -0.0749
  150SAPE   O3216591   7.300   1.006  10.502  0.0752 -0.1920 -0.0049
  150SAPE   C3216592   7.256   1.060  10.272  0.0426 -0.5985  0.1600
  150SAPE   H2X16593   7.349   1.120  10.269 -1.1717  1.3507  0.1926
  150SAPE   H2Y16594   7.186   1.135  10.229  1.6419  0.6706 -0.2881
  150SAPE   C2316595   6.669   0.913  10.254  0.2298  0.1946 -0.3860
  150SAPE   H3R16596   6.777   0.889  10.257 -0.0854 -1.0697  1.7892
  150SAPE   H3S16597   6.649   1.012  10.208 -1.7287 -0.6744 -1.5127
  150SAPE   C2416598   6.610   0.787  10.196 -0.0226  0.0554  0.2568
  150SAPE   H4R16599   6.634   0.699  10.260  0.0822  1.6568  2.4594
  150SAPE   H4S16600   6.663   0.767  10.100  0.3138  2.7105 -0.1451
  150SAPE   C2516601   6.461   0.799  10.179  1.1410  0.3857  0.2923
  150SAPE   H5R16602   6.401   0.791  10.270  2.0722  0.3507  0.9144
  150SAPE   C2616603   6.398   0.834  10.067  0.2516  0.1646 -0.6290
  150SAPE   H6R16604   6.288   0.834  10.070  0.0601  1.3035 -4.5554
  150SAPE   C2716605   6.457   0.876   9.936 -0.6179  0.1190  0.1924
  150SAPE   H7R16606   6.557   0.921   9.953 -0.1340 -1.6372  2.2942
  150SAPE   H7S16607   6.400   0.957   9.886  0.8426  1.8495  1.2521
  150SAPE   C2816608   6.479   0.749   9.864 -0.1784 -0.0287 -0.0370
  150SAPE   H8R16609   6.521   0.665   9.923  1.1178  0.5567 -0.1076
  150SAPE   C2916610   6.455   0.730   9.740  0.5552  0.5113 -0.1273
  150SAPE   H9R16611   6.469   0.628   9.699 -5.1633 -0.6139  0.3371
  150SAPE  C21016612   6.407   0.832   9.640 -0.1595 -0.7128 -0.0486
  150SAPE  H10R16613   6.329   0.901   9.677  0.4563  0.8972 -1.7056
  150SAPE  H10S16614   6.368   0.769   9.557  0.4851 -0.5367 -0.4872
  150SAPE  C21116615   6.524   0.919   9.596  0.6532 -0.6296 -0.3416
  150SAPE  H11R16616   6.597   0.950   9.671 -0.0403 -0.7177  0.3800
  150SAPE  C21216617   6.563   0.958   9.469 -0.2636  0.2154  0.5095
  150SAPE  H12R16618   6.646   1.028   9.458 -0.4473  0.2286 -0.9309
  150SAPE  C21316619   6.493   0.917   9.341  0.3724  0.3568  0.7347
  150SAPE  H13R16620   6.450   0.814   9.344 -0.1705  0.4846 -1.5432
  150SAPE  H13S16621   6.570   0.922   9.262  1.9746  0.1950  2.2658
  150SAPE  C21416622   6.385   1.016   9.292 -0.0819 -0.0830 -1.2848
  150SAPE  H14R16623   6.402   1.121   9.318  0.5977  0.1486 -2.6596
  150SAPE  C21516624   6.285   0.985   9.209 -0.3571 -0.5480 -0.6051
  150SAPE  H15R16625   6.211   1.063   9.184 -2.3655 -1.6445  1.7719
  150SAPE  C21616626   6.240   0.854   9.150 -0.5263 -0.2573 -0.4794
  150SAPE  H16R16627   6.202   0.784   9.228 -0.6835 -0.2356 -0.5338
  150SAPE  H16S16628   6.328   0.796   9.116  0.2026 -0.5494  1.8378
  150SAPE  C21716629   6.142   0.871   9.031  0.0451 -0.1397 -0.8198
  150SAPE  H17R16630   6.197   0.925   8.951 -0.4407  3.3145  1.0689
  150SAPE  H17S16631   6.056   0.935   9.060  1.3242  1.2668 -0.0658
  150SAPE  C21816632   6.097   0.738   8.965 -0.6268 -0.6599 -0.5499
  150SAPE  H18R16633   6.004   0.698   9.011 -0.5083  1.2548  1.4921
  150SAPE  H18S16634   6.185   0.670   8.966  0.2538  0.4206 -2.0861
  150SAPE  C21916635   6.055   0.754   8.815  0.7800  0.2942 -0.1750
  150SAPE  H19R16636   6.006   0.657   8.793  0.4145  0.7839 -1.5980
  150SAPE  H19S16637   6.146   0.771   8.753  2.2643 -1.0115  1.5856
  150SAPE  C22016638   5.943   0.859   8.791 -0.2391  0.0853 -0.0323
  150SAPE  H20R16639   5.845   0.811   8.814 -0.4795 -0.5565 -2.3132
  150SAPE  H20S16640   5.955   0.882   8.683  4.0794  0.0219  0.3752
  150SAPE  H20T16641   5.952   0.954   8.848 -3.0024  2.3917 -3.2055
  150SAPE   C3316642   7.258   0.925  10.195  0.2350 -0.0638 -0.0612
  150SAPE   H3X16643   7.181   0.860  10.242  0.0629  1.4837  1.8308
  150SAPE   H3Y16644   7.354   0.869  10.186 -0.3820 -0.7161 -2.9170
  150SAPE   C3416645   7.227   0.944  10.044  0.2206  1.3330  0.0619
  150SAPE   H4X16646   7.119   0.959  10.024 -0.3307  0.0303  1.9865
  150SAPE   H4Y16647   7.252   0.846   9.998 -1.4297  1.2651 -0.7041
  150SAPE   C3516648   7.309   1.062   9.988 -0.2810  0.2513  0.1488
  150SAPE   H5X16649   7.409   1.065  10.037  0.5048 -0.6853 -1.3488
  150SAPE   H5Y16650   7.256   1.159   9.991  1.0533  1.0279 -0.4526
  150SAPE   C3616651   7.345   1.059   9.840  0.7268 -0.6729  0.3501
  150SAPE   H6X16652   7.411   0.972   9.818  0.6506 -0.2742 -1.5151
  150SAPE   H6Y16653   7.386   1.156   9.807  0.2912 -0.6671 -0.1662
  150SAPE   C3716654   7.210   1.049   9.756 -0.3206  0.4786 -0.1876
  150SAPE   H7X16655   7.125   1.107   9.796 -0.8284 -0.8035  0.5975
  150SAPE   H7Y16656   7.173   0.945   9.769 -0.6881  0.7829  1.3137
  150SAPE   C3816657   7.227   1.092   9.608  0.2790 -0.8356  0.0276
  150SAPE   H8X16658   7.320   1.050   9.565 -0.2214 -0.4980 -1.4203
  150SAPE   H8Y16659   7.224   1.203   9.616 -1.3611 -0.9846  1.9880
  150SAPE   C3916660   7.106   1.052   9.520  0.1772 -0.1904 -0.1267
  150SAPE   H9X16661   7.031   1.102   9.585 -1.1634 -3.5947  1.0465
  150SAPE   H9Y16662   7.084   0.944   9.523 -2.8706  0.3698 -0.6007
  150SAPE  C31016663   7.112   1.111   9.379 -0.1059 -0.2617  1.0439
  150SAPE  H10X16664   7.155   1.213   9.387 -0.1614 -0.1770  0.3124
  150SAPE  H10Y16665   7.015   1.126   9.326 -0.4579  0.6629  1.9267
  150SAPE  C31116666   7.197   1.016   9.290  0.0033 -0.0601  0.3597
  150SAPE  H11X16667   7.126   0.937   9.257  1.2722 -1.4378  0.8294
  150SAPE  H11Y16668   7.278   0.974   9.354 -0.4601  0.8307  1.5389
  150SAPE  C31216669   7.250   1.082   9.161 -0.2237 -0.3003 -0.0388
  150SAPE  H12X16670   7.276   1.189   9.178  2.6134 -0.5802 -2.2162
  150SAPE  H12Y16671   7.162   1.074   9.094  0.2912  1.1967 -0.9161
  150SAPE  C31316672   7.364   1.006   9.099 -0.3245 -0.0455  0.3507
  150SAPE  H13X16673   7.445   0.991   9.174  0.2518  0.2438 -0.2039
  150SAPE  H13Y16674   7.406   1.067   9.016 -1.2247 -1.2698 -1.0286
  150SAPE  C31416675   7.335   0.868   9.048  0.3062  0.1036 -0.7680
  150SAPE  H14X16676   7.248   0.870   8.979 -1.8471 -0.1015  1.8585
  150SAPE  H14Y16677   7.302   0.798   9.127  1.2030 -0.1662 -0.6248
  150SAPE  C31516678   7.465   0.813   8.988 -0.0268 -0.5037  0.2573
  150SAPE  H15X16679   7.540   0.830   9.068  1.7188 -0.8612 -1.2632
  150SAPE  H15Y16680   7.510   0.867   8.901 -1.2454 -0.2274 -0.2052
  150SAPE  C31616681   7.454   0.664   8.947  0.0114  0.2027  0.0367
  150SAPE  H16X16682   7.361   0.664   8.886  0.4731 -0.6231 -0.6780
  150SAPE  H16Y16683   7.425   0.595   9.029  0.1286 -1.9972 -1.7418
  150SAPE  C31716684   7.578   0.622   8.860 -0.1459  0.1365 -0.0302
  150SAPE  H17X16685   7.669   0.656   8.914  1.6928 -0.3959 -2.7316
  150SAPE  H17Y16686   7.576   0.677   8.764 -1.2721 -2.4971 -1.5753
  150SAPE  C31816687   7.572   0.479   8.808 -0.2274  0.2466  0.5735
  150SAPE  H18X16688   7.593   0.407   8.890 -2.9870 -0.7309  0.4723
  150SAPE  H18Y16689   7.655   0.468   8.735 -0.3159 -1.2794  0.6720
  150SAPE  H18Z16690   7.474   0.449   8.766 -0.6925 -0.0172  1.8129
  151SAPE     N16691   4.101   4.880  10.681  0.0517  0.4439  0.0759
  151SAPE   HN116692   4.043   4.822  10.744 -0.1959 -0.8825 -1.3581
  151SAPE   HN216693   4.197   4.843  10.697 -1.1736 -2.9276 -0.0729
  151SAPE   HN316694   4.091   4.983  10.696  0.0302  0.5071 -0.3636
  151SAPE   C1216695   4.069   4.854  10.532  0.0486 -0.1230  0.2135
  151SAPE  H12A16696   3.980   4.787  10.534  0.0817 -0.1493  0.8760
  151SAPE  H12B16697   4.155   4.802  10.484 -1.0073 -1.1728 -0.5729
  151SAPE   C1116698   4.050   4.995  10.459 -0.1498  0.1294  0.4197
  151SAPE  H11A16699   3.962   5.037  10.513  0.1457  0.8947  0.3091
  151SAPE  H11B16700   4.024   4.964  10.356  0.7989 -0.2175  0.2815
  151SAPE     P16701   4.168   5.197  10.358 -0.6198  0.0188  0.2320
  151SAPE   O1316702   4.034   5.227  10.304  0.3482  1.0963 -0.1973
  151SAPE   O1416703   4.253   5.315  10.398 -0.3451  0.2049  0.0684
  151SAPE   O1216704   4.162   5.078  10.465  0.6416 -0.1968  0.0485
  151SAPE   O1116705   4.246   5.126  10.245  0.1139 -0.0011 -0.2772
  151SAPE    C116706   4.332   5.013  10.267 -0.6606  0.0718 -0.0241
  151SAPE    HA16707   4.403   5.035  10.349 -0.2395  1.0817 -0.6538
  151SAPE    HB16708   4.289   4.912  10.281 -0.2262  0.2735  3.0673
  151SAPE    C216709   4.424   5.003  10.137 -0.0036 -0.6232  0.2830
  151SAPE    HS16710   4.480   5.099  10.140 -1.0648  0.0554 -0.9924
  151SAPE   O2116711   4.348   4.989  10.017 -0.5462  0.1311 -0.2787
  151SAPE   C2116712   4.316   5.097   9.954 -0.6519 -0.2336  0.4572
  151SAPE   O2216713   4.359   5.210   9.974  0.6866  0.4675 -0.1407
  151SAPE   C2216714   4.208   5.064   9.846 -0.2702  0.1556 -0.4939
  151SAPE   H2R16715   4.184   4.956   9.839 -1.3773  0.3671 -0.0104
  151SAPE   H2S16716   4.120   5.120   9.884  1.1352  1.5022  0.8620
  151SAPE    C316717   4.522   4.880  10.157 -0.0161  0.5914 -0.4199
  151SAPE    HX16718   4.463   4.796  10.198 -0.6926  1.7349  1.0280
  151SAPE    HY16719   4.588   4.901  10.244 -0.1756 -0.6392  0.0044
  151SAPE   O3116720   4.590   4.851  10.035 -0.3574 -0.0536 -0.0529
  151SAPE   C3116721   4.530   4.776   9.943 -0.5770 -0.7101 -0.3812
  151SAPE   O3216722   4.426   4.709   9.959  0.1143 -0.2611 -0.4401
  151SAPE   C3216723   4.609   4.790   9.808  0.0809 -0.0658  0.4227
  151SAPE   H2X16724   4.695   4.724   9.829  1.2883  1.8318  1.5730
  151SAPE   H2Y16725   4.645   4.893   9.788 -1.2288  0.2736 -0.2494
  151SAPE   C2316726   4.244   5.100   9.701  0.2548 -0.4058 -0.8193
  151SAPE   H3R16727   4.350   5.074   9.685  1.3017  1.2208  2.9192
  151SAPE   H3S16728   4.240   5.208   9.676  0.6067 -0.7632 -2.4119
  151SAPE   C2416729   4.169   5.009   9.603 -0.6419 -0.0034 -0.0286
  151SAPE   H4R16730   4.172   4.902   9.634 -0.9463 -0.6201 -2.1109
  151SAPE   H4S16731   4.222   5.020   9.506  1.2258  0.2018  0.9919
  151SAPE   C2516732   4.022   5.049   9.609 -0.3335  0.0790  0.9517
  151SAPE   H5R16733   3.983   5.064   9.711  0.7949 -0.3625  1.4692
  151SAPE   C2616734   3.929   5.055   9.509 -0.4908 -0.2104 -0.5048
  151SAPE   H6R16735   3.828   5.090   9.535 -0.0043 -1.2777  3.0011
  151SAPE   C2716736   3.959   5.008   9.369 -0.1967 -0.3157 -0.0552
  151SAPE   H7R16737   4.065   4.976   9.359 -0.2712 -0.8394  0.7692
  151SAPE   H7S16738   3.941   5.092   9.298 -0.4996 -1.7881 -1.7745
  151SAPE   C2816739   3.876   4.886   9.334  0.4874 -0.2771 -0.2515
  151SAPE   H8R16740   3.777   4.877   9.382  0.5986  0.6640  0.1596
  151SAPE   C2916741   3.921   4.773   9.281  0.5163 -0.0647  0.3586
  151SAPE   H9R16742   3.849   4.691   9.269  1.3907 -0.8122  0.1283
  151SAPE  C21016743   4.064   4.752   9.246  0.2345  0.7220  0.4402
  151SAPE  H10R16744   4.112   4.746   9.346  1.6490  0.0869 -0.2537
  151SAPE  H10S16745   4.116   4.841   9.205  2.3802 -0.2864  0.8885
  151SAPE  C21116746   4.088   4.634   9.158  0.1992 -0.8227 -0.5224
  151SAPE  H11R16747   4.092   4.534   9.204  1.2968  0.0777  1.4019
  151SAPE  C21216748   4.131   4.644   9.030  0.3501  0.1533  0.5069
  151SAPE  H12R16749   4.152   4.554   8.970 -1.9147  1.3623 -2.1749
  151SAPE  C21316750   4.163   4.769   8.950  0.3343  0.1235  0.2283
  151SAPE  H13R16751   4.201   4.730   8.853  0.0151 -1.6814  0.8072
  151SAPE  H13S16752   4.251   4.811   9.003 -0.6527  2.8360 -0.2234
  151SAPE  C21416753   4.069   4.885   8.943 -0.1708  0.0879  0.1809
  151SAPE  H14R16754   3.993   4.890   9.022 -0.8670  0.0587 -0.4847
  151SAPE  C21516755   4.059   4.989   8.856 -0.2020 -0.4025  0.0681
  151SAPE  H15R16756   4.000   5.075   8.892  2.7789  1.1954  1.3354
  151SAPE  C21616757   4.157   5.034   8.753  0.0273  0.0872  0.6417
  151SAPE  H16R16758   4.130   5.137   8.720  2.3776  1.0601  1.6768
  151SAPE  H16S16759   4.141   4.982   8.656 -0.9660  0.0877  0.7976
  151SAPE  C21716760   4.308   5.039   8.789  0.0776  0.8671 -0.3001
  151SAPE  H17R16761   4.362   5.058   8.693 -0.0114 -0.0907 -0.5421
  151SAPE  H17S16762   4.342   4.942   8.832  2.0057  1.3831 -0.6253
  151SAPE  C21816763   4.344   5.154   8.890 -0.2986 -0.2651 -0.7900
  151SAPE  H18R16764   4.256   5.221   8.894  0.0602  0.1167  1.0612
  151SAPE  H18S16765   4.433   5.205   8.848 -0.7127  0.4981 -0.7425
  151SAPE  C21916766   4.359   5.095   9.029 -0.7231  0.1132  0.1945
  151SAPE  H19R16767   4.426   5.007   9.030 -1.2236 -0.2690  1.3125
  151SAPE  H19S16768   4.263   5.060   9.074 -1.4593  1.9785  0.1110
  151SAPE  C22016769   4.426   5.188   9.123 -0.4360 -0.2624  0.4361
  151SAPE  H20R16770   4.368   5.279   9.152  0.7892  0.0090  2.1513
  151SAPE  H20S16771   4.523   5.225   9.083 -0.4025 -1.2572 -0.4210
  151SAPE  H20T16772   4.447   5.125   9.212  1.1962 -2.1114 -1.2160
  151SAPE   C3316773   4.518   4.751   9.686  0.5822  1.1237  0.2848
  151SAPE   H3X16774   4.433   4.823   9.686  1.2060  1.8744  1.8681
  151SAPE   H3Y16775   4.480   4.646   9.689  1.4572  0.7232 -1.6895
  151SAPE   C3416776   4.605   4.775   9.557 -0.8603  0.1421 -0.7060
  151SAPE   H4X16777   4.678   4.696   9.531 -0.6491  0.1001  0.0040
  151SAPE   H4Y16778   4.670   4.862   9.579 -0.4091 -0.2252 -0.5800
  151SAPE   C3516779   4.519   4.795   9.430  0.3767  0.0095 -0.2713
  151SAPE   H5X16780   4.468   4.894   9.431  0.7513  0.2113  1.3881
  151SAPE   H5Y16781   4.439   4.718   9.425  0.1199  0.1084  1.7832
  151SAPE   C3616782   4.601   4.794   9.296  0.6172  0.2943 -0.2915
  151SAPE   H6X16783   4.674   4.712   9.312 -0.4023 -1.2075 -2.9359
  151SAPE   H6Y16784   4.631   4.895   9.262  0.1537  0.6430  0.3337
  151SAPE   C3716785   4.523   4.733   9.177  0.6420  0.3220 -0.7540
  151SAPE   H7X16786   4.441   4.806   9.161 -0.9227 -1.1983  0.1321
  151SAPE   H7Y16787   4.482   4.636   9.214 -0.9795  0.2491 -2.6944
  151SAPE   C3816788   4.597   4.714   9.053 -0.7926  0.3442 -0.5413
  151SAPE   H8X16789   4.676   4.638   9.074 -1.0252  1.0370  3.2152
  151SAPE   H8Y16790   4.636   4.814   9.028  1.4081 -0.1776  0.7299
  151SAPE   C3916791   4.505   4.672   8.929 -0.1796 -0.5454 -0.3544
  151SAPE   H9X16792   4.438   4.759   8.911  1.2868  0.6635 -0.1367
  151SAPE   H9Y16793   4.443   4.585   8.958 -1.7609  0.8535  0.5432
  151SAPE  C31016794   4.598   4.630   8.809  0.3662  0.2282  0.1675
  151SAPE  H10X16795   4.664   4.544   8.831 -0.3121 -0.2468  0.3775
  151SAPE  H10Y16796   4.668   4.714   8.791 -1.6166  2.0927  0.8157
  151SAPE  C31116797   4.524   4.609   8.680  0.4712  0.4324 -0.5554
  151SAPE  H11X16798   4.456   4.523   8.700  0.2152  0.4650 -1.2659
  151SAPE  H11Y16799   4.609   4.590   8.612  0.3112 -2.3723 -0.0189
  151SAPE  C31216800   4.442   4.727   8.627  0.5781  0.6200  0.1455
  151SAPE  H12X16801   4.507   4.808   8.586  0.6867 -0.0592 -1.0625
  151SAPE  H12Y16802   4.381   4.765   8.712 -0.2340 -1.2745  0.4334
  151SAPE  C31316803   4.342   4.697   8.514 -0.2349 -0.1151 -0.1426
  151SAPE  H13X16804   4.380   4.621   8.443  1.3748  0.1537  0.3934
  151SAPE  H13Y16805   4.335   4.790   8.454 -0.3671 -0.2023 -0.2605
  151SAPE  C31416806   4.213   4.672   8.569  0.2828  0.7946  0.3080
  151SAPE  H14X16807   4.187   4.768   8.618  1.0248  0.3561  1.5893
  151SAPE  H14Y16808   4.219   4.584   8.637  1.6858  0.3521 -0.3790
  151SAPE  C31516809   4.113   4.650   8.450  0.4105 -0.6090 -0.3592
  151SAPE  H15X16810   4.143   4.569   8.380 -0.6980  0.6237 -2.3382
  151SAPE  H15Y16811   4.099   4.742   8.388  0.5512 -0.0876  0.3800
  151SAPE  C31616812   3.972   4.615   8.496  0.3553  0.3000  0.1565
  151SAPE  H16X16813   3.936   4.698   8.561  1.0939  1.5628 -1.0307
  151SAPE  H16Y16814   3.965   4.526   8.563  3.2425  0.3806  0.6245
  151SAPE  C31716815   3.879   4.589   8.375 -0.5800 -0.4204  0.4741
  151SAPE  H17X16816   3.775   4.569   8.408 -1.2309 -0.1570 -1.3810
  151SAPE  H17Y16817   3.918   4.501   8.321 -0.8604  0.0054 -0.4317
  151SAPE  C31816818   3.879   4.689   8.260 -0.2677 -0.5246  0.0282
  151SAPE  H18X16819   3.972   4.677   8.200  1.0816 -0.8756  2.1358
  151SAPE  H18Y16820   3.860   4.793   8.296  2.6515 -0.0490  0.3722
  151SAPE  H18Z16821   3.789   4.671   8.197 -1.1318  3.1942  0.0681
  152SAPE     N16822   6.458   4.800  10.816  0.0189  0.2277  0.0125
  152SAPE   HN116823   6.487   4.817  10.914  0.4184 -1.4888  0.2147
  152SAPE   HN216824   6.463   4.696  10.808 -0.1806  0.3224 -1.4043
  152SAPE   HN316825   6.534   4.847  10.763  1.0593 -2.2266 -0.7816
  152SAPE   C1216826   6.325   4.866  10.794 -0.9399  0.6154 -0.4044
  152SAPE  H12A16827   6.331   4.977  10.795  1.4706  0.5169 -0.3075
  152SAPE  H12B16828   6.256   4.840  10.876 -1.5684 -0.6712 -1.3196
  152SAPE   C1116829   6.262   4.805  10.671  0.1828 -0.5281 -0.1147
  152SAPE  H11A16830   6.321   4.847  10.586  0.9053 -1.4741 -0.0945
  152SAPE  H11B16831   6.159   4.844  10.660  0.7446  0.9532 -0.2024
  152SAPE     P16832   6.252   4.582  10.551  0.2836 -0.6668 -0.1934
  152SAPE   O1316833   6.394   4.562  10.524  0.3528 -0.4288 -0.6886
  152SAPE   O1416834   6.172   4.460  10.562 -0.0078 -0.2799 -0.1063
  152SAPE   O1216835   6.240   4.661  10.683 -0.4086  0.5819  0.4266
  152SAPE   O1116836   6.192   4.658  10.432 -0.4199 -0.3156 -0.2911
  152SAPE    C116837   6.060   4.656  10.389 -0.3074  0.0079 -0.1885
  152SAPE    HA16838   5.991   4.619  10.468  2.8638 -0.7323  2.3256
  152SAPE    HB16839   6.025   4.755  10.352 -3.0352 -1.6285 -2.1571
  152SAPE    C216840   6.035   4.561  10.267 -0.2090 -0.4982  0.0405
  152SAPE    HS16841   6.067   4.465  10.312  1.2212 -0.3215 -0.5717
  152SAPE   O2116842   6.121   4.599  10.165 -1.0879  0.5935 -0.1000
  152SAPE   C2116843   6.145   4.515  10.076 -0.2604 -0.3684 -0.6418
  152SAPE   O2216844   6.127   4.395  10.083  0.2194 -0.3024  0.7481
  152SAPE   C2216845   6.196   4.594   9.957  0.0468 -0.5319  0.2884
  152SAPE   H2R16846   6.136   4.685   9.934  2.2695  0.7117 -0.8286
  152SAPE   H2S16847   6.301   4.615   9.984 -0.5262  0.1005  2.0766
  152SAPE    C316848   5.882   4.577  10.225 -1.0175  0.0989 -0.4861
  152SAPE    HX16849   5.859   4.677  10.182 -3.7433  0.1974  1.1017
  152SAPE    HY16850   5.836   4.566  10.326  0.3465 -1.4992 -0.0150
  152SAPE   O3116851   5.838   4.486  10.124 -0.5574  0.1612  0.0924
  152SAPE   C3116852   5.797   4.363  10.166  0.5489  0.4331  0.9803
  152SAPE   O3216853   5.780   4.326  10.280 -0.3919  0.1238  0.6816
  152SAPE   C3216854   5.764   4.283  10.033 -0.4221  0.9204 -0.2978
  152SAPE   H2X16855   5.857   4.294   9.974  0.9595  0.8533  1.8229
  152SAPE   H2Y16856   5.680   4.332   9.978 -1.3133  0.3817  0.5661
  152SAPE   C2316857   6.198   4.501   9.836  0.1238 -0.2983  0.0008
  152SAPE   H3R16858   6.239   4.399   9.850  2.4677  0.8734  2.1883
  152SAPE   H3S16859   6.268   4.536   9.756  0.0032  0.8927  0.3972
  152SAPE   C2416860   6.067   4.499   9.757 -0.1348 -1.2381 -0.1632
  152SAPE   H4R16861   5.996   4.468   9.837 -1.1900  1.2495 -0.1112
  152SAPE   H4S16862   6.077   4.414   9.686 -0.4842 -0.5081 -1.0887
  152SAPE   C2516863   6.026   4.631   9.699  0.0616  0.2238  0.0857
  152SAPE   H5R16864   5.988   4.700   9.776 -0.2507  0.6961 -0.4933
  152SAPE   C2616865   6.025   4.678   9.575  0.2460 -0.5321 -0.3838
  152SAPE   H6R16866   6.007   4.786   9.566  0.6642 -0.3788  0.5192
  152SAPE   C2716867   6.066   4.598   9.449 -0.0677  0.2800  0.3479
  152SAPE   H7R16868   5.984   4.618   9.376 -0.6895  0.2714  1.0463
  152SAPE   H7S16869   6.044   4.490   9.457  1.8460 -0.0379  1.4376
  152SAPE   C2816870   6.202   4.625   9.392  0.0142  0.0158 -0.4374
  152SAPE   H8R16871   6.279   4.649   9.467 -0.4597 -1.4647  0.5424
  152SAPE   C2916872   6.237   4.633   9.265  0.2496  0.4758 -0.1495
  152SAPE   H9R16873   6.338   4.667   9.236  0.9676  0.2623  2.0300
  152SAPE  C21016874   6.149   4.617   9.141 -0.5630  0.2484  0.3242
  152SAPE  H10R16875   6.057   4.561   9.169 -2.1960  2.5952 -0.2159
  152SAPE  H10S16876   6.209   4.569   9.060  1.1483 -0.6661  2.0731
  152SAPE  C21116877   6.117   4.761   9.093  0.4807  0.0679 -0.4064
  152SAPE  H11R16878   6.077   4.827   9.171  0.4429  2.3985 -2.3560
  152SAPE  C21216879   6.131   4.819   8.970 -0.3209  0.8912 -1.2798
  152SAPE  H12R16880   6.089   4.919   8.952 -0.9784  0.5642 -1.5708
  152SAPE  C21316881   6.190   4.758   8.849 -0.0144 -0.0982  0.6206
  152SAPE  H13R16882   6.101   4.735   8.787  0.5979 -0.5817 -0.0873
  152SAPE  H13S16883   6.245   4.663   8.869  0.8097  0.5347  1.4263
  152SAPE  C21416884   6.292   4.855   8.784  0.4418  0.5064 -0.5015
  152SAPE  H14R16885   6.253   4.958   8.778  1.8052  1.1552  1.3943
  152SAPE  C21516886   6.412   4.833   8.732  0.0541  0.2418 -0.0457
  152SAPE  H15R16887   6.461   4.919   8.685  0.3627  0.6003  0.9200
  152SAPE  C21616888   6.477   4.697   8.712  0.4371  0.7367  0.7354
  152SAPE  H16R16889   6.465   4.675   8.603  0.9468  4.0998 -0.0718
  152SAPE  H16S16890   6.432   4.621   8.778  1.0596  0.3233  0.6976
  152SAPE  C21716891   6.631   4.685   8.741  0.1557 -0.0845 -0.3872
  152SAPE  H17R16892   6.648   4.684   8.851  0.6817 -0.8124 -0.4751
  152SAPE  H17S16893   6.683   4.763   8.682 -0.0418 -0.3963 -0.9744
  152SAPE  C21816894   6.694   4.559   8.691  0.2465  0.6428  0.5644
  152SAPE  H18R16895   6.799   4.583   8.663  0.0586  0.5327 -0.2254
  152SAPE  H18S16896   6.640   4.521   8.601 -1.5212  0.3787  1.7052
  152SAPE  C21916897   6.700   4.442   8.801  0.6405 -0.3384 -0.3740
  152SAPE  H19R16898   6.594   4.442   8.833  0.5488 -0.4124 -0.6744
  152SAPE  H19S16899   6.756   4.460   8.895  0.3214 -2.2023  0.1920
  152SAPE  C22016900   6.744   4.308   8.745 -0.2964 -0.4688  0.0145
  152SAPE  H20R16901   6.753   4.225   8.819  0.6403 -0.5477 -0.1778
  152SAPE  H20S16902   6.848   4.302   8.707 -0.0925 -1.9096  0.7637
  152SAPE  H20T16903   6.683   4.282   8.657 -1.8482  0.9637  0.6381
  152SAPE   C3316904   5.716   4.138  10.054  0.2111  0.3639  0.0718
  152SAPE   H3X16905   5.616   4.141  10.103 -0.2191  1.1069 -0.8437
  152SAPE   H3Y16906   5.780   4.071  10.115  0.0797 -0.4430 -0.6808
  152SAPE   C3416907   5.676   4.063   9.922  1.1090 -0.2640 -0.4215
  152SAPE   H4X16908   5.660   3.954   9.935 -0.1643 -0.1891 -1.3080
  152SAPE   H4Y16909   5.776   4.073   9.873  0.6727  0.1383 -1.2368
  152SAPE   C3516910   5.566   4.113   9.834  0.0866  0.5571  0.6773
  152SAPE   H5X16911   5.539   4.220   9.844 -3.2197 -0.0456 -0.9912
  152SAPE   H5Y16912   5.478   4.064   9.882  0.2743  0.2349  0.6892
  152SAPE   C3616913   5.567   4.065   9.685 -0.3487  0.2298  0.3804
  152SAPE   H6X16914   5.487   4.116   9.626 -0.5637 -0.5924 -0.0370
  152SAPE   H6Y16915   5.547   3.956   9.682 -2.1170  0.5499 -0.3616
  152SAPE   C3716916   5.707   4.088   9.619  0.2770 -0.6555 -0.0619
  152SAPE   H7X16917   5.787   4.018   9.652 -0.1033 -1.1018 -0.0803
  152SAPE   H7Y16918   5.745   4.186   9.655  1.8366 -0.7014 -1.5280
  152SAPE   C3816919   5.698   4.093   9.468  0.3680  0.4595 -0.3742
  152SAPE   H8X16920   5.605   4.147   9.442 -0.2908 -1.1734 -1.4912
  152SAPE   H8Y16921   5.679   3.989   9.433 -2.7780  0.7058  0.4618
  152SAPE   C3916922   5.819   4.171   9.408  0.1723 -0.5505 -0.2366
  152SAPE   H9X16923   5.907   4.112   9.443 -0.2803 -0.4097  1.1964
  152SAPE   H9Y16924   5.822   4.270   9.458  1.1791 -0.9714  0.5757
  152SAPE  C31016925   5.800   4.212   9.266 -0.8176  0.6093  0.0679
  152SAPE  H10X16926   5.697   4.241   9.237 -1.0385 -1.0339 -0.8502
  152SAPE  H10Y16927   5.818   4.119   9.208  1.4332  0.1272  1.4588
  152SAPE  C31116928   5.885   4.324   9.209  0.1130  0.0504 -0.3221
  152SAPE  H11X16929   5.989   4.302   9.242 -1.1607 -3.9449  1.3034
  152SAPE  H11Y16930   5.853   4.413   9.268  0.4571  0.4258 -0.7004
  152SAPE  C31216931   5.874   4.353   9.059 -1.3355  0.3774  0.8874
  152SAPE  H12X16932   5.883   4.256   9.005  0.5093  0.6231  0.7108
  152SAPE  H12Y16933   5.955   4.421   9.025 -1.0485  0.7541  2.2801
  152SAPE  C31316934   5.735   4.406   9.014  0.2600  0.1645 -0.9513
  152SAPE  H13X16935   5.701   4.497   9.069 -0.3398 -0.8476  0.3934
  152SAPE  H13Y16936   5.672   4.317   9.036  0.9123 -0.3243 -1.0623
  152SAPE  C31416937   5.723   4.431   8.863 -0.2286  0.5407 -0.7790
  152SAPE  H14X16938   5.758   4.333   8.824 -0.8387 -0.7070  1.6740
  152SAPE  H14Y16939   5.800   4.506   8.833  0.6387 -0.9642 -2.4364
  152SAPE  C31516940   5.589   4.467   8.814  0.8209 -0.6289 -0.6074
  152SAPE  H15X16941   5.548   4.556   8.866 -2.0932 -2.5540  0.5441
  152SAPE  H15Y16942   5.523   4.384   8.848 -0.8420  0.6928 -0.5198
  152SAPE  C31616943   5.572   4.476   8.658 -0.3824 -0.7486  0.3504
  152SAPE  H16X16944   5.462   4.462   8.647 -0.5763  0.9350 -0.1052
  152SAPE  H16Y16945   5.610   4.389   8.600 -0.2176 -0.9061  0.6958
  152SAPE  C31716946   5.621   4.614   8.614  0.6417  0.3333 -0.0948
  152SAPE  H17X16947   5.730   4.612   8.634  0.7655 -0.8485 -0.8449
  152SAPE  H17Y16948   5.580   4.694   8.679 -0.5056 -0.8705  0.6881
  152SAPE  C31816949   5.600   4.653   8.468  0.6855 -0.0721  0.1637
  152SAPE  H18X16950   5.496   4.642   8.431 -0.0848 -2.0624  2.7123
  152SAPE  H18Y16951   5.667   4.581   8.415 -1.6238 -0.3584 -2.4928
  152SAPE  H18Z16952   5.623   4.760   8.452  0.7890  0.0775  1.3008
  153SAPE     N16953   5.147   5.752  10.663 -0.0317  0.5206  0.7549
  153SAPE   HN116954   5.069   5.756  10.594 -0.9668 -0.6499  1.7129
  153SAPE   HN216955   5.211   5.833  10.651  1.9801 -1.0509  0.6834
  153SAPE   HN316956   5.207   5.670  10.640 -0.9407  0.8051 -2.9889
  153SAPE   C1216957   5.114   5.772  10.802  0.3439 -0.0485 -0.2734
  153SAPE  H12A16958   5.005   5.762  10.823  0.1830 -0.5483 -1.2854
  153SAPE  H12B16959   5.142   5.876  10.827  0.6621  0.0748 -1.1131
  153SAPE   C1116960   5.181   5.677  10.902 -0.6804 -0.6621  0.0016
  153SAPE  H11A16961   5.157   5.704  11.007 -0.4217  1.5556 -0.4835
  153SAPE  H11B16962   5.291   5.685  10.890 -0.7532 -1.1433 -1.0802
  153SAPE     P16963   5.219   5.428  10.802 -0.1079 -0.1013  0.1239
  153SAPE   O1316964   5.349   5.396  10.868 -0.3240 -0.0097  0.1713
  153SAPE   O1416965   5.121   5.318  10.774  0.0520 -0.2423  0.2867
  153SAPE   O1216966   5.143   5.543  10.880 -0.1957 -0.2974 -0.3557
  153SAPE   O1116967   5.257   5.497  10.667 -0.5340 -0.8010  0.0846
  153SAPE    C116968   5.346   5.430  10.574  0.3415  0.1793 -0.2235
  153SAPE    HA16969   5.362   5.324  10.603 -0.6574 -0.2925 -1.3385
  153SAPE    HB16970   5.280   5.424  10.484  0.3122 -0.1383 -0.1819
  153SAPE    C216971   5.475   5.502  10.562  0.5327 -0.1490 -0.0443
  153SAPE    HS16972   5.517   5.512  10.665  1.7438  1.6093 -0.6784
  153SAPE   O2116973   5.442   5.629  10.500 -0.0760  0.0580 -0.5263
  153SAPE   C2116974   5.547   5.709  10.502  0.1330  0.6532  1.0140
  153SAPE   O2216975   5.654   5.691  10.559 -0.1285  0.3800 -0.4037
  153SAPE   C2216976   5.513   5.838  10.412  0.4826 -0.8056 -0.3188
  153SAPE   H2R16977   5.402   5.851  10.413  0.5049 -0.6571  0.3418
  153SAPE   H2S16978   5.551   5.924  10.470  3.2374 -1.6732 -0.7998
  153SAPE    C316979   5.570   5.418  10.471 -0.4853 -0.3674 -0.2817
  153SAPE    HX16980   5.568   5.315  10.514 -1.6809 -0.8698 -1.4916
  153SAPE    HY16981   5.673   5.458  10.478  0.1106 -1.9576  0.4714
  153SAPE   O3116982   5.529   5.422  10.333  0.2632 -0.1831 -0.1597
  153SAPE   C3116983   5.454   5.322  10.290  0.0159  0.5783  0.4535
  153SAPE   O3216984   5.421   5.220  10.354 -0.1391  0.1152  0.1893
  153SAPE   C3216985   5.398   5.353  10.147 -0.1950  0.5346  0.1120
  153SAPE   H2X16986   5.294   5.391  10.146 -0.4460 -0.1510 -1.0636
  153SAPE   H2Y16987   5.378   5.256  10.097  1.2864  0.3759 -0.1821
  153SAPE   C2316988   5.574   5.836  10.276  0.1652  0.1547  0.0864
  153SAPE   H3R16989   5.551   5.733  10.241 -2.3895  0.1792  1.5772
  153SAPE   H3S16990   5.685   5.821  10.277  0.0840 -0.7005 -1.5391
  153SAPE   C2416991   5.535   5.956  10.190 -0.4083 -0.2551 -0.3261
  153SAPE   H4R16992   5.523   6.045  10.256 -0.1160 -0.2758 -0.2426
  153SAPE   H4S16993   5.433   5.935  10.152 -0.9315  0.1524  0.8373
  153SAPE   C2516994   5.637   5.974  10.081 -0.1908 -0.2957 -0.4768
  153SAPE   H5R16995   5.723   6.028  10.123 -2.4461  0.7582  3.0218
  153SAPE   C2616996   5.632   5.933   9.953  0.0432 -0.5483 -0.3207
  153SAPE   H6R16997   5.721   5.953   9.892  1.2645 -0.7554  1.3582
  153SAPE   C2716998   5.519   5.846   9.892 -0.1729 -0.2179 -0.6843
  153SAPE   H7R16999   5.465   5.794   9.974  0.6280  0.7392  0.4753
  153SAPE   H7S17000   5.569   5.778   9.821  1.8657  0.1007  0.4024
  153SAPE   C2817001   5.429   5.932   9.808 -0.5113 -0.0371 -0.2132
  153SAPE   H8R17002   5.381   6.014   9.864 -1.0475 -0.1758 -0.4632
  153SAPE   C2917003   5.408   5.919   9.676  0.5750  0.4904 -0.3149
  153SAPE   H9R17004   5.341   5.990   9.624 -1.0608 -0.8442 -0.0685
  153SAPE  C21017005   5.474   5.812   9.586 -0.1227 -0.0334  0.1073
  153SAPE  H10R17006   5.407   5.723   9.585 -0.3185  0.1173 -0.6042
  153SAPE  H10S17007   5.576   5.785   9.622  1.3844  3.8193 -1.0529
  153SAPE  C21117008   5.481   5.855   9.444  1.2651 -0.4280 -0.0389
  153SAPE  H11R17009   5.462   5.961   9.425  0.2747 -0.5265  0.4136
  153SAPE  C21217010   5.540   5.787   9.347 -0.1508 -0.4273  0.1615
  153SAPE  H12R17011   5.533   5.832   9.247  1.6063 -0.7994 -0.1371
  153SAPE  C21317012   5.610   5.651   9.353  0.3542  0.5743  0.2162
  153SAPE  H13R17013   5.529   5.585   9.315 -0.2849  1.1839  0.4927
  153SAPE  H13S17014   5.642   5.624   9.456 -1.6550  2.4217  1.3736
  153SAPE  C21417015   5.728   5.633   9.263 -0.1120  0.2144 -0.1251
  153SAPE  H14R17016   5.798   5.715   9.280 -2.2118  1.6743  1.7772
  153SAPE  C21517017   5.745   5.545   9.168  0.2566  0.2445 -0.3733
  153SAPE  H15R17018   5.832   5.568   9.105 -0.0343  1.1985 -0.4245
  153SAPE  C21617019   5.664   5.426   9.131  0.1885 -0.2676 -0.0976
  153SAPE  H16R17020   5.580   5.413   9.202 -0.0322  0.4664 -0.2150
  153SAPE  H16S17021   5.727   5.336   9.150  1.0193  0.2609 -0.2766
  153SAPE  C21717022   5.615   5.427   8.983 -0.3320  0.1855 -0.1623
  153SAPE  H17R17023   5.576   5.530   8.974 -0.7726 -0.0399 -0.8057
  153SAPE  H17S17024   5.528   5.361   8.963  0.4090 -0.6893 -0.5413
  153SAPE  C21817025   5.723   5.397   8.872  0.4261  0.2959  0.3298
  153SAPE  H18R17026   5.740   5.287   8.883  4.5839  0.8486  0.1959
  153SAPE  H18S17027   5.819   5.451   8.880  0.8244 -0.6894  2.4047
  153SAPE  C21917028   5.677   5.427   8.725 -0.0151 -0.3844  1.1861
  153SAPE  H19R17029   5.587   5.361   8.726 -0.6009  0.3848 -0.2731
  153SAPE  H19S17030   5.743   5.397   8.641 -0.9226  1.6533 -0.2974
  153SAPE  C22017031   5.645   5.567   8.696  0.8082 -0.7089 -0.0484
  153SAPE  H20R17032   5.572   5.571   8.612  1.3289 -1.4376 -0.5409
  153SAPE  H20S17033   5.730   5.636   8.676  0.6292 -0.5725 -0.3235
  153SAPE  H20T17034   5.586   5.613   8.778 -0.9725 -1.2165 -1.0138
  153SAPE   C3317035   5.489   5.450  10.072  0.4558  0.0744 -0.0108
  153SAPE   H3X17036   5.597   5.426  10.074  0.0791 -1.8290 -1.2371
  153SAPE   H3Y17037   5.469   5.547  10.124 -0.3603  0.6616 -1.4048
  153SAPE   C3417038   5.451   5.453   9.922 -0.0703  0.0190  0.1628
  153SAPE   H4X17039   5.506   5.531   9.865 -0.3268  0.3413  0.3572
  153SAPE   H4Y17040   5.340   5.458   9.920 -0.1665 -1.7331  0.5393
  153SAPE   C3517041   5.498   5.327   9.857  0.3751  0.1232 -0.4494
  153SAPE   H5X17042   5.444   5.240   9.900  3.1708 -0.9703  0.9084
  153SAPE   H5Y17043   5.604   5.311   9.884  0.4091 -0.7124 -1.0547
  153SAPE   C3617044   5.482   5.325   9.702 -0.4256  0.1435  0.5679
  153SAPE   H6X17045   5.507   5.421   9.652  0.9200 -0.6830 -0.3795
  153SAPE   H6Y17046   5.374   5.316   9.674 -0.3447  0.5685  0.1143
  153SAPE   C3717047   5.570   5.216   9.638 -0.3519  0.5170 -0.3777
  153SAPE   H7X17048   5.536   5.114   9.668 -2.4451  1.5763  0.9864
  153SAPE   H7Y17049   5.671   5.233   9.680 -0.8146 -0.8634  1.3466
  153SAPE   C3817050   5.572   5.215   9.490  0.5637 -0.4893 -0.4653
  153SAPE   H8X17051   5.672   5.187   9.452 -0.3928  0.4709 -3.8378
  153SAPE   H8Y17052   5.563   5.322   9.461 -0.9620  0.2898  2.6224
  153SAPE   C3917053   5.460   5.128   9.423  0.2409 -0.2164 -0.1070
  153SAPE   H9X17054   5.365   5.150   9.475  1.3264  1.0346  1.3939
  153SAPE   H9Y17055   5.487   5.022   9.442  2.3814  0.6143  1.8108
  153SAPE  C31017056   5.449   5.161   9.270 -0.2570 -0.2914  0.1909
  153SAPE  H10X17057   5.541   5.126   9.219 -0.0850  1.2982 -0.6276
  153SAPE  H10Y17058   5.441   5.272   9.264 -3.7446 -0.4994 -0.3762
  153SAPE  C31117059   5.331   5.098   9.202  0.8806  0.4338 -0.5261
  153SAPE  H11X17060   5.247   5.108   9.274  0.5051  0.1594 -0.9290
  153SAPE  H11Y17061   5.332   4.989   9.185 -2.1609  0.5824 -1.9898
  153SAPE  C31217062   5.297   5.155   9.069 -0.6800  0.4030 -0.2576
  153SAPE  H12X17063   5.310   5.265   9.066  0.8211  0.2320 -0.2559
  153SAPE  H12Y17064   5.190   5.134   9.049 -0.4336 -0.3105 -0.8683
  153SAPE  C31317065   5.388   5.086   8.964  0.5396  0.0152 -0.0479
  153SAPE  H13X17066   5.370   4.976   8.963  2.1488 -0.2676  0.6291
  153SAPE  H13Y17067   5.495   5.094   8.992  1.3999 -3.3562 -2.1030
  153SAPE  C31417068   5.367   5.136   8.819  0.2225  0.0291 -0.0655
  153SAPE  H14X17069   5.383   5.245   8.834 -1.2066  0.3000 -0.4831
  153SAPE  H14Y17070   5.260   5.114   8.800 -0.7001  1.1924  3.2686
  153SAPE  C31517071   5.470   5.078   8.720  0.4859  0.5611  0.0679
  153SAPE  H15X17072   5.469   4.971   8.749 -2.5226  0.2166 -1.1733
  153SAPE  H15Y17073   5.570   5.114   8.752  0.1661  1.5333 -0.0030
  153SAPE  C31617074   5.436   5.101   8.571 -0.0910  0.2768 -0.1904
  153SAPE  H16X17075   5.330   5.072   8.550  0.3182 -1.5302  0.1410
  153SAPE  H16Y17076   5.486   5.021   8.512  0.9145 -0.5816  1.7816
  153SAPE  C31717077   5.489   5.238   8.514  0.4121  0.1410  0.1723
  153SAPE  H17X17078   5.600   5.244   8.506  0.3190  0.7511 -0.6210
  153SAPE  H17Y17079   5.450   5.307   8.593 -1.5233 -0.6690 -0.0571
  153SAPE  C31817080   5.432   5.264   8.375 -0.6357  0.4984  0.7403
  153SAPE  H18X17081   5.446   5.367   8.334  0.5863  0.1048  0.1727
  153SAPE  H18Y17082   5.326   5.233   8.380  0.3619 -3.2512 -0.1172
  153SAPE  H18Z17083   5.489   5.204   8.302  0.2420 -0.4218  2.1657
  154SAPE     N17084   0.129   5.470  10.466  0.5672  0.5154 -0.4907
  154SAPE   HN117085   0.053   5.507  10.406  1.6646 -0.7500 -2.7169
  154SAPE   HN217086   0.228   5.494  10.446  0.9214  1.4512  2.2359
  154SAPE   HN317087   0.128   5.366  10.465 -1.7001  0.4975  0.6187
  154SAPE   C1217088   0.113   5.543  10.596  1.1285 -0.3896 -0.5459
  154SAPE  H12A17089   0.134   5.651  10.582  3.1085 -0.2543  2.9985
  154SAPE  H12B17090   0.189   5.500  10.665  0.6771 -1.2606 -0.5793
  154SAPE   C1117091  -0.025   5.509  10.661 -0.2999 -0.5599  0.2915
  154SAPE  H11A17092  -0.030   5.569  10.754 -0.0042 -0.8828  0.5148
  154SAPE  H11B17093  -0.033   5.402  10.690  1.1875 -1.1077 -1.2474
  154SAPE     P17094  -0.221   5.665  10.583 -0.2697 -0.3557  0.3953
  154SAPE   O1317095  -0.357   5.623  10.621 -0.1126 -0.0821 -0.2760
  154SAPE   O1417096  -0.152   5.767  10.663 -0.1910 -0.4717 -0.1089
  154SAPE   O1217097  -0.133   5.532  10.570 -0.1603  0.5355  0.1059
  154SAPE   O1117098  -0.217   5.726  10.431  0.0628 -0.3331 -0.1679
  154SAPE    C117099  -0.330   5.802  10.388 -0.5503 -0.2128 -0.0210
  154SAPE    HA17100  -0.350   5.890  10.452 -0.3551  0.4424 -0.8560
  154SAPE    HB17101  -0.304   5.853  10.293  1.0684 -2.0210 -0.5763
  154SAPE    C217102  -0.437   5.711  10.345  0.0566 -0.1105 -0.4516
  154SAPE    HS17103  -0.462   5.646  10.432  2.1702  0.7360  0.8555
  154SAPE   O2117104  -0.395   5.631  10.240 -0.8408  0.7328  0.0691
  154SAPE   C2117105  -0.437   5.509  10.219 -0.0252  0.5143  0.4896
  154SAPE   O2217106  -0.494   5.437  10.298 -0.0773  0.3332  0.0415
  154SAPE   C2217107  -0.412   5.484  10.067 -0.0052  0.8194  0.8186
  154SAPE   H2R17108  -0.471   5.565  10.020  1.3676  1.0212 -0.5990
  154SAPE   H2S17109  -0.306   5.491  10.036 -0.1436 -1.3502 -0.2665
  154SAPE    C317110  -0.577   5.780  10.315 -0.7414 -0.7036 -0.5897
  154SAPE    HX17111  -0.576   5.842  10.222 -1.5225  0.8476  0.4142
  154SAPE    HY17112  -0.607   5.846  10.399 -1.1433  0.3132 -1.5145
  154SAPE   O3117113  -0.671   5.674  10.297 -0.4923  0.7398  0.0293
  154SAPE   C3117114  -0.802   5.697  10.340 -0.4848  0.5263 -0.2174
  154SAPE   O3217115  -0.836   5.799  10.391  0.2143  0.7891  0.3154
  154SAPE   C3217116  -0.896   5.585  10.312 -0.3587 -0.2233 -0.5267
  154SAPE   H2X17117  -0.996   5.633  10.301 -1.0345 -1.5550 -0.3222
  154SAPE   H2Y17118  -0.897   5.513  10.396  3.3712  0.9852  0.6104
  154SAPE   C2317119  -0.472   5.345  10.028 -0.9991  0.0215  1.2671
  154SAPE   H3R17120  -0.577   5.346  10.065 -2.0675 -1.2897 -1.6052
  154SAPE   H3S17121  -0.416   5.268  10.086 -0.8955 -0.3781  0.6335
  154SAPE   C2417122  -0.476   5.321   9.875  0.0260 -0.6119  0.6682
  154SAPE   H4R17123  -0.530   5.414   9.848  1.0324  0.1343  1.1806
  154SAPE   H4S17124  -0.535   5.230   9.850  0.3176 -0.8068  0.6743
  154SAPE   C2517125  -0.337   5.314   9.815  0.5051 -0.0650 -0.4045
  154SAPE   H5R17126  -0.276   5.237   9.865 -1.9832 -1.5457  0.4876
  154SAPE   C2617127  -0.287   5.380   9.709 -0.0627 -0.4446  0.2955
  154SAPE   H6R17128  -0.182   5.364   9.682  0.9500  4.4239  0.8538
  154SAPE   C2717129  -0.366   5.471   9.620  0.1790  0.3682 -0.2404
  154SAPE   H7R17130  -0.313   5.568   9.609 -0.3391  0.5147 -1.5199
  154SAPE   H7S17131  -0.460   5.508   9.667  1.3997 -0.4309  3.0006
  154SAPE   C2817132  -0.405   5.384   9.495  0.0266 -0.8605 -0.4625
  154SAPE   H8R17133  -0.476   5.306   9.527 -0.8955  0.1308 -0.0543
  154SAPE   C2917134  -0.383   5.402   9.367 -0.0248 -0.9553  0.1265
  154SAPE   H9R17135  -0.431   5.339   9.291 -0.8267 -0.2635  0.0554
  154SAPE  C21017136  -0.290   5.512   9.313  0.3122 -0.3467 -0.4025
  154SAPE  H10R17137  -0.234   5.564   9.394 -0.0257 -0.5791 -0.0188
  154SAPE  H10S17138  -0.350   5.596   9.273  0.0436 -0.5221 -0.3661
  154SAPE  C21117139  -0.205   5.455   9.214  0.0693  0.2079  0.1628
  154SAPE  H11R17140  -0.138   5.378   9.257 -1.2811 -1.4536 -0.6351
  154SAPE  C21217141  -0.194   5.481   9.085 -0.6137 -0.3132  1.0882
  154SAPE  H12R17142  -0.131   5.414   9.025 -0.3960 -0.5936  1.6303
  154SAPE  C21317143  -0.271   5.586   9.007  0.6828  0.4738 -0.2906
  154SAPE  H13R17144  -0.360   5.621   9.064  0.2161 -0.4194 -0.4624
  154SAPE  H13S17145  -0.317   5.546   8.913  0.2009  1.1548 -0.3501
  154SAPE  C21417146  -0.201   5.714   8.981 -1.0032 -0.5989 -0.8126
  154SAPE  H14R17147  -0.151   5.763   9.066  0.6344 -0.8190 -1.6158
  154SAPE  C21517148  -0.199   5.789   8.868 -0.5868  0.5256  0.7703
  154SAPE  H15R17149  -0.142   5.882   8.864  1.1872 -0.4621  2.3947
  154SAPE  C21617150  -0.266   5.751   8.740  0.4490 -0.0574 -0.0883
  154SAPE  H16R17151  -0.299   5.844   8.690 -1.6105 -0.7821 -0.1567
  154SAPE  H16S17152  -0.360   5.695   8.764  1.2498 -0.8506  1.2392
  154SAPE  C21717153  -0.201   5.657   8.632  0.0354 -0.4190 -0.0694
  154SAPE  H17R17154  -0.167   5.561   8.676 -0.2601 -0.8081 -0.6764
  154SAPE  H17S17155  -0.121   5.716   8.582 -0.0230 -1.0511 -0.9195
  154SAPE  C21817156  -0.298   5.626   8.509  0.2101 -0.2651  0.9067
  154SAPE  H18R17157  -0.388   5.571   8.543 -0.5576  1.4454  1.7090
  154SAPE  H18S17158  -0.246   5.556   8.440 -1.5026 -0.1722 -0.5111
  154SAPE  C21917159  -0.351   5.751   8.435 -0.2436 -0.2303  0.5671
  154SAPE  H19R17160  -0.260   5.808   8.408 -1.2606  0.8266 -0.6915
  154SAPE  H19S17161  -0.406   5.813   8.509  3.7611  3.1488  0.8762
  154SAPE  C22017162  -0.433   5.724   8.313  0.0290 -0.3763 -0.3923
  154SAPE  H20R17163  -0.536   5.697   8.346  0.0122 -1.4687 -1.3240
  154SAPE  H20S17164  -0.395   5.637   8.255 -0.1882 -0.4176 -0.4732
  154SAPE  H20T17165  -0.439   5.811   8.245 -0.0838  0.8190  1.1295
  154SAPE   C3317166  -0.866   5.510  10.182 -0.4020 -0.8056  0.1312
  154SAPE   H3X17167  -0.931   5.420  10.186 -1.4612  0.0060  4.3554
  154SAPE   H3Y17168  -0.759   5.482  10.181  0.2527  1.5745 -1.2728
  154SAPE   C3417169  -0.908   5.592  10.058  0.1275  1.0765  0.7961
  154SAPE   H4X17170  -0.848   5.686  10.063 -1.1168  1.9191 -0.0579
  154SAPE   H4Y17171  -1.016   5.614  10.063 -0.4899 -1.4981 -0.6289
  154SAPE   C3517172  -0.886   5.512   9.926  0.1789 -0.3643  0.3506
  154SAPE   H5X17173  -0.953   5.424   9.935 -0.1690  0.0590  2.0393
  154SAPE   H5Y17174  -0.784   5.469   9.934  0.3903  0.0230 -0.1885
  154SAPE   C3617175  -0.913   5.587   9.798 -0.0983  0.6245  0.2435
  154SAPE   H6X17176  -1.011   5.639   9.797  0.5029  1.7576  0.0597
  154SAPE   H6Y17177  -0.910   5.522   9.707 -0.2237 -0.0268  0.7031
  154SAPE   C3717178  -0.801   5.691   9.764  0.1995  0.5286  0.3799
  154SAPE   H7X17179  -0.704   5.638   9.758 -0.0596  0.2663 -1.9383
  154SAPE   H7Y17180  -0.804   5.776   9.835  0.0172 -0.8222  2.0026
  154SAPE   C3817181  -0.805   5.741   9.616  0.1464 -0.2995 -0.5912
  154SAPE   H8X17182  -0.893   5.809   9.615  1.3066  1.2337 -0.3629
  154SAPE   H8Y17183  -0.823   5.657   9.546 -0.0545 -0.5586 -0.2346
  154SAPE   C3917184  -0.678   5.808   9.566 -0.3591 -0.5655 -0.2398
  154SAPE   H9X17185  -0.586   5.757   9.604 -0.8081 -2.2058 -1.2899
  154SAPE   H9Y17186  -0.668   5.909   9.611 -1.0401 -0.3637 -0.5424
  154SAPE  C31017187  -0.664   5.804   9.412  0.1882  0.2175 -0.4838
  154SAPE  H10X17188  -0.681   5.702   9.373 -0.9841 -0.1835  1.0103
  154SAPE  H10Y17189  -0.560   5.836   9.390  0.4526 -0.3780 -0.1178
  154SAPE  C31117190  -0.773   5.891   9.352 -0.5863 -0.8621 -0.8217
  154SAPE  H11X17191  -0.773   5.995   9.392  0.6655 -0.7848 -0.9980
  154SAPE  H11Y17192  -0.871   5.842   9.370 -0.8792 -0.3696 -1.0700
  154SAPE  C31217193  -0.764   5.889   9.193  0.2528  0.4108 -0.7913
  154SAPE  H12X17194  -0.821   5.978   9.158 -0.3988  0.4649  0.3858
  154SAPE  H12Y17195  -0.824   5.803   9.156  0.0677  0.0810  0.2532
  154SAPE  C31317196  -0.621   5.901   9.138 -0.1789 -0.1631  0.1368
  154SAPE  H13X17197  -0.554   5.818   9.171  0.4006  1.1397  2.2952
  154SAPE  H13Y17198  -0.579   5.988   9.192  1.3968  0.0799 -1.4126
  154SAPE  C31417199  -0.622   5.916   8.987  0.0127  0.1198 -0.1700
  154SAPE  H14X17200  -0.516   5.928   8.958  0.3324 -1.7907  0.1314
  154SAPE  H14Y17201  -0.683   6.007   8.967 -0.3063  0.2122  1.1959
  154SAPE  C31517202  -0.668   5.781   8.931  0.4009 -0.6274  0.8666
  154SAPE  H15X17203  -0.772   5.755   8.959  0.4649 -2.5110 -0.5072
  154SAPE  H15Y17204  -0.589   5.706   8.954  0.3211 -0.8353  0.4715
  154SAPE  C31617205  -0.668   5.808   8.775 -0.2046 -0.2307 -0.2430
  154SAPE  H16X17206  -0.562   5.817   8.742 -0.5346  0.6821 -1.0763
  154SAPE  H16Y17207  -0.709   5.910   8.759 -0.8799 -0.3446  0.7452
  154SAPE  C31717208  -0.755   5.703   8.711  0.8280 -0.4881 -0.0379
  154SAPE  H17X17209  -0.853   5.693   8.762  1.0483  1.4244  0.7751
  154SAPE  H17Y17210  -0.705   5.604   8.724 -0.1913 -1.1654 -1.1278
  154SAPE  C31817211  -0.785   5.711   8.568  0.1455 -0.1958  0.0286
  154SAPE  H18X17212  -0.802   5.815   8.533  2.0037  0.5821  1.3394
  154SAPE  H18Y17213  -0.871   5.646   8.540 -1.4992  0.2242  3.7344
  154SAPE  H18Z17214  -0.705   5.661   8.510 -1.1178 -0.4183 -1.5738
  155SAPE     N17215   0.568   6.454  10.920 -0.4063 -0.5291 -0.2966
  155SAPE   HN117216   0.666   6.477  10.896 -0.4517 -0.6698 -0.6239
  155SAPE   HN217217   0.549   6.357  10.887  0.3515 -0.6416 -0.4100
  155SAPE   HN317218   0.509   6.516  10.861  0.4656 -1.0574 -1.7646
  155SAPE   C1217219   0.547   6.500  11.064  0.3786  0.6729  0.1005
  155SAPE  H12A17220   0.592   6.428  11.135  0.2376  3.3803  3.0118
  155SAPE  H12B17221   0.437   6.509  11.078  0.4086  0.4766  0.4468
  155SAPE   C1117222   0.593   6.642  11.085 -0.5898  0.7240  0.7550
  155SAPE  H11A17223   0.700   6.639  11.055 -1.2290 -0.2696 -1.5738
  155SAPE  H11B17224   0.576   6.666  11.191  1.5936  1.3593  0.9929
  155SAPE     P17225   0.537   6.877  11.007 -0.2664 -0.1453  0.3598
  155SAPE   O1317226   0.396   6.923  11.035  0.1583  0.7292  0.4818
  155SAPE   O1417227   0.636   6.911  11.110 -0.7985  0.2711  0.5696
  155SAPE   O1217228   0.533   6.727  10.990  0.2996  0.3711  0.2079
  155SAPE   O1117229   0.585   6.930  10.863  0.2140 -0.9569 -0.3679
  155SAPE    C117230   0.697   6.868  10.793 -0.4813 -0.0790  0.5983
  155SAPE    HA17231   0.784   6.935  10.784  1.0663 -1.8632  1.8346
  155SAPE    HB17232   0.735   6.777  10.845 -0.9554  0.0319  1.1416
  155SAPE    C217233   0.660   6.848  10.643  0.2747 -0.4686 -0.3457
  155SAPE    HS17234   0.746   6.801  10.589  0.1402  0.1794 -1.1299
  155SAPE   O2117235   0.625   6.977  10.598 -0.0374 -0.0423  0.0653
  155SAPE   C2117236   0.707   7.031  10.501  0.2467  1.0050  0.0549
  155SAPE   O2217237   0.812   6.987  10.465  0.1273 -0.0243  0.5678
  155SAPE   C2217238   0.659   7.164  10.449 -0.5704  0.0203 -0.3965
  155SAPE   H2R17239   0.570   7.138  10.387  0.1531 -0.7176 -1.1442
  155SAPE   H2S17240   0.637   7.211  10.547  0.9188 -0.6972  0.2966
  155SAPE    C317241   0.543   6.753  10.619 -0.1334 -0.9361  0.3598
  155SAPE    HX17242   0.452   6.789  10.671  1.4349  0.4164  2.2610
  155SAPE    HY17243   0.576   6.658  10.667 -3.2884 -1.6165  1.2496
  155SAPE   O3117244   0.535   6.733  10.478  0.0426  0.3812  0.1585
  155SAPE   C3117245   0.459   6.814  10.406  0.1399 -0.1969 -0.7821
  155SAPE   O3217246   0.386   6.904  10.447  0.1315  0.0792 -0.0341
  155SAPE   C3217247   0.467   6.770  10.264 -0.5537  0.7676 -0.6794
  155SAPE   H2X17248   0.421   6.671  10.243 -2.3904  1.3873  0.3112
  155SAPE   H2Y17249   0.576   6.777  10.244 -0.2536 -0.7828  0.2743
  155SAPE   C2317250   0.761   7.243  10.368  1.1500 -0.0334 -0.1636
  155SAPE   H3R17251   0.825   7.180  10.303 -1.5899 -1.9637 -1.0967
  155SAPE   H3S17252   0.837   7.287  10.437  0.5166 -0.2949  0.7202
  155SAPE   C2417253   0.713   7.356  10.275  0.0859  0.3993 -0.1424
  155SAPE   H4R17254   0.651   7.425  10.337 -1.2038  0.8079 -1.8567
  155SAPE   H4S17255   0.642   7.304  10.208  0.6515  0.1230 -0.5271
  155SAPE   C2517256   0.824   7.418  10.197 -0.1851  0.0010 -0.0387
  155SAPE   H5R17257   0.899   7.462  10.264  1.9398 -0.5810 -1.9559
  155SAPE   C2617258   0.858   7.415  10.068 -0.2428  0.0833  0.6414
  155SAPE   H6R17259   0.950   7.474  10.051  0.2763 -0.4636  1.5376
  155SAPE   C2717260   0.789   7.335   9.960  0.4964  0.1678  0.0549
  155SAPE   H7R17261   0.772   7.236  10.006 -0.7535  0.0250 -0.6930
  155SAPE   H7S17262   0.865   7.311   9.883  1.4014 -0.6522  1.1875
  155SAPE   C2817263   0.661   7.403   9.911 -1.4050  0.3218  0.3762
  155SAPE   H8R17264   0.575   7.397   9.979 -2.2439 -0.1267 -0.7116
  155SAPE   C2917265   0.646   7.467   9.795 -0.4207  0.0630 -0.7256
  155SAPE   H9R17266   0.548   7.511   9.773  0.5713  1.7755 -1.8162
  155SAPE  C21017267   0.749   7.499   9.689 -0.4518 -0.0085 -0.1659
  155SAPE  H10R17268   0.827   7.421   9.680  1.5126  1.7770  0.9037
  155SAPE  H10S17269   0.795   7.595   9.724 -2.8700  0.4639  1.9230
  155SAPE  C21117270   0.682   7.522   9.554  0.9166  0.4022  0.0256
  155SAPE  H11R17271   0.575   7.547   9.549  0.6294 -0.9206 -1.0864
  155SAPE  C21217272   0.751   7.524   9.444 -0.5054  0.5692 -0.0884
  155SAPE  H12R17273   0.697   7.555   9.353 -0.8903  1.0672  0.3072
  155SAPE  C21317274   0.898   7.505   9.429 -0.6601  0.7902 -0.4466
  155SAPE  H13R17275   0.956   7.477   9.519 -0.7538  1.1287 -0.2803
  155SAPE  H13S17276   0.949   7.603   9.414 -0.2290  0.6688  0.2360
  155SAPE  C21417277   0.923   7.400   9.323 -0.5424 -0.6726 -0.0043
  155SAPE  H14R17278   0.879   7.300   9.337 -1.2313 -0.2535  0.8698
  155SAPE  C21517279   1.008   7.406   9.218  0.1212  0.6322 -0.1428
  155SAPE  H15R17280   1.011   7.319   9.150  2.1083 -0.3063  1.0697
  155SAPE  C21617281   1.100   7.521   9.187  0.1256 -0.3543  0.6498
  155SAPE  H16R17282   1.084   7.612   9.249  0.5048  0.9685 -1.1723
  155SAPE  H16S17283   1.072   7.569   9.091 -1.1610 -1.2397  0.5644
  155SAPE  C21717284   1.245   7.473   9.166  0.1845 -0.0185 -0.9475
  155SAPE  H17R17285   1.281   7.413   9.252  0.9155  1.6168 -0.0995
  155SAPE  H17S17286   1.303   7.567   9.165 -0.7840  0.6011 -0.1600
  155SAPE  C21817287   1.257   7.389   9.034 -0.6058 -0.4379 -0.5278
  155SAPE  H18R17288   1.210   7.288   9.039  0.1016 -0.6937  1.5605
  155SAPE  H18S17289   1.364   7.359   9.035 -0.4268  0.1666 -0.9801
  155SAPE  C21917290   1.229   7.454   8.899 -0.8351  0.2461  0.8082
  155SAPE  H19R17291   1.311   7.525   8.878  0.0102 -1.4609 -1.9350
  155SAPE  H19S17292   1.132   7.509   8.901 -1.3727 -0.4381 -2.5279
  155SAPE  C22017293   1.211   7.346   8.786  0.6802 -0.2031 -0.6230
  155SAPE  H20R17294   1.218   7.390   8.684 -1.2296  2.8443  0.4903
  155SAPE  H20S17295   1.120   7.285   8.805  0.0195  0.4848 -1.4921
  155SAPE  H20T17296   1.296   7.276   8.788  0.1487 -0.8165  0.2736
  155SAPE   C3317297   0.400   6.864  10.170  0.0501 -0.4543  0.9806
  155SAPE   H3X17298   0.421   6.972  10.191  1.3138 -0.4123 -0.4759
  155SAPE   H3Y17299   0.292   6.838  10.177 -0.7362  1.8119 -1.5471
  155SAPE   C3417300   0.439   6.839  10.029 -0.0938  0.3474 -0.0064
  155SAPE   H4X17301   0.412   6.733  10.013 -0.8568  0.2755  1.6201
  155SAPE   H4Y17302   0.549   6.857  10.025 -0.0767  0.0060 -1.1020
  155SAPE   C3517303   0.362   6.934   9.937 -0.5580  0.7323  0.6557
  155SAPE   H5X17304   0.384   7.038   9.968  2.1882  0.7114 -1.1141
  155SAPE   H5Y17305   0.253   6.920   9.952 -0.5818  1.8764  1.6405
  155SAPE   C3617306   0.399   6.902   9.792  0.4422  0.1951  0.0828
  155SAPE   H6X17307   0.362   6.798   9.781  1.3896 -0.0168 -1.1713
  155SAPE   H6Y17308   0.508   6.921   9.783  0.5634 -0.6307 -0.2783
  155SAPE   C3717309   0.327   6.979   9.684 -0.0003 -0.6300  0.5183
  155SAPE   H7X17310   0.371   7.081   9.687 -0.2821 -0.4107 -1.5071
  155SAPE   H7Y17311   0.220   6.986   9.714 -0.2789  0.1169 -0.5998
  155SAPE   C3817312   0.332   6.924   9.545  0.8113  0.5857  0.5943
  155SAPE   H8X17313   0.333   6.815   9.563  0.0626  0.5310  0.3132
  155SAPE   H8Y17314   0.426   6.951   9.491  0.7346 -1.2032 -0.4661
  155SAPE   C3917315   0.210   6.971   9.458  0.1771  1.1452 -0.3593
  155SAPE   H9X17316   0.229   7.080   9.462 -1.4556  1.4130  0.7949
  155SAPE   H9Y17317   0.116   6.955   9.515  0.6306  0.5553  0.2374
  155SAPE  C31017318   0.216   6.903   9.317 -0.1435  0.2489 -0.5825
  155SAPE  H10X17319   0.207   6.793   9.325  3.6875 -0.0164  0.8996
  155SAPE  H10Y17320   0.306   6.942   9.265  0.3520 -0.3168 -0.1450
  155SAPE  C31117321   0.099   6.945   9.223  0.1552  0.3897 -0.1070
  155SAPE  H11X17322   0.121   7.049   9.193 -4.1634  0.6034 -3.0718
  155SAPE  H11Y17323   0.009   6.937   9.288  0.5086  0.6906  0.4244
  155SAPE  C31217324   0.093   6.870   9.091  0.7968  0.2020  0.2434
  155SAPE  H12X17325   0.104   6.763   9.117 -2.9175 -0.7126 -1.5153
  155SAPE  H12Y17326   0.178   6.901   9.027  2.5921 -2.3506  1.3224
  155SAPE  C31317327  -0.041   6.896   9.023  0.6581 -0.0484 -0.1780
  155SAPE  H13X17328  -0.054   7.004   9.002 -1.0800 -0.6478 -2.3932
  155SAPE  H13Y17329  -0.125   6.872   9.091  1.0928  1.3886  0.8842
  155SAPE  C31417330  -0.068   6.816   8.892 -0.7333  0.1927 -1.0542
  155SAPE  H14X17331  -0.050   6.709   8.919 -0.2574  0.9540  1.8034
  155SAPE  H14Y17332   0.003   6.842   8.811 -0.9188 -0.0500 -1.2929
  155SAPE  C31517333  -0.219   6.816   8.858  0.3364 -0.6237 -0.2585
  155SAPE  H15X17334  -0.253   6.921   8.845  0.1946 -0.3143  2.3606
  155SAPE  H15Y17335  -0.270   6.767   8.944 -0.9141  1.0023 -0.0734
  155SAPE  C31617336  -0.256   6.742   8.725  0.3337 -0.1871  0.2092
  155SAPE  H16X17337  -0.228   6.635   8.737  2.2080  0.5393  2.8479
  155SAPE  H16Y17338  -0.190   6.781   8.644  0.8452 -2.6022 -0.5853
  155SAPE  C31717339  -0.402   6.757   8.682 -0.1108  0.2992 -0.8470
  155SAPE  H17X17340  -0.418   6.866   8.687  1.3844  0.4588  0.7594
  155SAPE  H17Y17341  -0.468   6.715   8.760 -0.4967  1.2445 -0.6599
  155SAPE  C31817342  -0.447   6.686   8.554 -0.5327 -0.1987  0.7606
  155SAPE  H18X17343  -0.392   6.728   8.467 -0.5951  0.2968  0.9584
  155SAPE  H18Y17344  -0.556   6.691   8.533 -0.3849  0.7335  0.1601
  155SAPE  H18Z17345  -0.415   6.580   8.562 -0.7179 -0.2590  0.6819
  156SAPE     N17346   4.576   3.967  10.690  0.0416 -0.5470 -0.5557
  156SAPE   HN117347   4.592   4.064  10.726 -1.1895 -0.3597 -0.4819
  156SAPE   HN217348   4.484   3.937  10.728  0.2997  0.4156  0.8658
  156SAPE   HN317349   4.644   3.899  10.730  1.9669  3.9591  4.5392
  156SAPE   C1217350   4.570   3.973  10.539 -0.6507  0.0825  0.4299
  156SAPE  H12A17351   4.494   4.045  10.503  1.7349  2.7135  0.4568
  156SAPE  H12B17352   4.531   3.873  10.509 -2.1247  0.3504  1.4004
  156SAPE   C1117353   4.703   4.021  10.481 -0.0065  0.0773 -0.0879
  156SAPE  H11A17354   4.695   4.048  10.374 -0.7009  1.9253  0.4196
  156SAPE  H11B17355   4.766   3.929  10.484 -1.5206 -0.9456  0.5403
  156SAPE     P17356   4.720   4.274  10.527  0.2385 -0.0768  0.2972
  156SAPE   O1317357   4.575   4.282  10.538  0.2111 -0.3689 -0.3982
  156SAPE   O1417358   4.804   4.369  10.599 -0.1324  0.0468  0.5788
  156SAPE   O1217359   4.761   4.123  10.565 -0.2128  0.0078  0.1557
  156SAPE   O1117360   4.765   4.291  10.377 -0.3698 -0.3111 -0.1126
  156SAPE    C117361   4.900   4.256  10.346 -0.1802  0.2763 -0.0697
  156SAPE    HA17362   4.973   4.302  10.417 -2.0643  0.3254  1.8830
  156SAPE    HB17363   4.916   4.147  10.351  0.5446  0.3604 -0.4359
  156SAPE    C217364   4.939   4.319  10.208 -0.2076 -0.0493 -0.0631
  156SAPE    HS17365   4.946   4.429  10.217  0.1103  0.0342 -1.2376
  156SAPE   O2117366   4.841   4.283  10.110 -0.2265  0.8207  0.0022
  156SAPE   C2117367   4.741   4.370  10.093  1.5127 -0.1716 -0.5483
  156SAPE   O2217368   4.723   4.474  10.154  0.1032 -0.1531 -0.4905
  156SAPE   C2217369   4.645   4.309   9.994  0.4528 -0.2934  0.5316
  156SAPE   H2R17370   4.683   4.208   9.967  1.1721  0.4228 -1.1826
  156SAPE   H2S17371   4.554   4.297  10.056  1.6017 -0.7213  2.1811
  156SAPE    C317372   5.064   4.267  10.161 -0.1954  0.3992  0.0783
  156SAPE    HX17373   5.053   4.157  10.170 -0.2392  0.2521 -1.5653
  156SAPE    HY17374   5.142   4.305  10.231 -0.4494  2.9724 -0.9841
  156SAPE   O3117375   5.094   4.313  10.025  0.1133 -0.0989  0.5731
  156SAPE   C3117376   5.223   4.287   9.999 -0.4916  0.2997 -0.6127
  156SAPE   O3217377   5.295   4.206  10.057  0.6560  0.0867  0.3311
  156SAPE   C3217378   5.269   4.372   9.875 -0.1338  0.3852 -0.5568
  156SAPE   H2X17379   5.377   4.349   9.863 -0.7487 -1.4151 -3.2152
  156SAPE   H2Y17380   5.255   4.481   9.891  2.8729  0.6916  0.3082
  156SAPE   C2317381   4.625   4.392   9.868 -0.2172  0.3224 -0.5484
  156SAPE   H3R17382   4.603   4.498   9.893  2.3821  0.6530  0.5604
  156SAPE   H3S17383   4.539   4.353   9.810  0.0502  1.6779 -1.8715
  156SAPE   C2417384   4.757   4.395   9.788 -0.3768  0.3239 -0.1435
  156SAPE   H4R17385   4.841   4.403   9.859  0.5013 -1.0707 -1.0038
  156SAPE   H4S17386   4.776   4.483   9.722 -1.4154  0.4428 -0.2968
  156SAPE   C2517387   4.780   4.266   9.721 -0.1489 -0.4810  0.5059
  156SAPE   H5R17388   4.814   4.180   9.781  0.8313 -1.1883 -1.0248
  156SAPE   C2617389   4.774   4.241   9.587 -0.1098  0.3630  0.3178
  156SAPE   H6R17390   4.789   4.141   9.544  0.8800  0.8787 -0.5688
  156SAPE   C2717391   4.728   4.344   9.486 -0.2910  0.8736  1.0397
  156SAPE   H7R17392   4.655   4.411   9.538 -0.9775  1.2615 -0.4009
  156SAPE   H7S17393   4.667   4.290   9.410  0.1836 -1.0479  2.0059
  156SAPE   C2817394   4.836   4.429   9.431  0.3070 -0.1637  0.1023
  156SAPE   H8R17395   4.902   4.469   9.510  1.2306 -0.6210 -0.4297
  156SAPE   C2917396   4.868   4.448   9.303  0.6700 -0.0062 -0.5696
  156SAPE   H9R17397   4.950   4.519   9.285  1.8151 -0.7464  1.5624
  156SAPE  C21017398   4.808   4.390   9.183  0.1808  0.3812  0.4861
  156SAPE  H10R17399   4.843   4.453   9.099 -2.0744 -3.4745 -3.5186
  156SAPE  H10S17400   4.699   4.407   9.188  0.5608  3.1126  0.4207
  156SAPE  C21117401   4.851   4.245   9.176 -0.1877  0.0476 -0.5137
  156SAPE  H11R17402   4.879   4.205   9.275  3.1962  1.5903 -0.7845
  156SAPE  C21217403   4.838   4.160   9.067  0.4631 -0.2272 -0.0584
  156SAPE  H12R17404   4.874   4.057   9.078  0.8766 -0.0658  0.1161
  156SAPE  C21317405   4.797   4.204   8.931 -0.3241 -0.0851 -0.3281
  156SAPE  H13R17406   4.885   4.211   8.864 -0.8038 -1.9377 -1.1800
  156SAPE  H13S17407   4.781   4.313   8.937 -2.2088 -0.3271 -0.4326
  156SAPE  C21417408   4.674   4.134   8.878 -0.2960 -0.5044 -0.3721
  156SAPE  H14R17409   4.587   4.129   8.945  0.9499 -0.5334  1.2541
  156SAPE  C21517410   4.676   4.070   8.758 -0.1448 -0.5530  0.7641
  156SAPE  H15R17411   4.581   4.038   8.713  0.1962 -1.8370  0.9231
  156SAPE  C21617412   4.785   4.050   8.653 -0.5141  0.3277  0.0508
  156SAPE  H16R17413   4.880   4.021   8.704  0.1863  0.1663 -1.3406
  156SAPE  H16S17414   4.781   4.144   8.595 -0.3602  1.9269  2.5316
  156SAPE  C21717415   4.748   3.950   8.548 -0.3778 -0.2365  0.2592
  156SAPE  H17R17416   4.666   3.979   8.479 -1.5622 -1.1369  1.2557
  156SAPE  H17S17417   4.722   3.850   8.590 -0.9532 -0.4582 -0.5941
  156SAPE  C21817418   4.865   3.930   8.448  0.0361 -0.1196  0.2078
  156SAPE  H18R17419   4.955   3.904   8.507 -1.1954  0.4220  2.3935
  156SAPE  H18S17420   4.898   4.017   8.387 -2.4452 -0.0530 -1.1225
  156SAPE  C21917421   4.836   3.822   8.341 -0.7456  0.5034 -0.2374
  156SAPE  H19R17422   4.755   3.852   8.272  0.1042  2.5870 -0.3748
  156SAPE  H19S17423   4.820   3.728   8.399 -0.7798  0.3391 -0.5140
  156SAPE  C22017424   4.954   3.807   8.240 -0.6677  0.0899  0.4008
  156SAPE  H20R17425   4.948   3.721   8.171 -0.4392 -0.8710  1.5683
  156SAPE  H20S17426   5.036   3.779   8.309 -0.9417 -1.4912  0.0866
  156SAPE  H20T17427   4.964   3.900   8.180  0.7136  1.3895  2.5669
  156SAPE   C3317428   5.201   4.320   9.747 -0.5477  0.3510  0.8419
  156SAPE   H3X17429   5.094   4.301   9.771 -0.5280 -0.8134  0.0925
  156SAPE   H3Y17430   5.232   4.217   9.720  0.0434  1.3541 -2.4680
  156SAPE   C3417431   5.202   4.423   9.628 -0.1287  0.1550 -0.1739
  156SAPE   H4X17432   5.309   4.452   9.629 -0.4227  1.2808 -1.0323
  156SAPE   H4Y17433   5.129   4.503   9.650 -0.1050  0.1869 -0.2124
  156SAPE   C3517434   5.169   4.352   9.490  0.1675  0.1678 -0.6484
  156SAPE   H5X17435   5.140   4.430   9.416 -0.0581  0.8435  0.1458
  156SAPE   H5Y17436   5.087   4.279   9.506  0.9432 -0.2682  1.4763
  156SAPE   C3617437   5.282   4.287   9.423  0.2469  0.2076  0.7735
  156SAPE   H6X17438   5.320   4.211   9.494 -0.0778  1.1187  1.9399
  156SAPE   H6Y17439   5.362   4.364   9.418  0.6094 -0.0981  1.8467
  156SAPE   C3717440   5.254   4.206   9.299  0.6288  0.1038  0.3091
  156SAPE   H7X17441   5.174   4.262   9.245  2.5426  2.4804 -0.1709
  156SAPE   H7Y17442   5.204   4.111   9.325  2.4867 -0.7903  0.6371
  156SAPE   C3817443   5.371   4.192   9.213  0.4553 -0.0409 -1.2279
  156SAPE   H8X17444   5.445   4.137   9.276 -1.2166 -1.0954 -0.1649
  156SAPE   H8Y17445   5.411   4.287   9.172  0.6841 -1.8665 -5.4444
  156SAPE   C3917446   5.346   4.099   9.091 -0.2388 -0.3291  0.1548
  156SAPE   H9X17447   5.242   4.116   9.056 -0.4594 -2.3992 -0.2165
  156SAPE   H9Y17448   5.347   3.992   9.119 -2.7368 -0.7865 -1.3675
  156SAPE  C31017449   5.444   4.123   8.974  0.5239 -0.6115 -0.3424
  156SAPE  H10X17450   5.530   4.057   8.998  0.4894 -0.1096  1.2010
  156SAPE  H10Y17451   5.479   4.227   8.960  0.6888 -0.7394 -0.8774
  156SAPE  C31117452   5.391   4.082   8.835  0.4912  0.1157 -0.0264
  156SAPE  H11X17453   5.347   3.980   8.830  0.0286  0.3102  0.0165
  156SAPE  H11Y17454   5.474   4.093   8.762 -0.2381  1.2258 -0.7094
  156SAPE  C31217455   5.294   4.186   8.776  0.2377 -0.0193  0.5330
  156SAPE  H12X17456   5.334   4.289   8.788 -2.7127  1.0266  1.9245
  156SAPE  H12Y17457   5.194   4.182   8.825 -0.1438  1.5239 -0.0901
  156SAPE  C31317458   5.281   4.172   8.624  0.3324 -0.2371  0.5272
  156SAPE  H13X17459   5.384   4.184   8.584  0.6900  2.1844  2.0617
  156SAPE  H13Y17460   5.221   4.262   8.597 -0.4134 -0.8958 -0.0403
  156SAPE  C31417461   5.215   4.043   8.565 -0.5084 -0.7483 -0.0280
  156SAPE  H14X17462   5.109   4.042   8.600 -0.1702 -1.1640  0.9988
  156SAPE  H14Y17463   5.263   3.964   8.627  0.0445 -0.1737  0.2760
  156SAPE  C31517464   5.216   4.002   8.418 -0.6459  0.5680  1.0468
  156SAPE  H15X17465   5.169   4.070   8.343  0.9332  0.3491 -0.1703
  156SAPE  H15Y17466   5.159   3.908   8.398 -1.1181  0.9997  0.3312
  156SAPE  C31617467   5.354   3.967   8.354 -0.3673 -0.0594 -0.6965
  156SAPE  H16X17468   5.434   4.038   8.320  0.0763 -0.4442 -0.4520
  156SAPE  H16Y17469   5.328   3.892   8.276 -1.8480 -1.0195  0.7014
  156SAPE  C31717470   5.440   3.886   8.455  0.0609  0.1451  0.1224
  156SAPE  H17X17471   5.370   3.810   8.498 -0.9585  1.3369  0.6100
  156SAPE  H17Y17472   5.471   3.960   8.532  0.2233 -0.9274  1.1049
  156SAPE  C31817473   5.560   3.809   8.393 -0.2316  0.9444 -0.2134
  156SAPE  H18X17474   5.638   3.872   8.346  1.1649  1.5225  2.7549
  156SAPE  H18Y17475   5.516   3.732   8.326 -1.8930 -0.3720  2.2997
  156SAPE  H18Z17476   5.628   3.761   8.467  0.7954  0.0517 -1.7132
  157SAPE     N17477   3.652   4.379  10.808  0.4076 -0.5532 -0.1943
  157SAPE   HN117478   3.567   4.322  10.824 -0.3535  0.2974 -1.2268
  157SAPE   HN217479   3.651   4.456  10.878 -1.4770 -1.0016  0.2855
  157SAPE   HN317480   3.658   4.435  10.721 -2.4818  1.4007  0.8152
  157SAPE   C1217481   3.770   4.294  10.827 -0.6056  0.6779 -0.3597
  157SAPE  H12A17482   3.774   4.206  10.759  0.1313  0.0242  0.5193
  157SAPE  H12B17483   3.766   4.255  10.931  1.1904  0.0592 -0.5105
  157SAPE   C1117484   3.906   4.376  10.801  0.5797  0.5334  0.9006
  157SAPE  H11A17485   3.995   4.310  10.795  1.3168  1.6026 -0.2587
  157SAPE  H11B17486   3.919   4.437  10.893  3.0403 -0.9211  1.5428
  157SAPE     P17487   3.984   4.435  10.555  0.0947 -0.2253 -0.3709
  157SAPE   O1317488   4.071   4.553  10.554  0.1592 -0.0999  0.2436
  157SAPE   O1417489   4.055   4.309  10.548 -0.4820  0.7866  0.0617
  157SAPE   O1217490   3.896   4.449  10.675 -0.2334 -0.2832 -0.4627
  157SAPE   O1117491   3.890   4.447  10.424  0.1584  0.5596 -0.8326
  157SAPE    C117492   3.844   4.332  10.352  0.8790 -0.0778  0.2176
  157SAPE    HA17493   3.929   4.292  10.293  1.2011 -0.5409  0.9942
  157SAPE    HB17494   3.813   4.258  10.428  0.1264  0.9232  0.8983
  157SAPE    C217495   3.720   4.352  10.265 -0.3364 -0.4332 -0.1911
  157SAPE    HS17496   3.688   4.253  10.227 -3.6217  0.8870 -0.9682
  157SAPE   O2117497   3.749   4.442  10.157 -0.4406  0.1960  0.8896
  157SAPE   C2117498   3.831   4.393  10.064  0.6670  0.6481  0.2038
  157SAPE   O2217499   3.875   4.278  10.055 -0.7987 -0.4797 -0.5086
  157SAPE   C2217500   3.863   4.506   9.967  1.2639  0.1401  0.1791
  157SAPE   H2R17501   3.776   4.516   9.899  0.1212  2.2561  1.8700
  157SAPE   H2S17502   3.877   4.596  10.031  1.2433 -1.7882  3.0059
  157SAPE    C317503   3.602   4.395  10.349  0.6269 -0.6063  0.3597
  157SAPE    HX17504   3.634   4.473  10.422 -0.0765 -0.0144  0.0446
  157SAPE    HY17505   3.569   4.302  10.401 -2.4055 -0.2967 -0.9352
  157SAPE   O3117506   3.493   4.435  10.261  0.2210  0.4916 -0.2147
  157SAPE   C3117507   3.489   4.571  10.243  0.5015  0.4592  0.3165
  157SAPE   O3217508   3.570   4.655  10.279  0.3670  0.1930  0.0972
  157SAPE   C3217509   3.364   4.597  10.150 -0.1018  0.5458 -0.2400
  157SAPE   H2X17510   3.291   4.646  10.217  1.2573 -0.4719  2.0506
  157SAPE   H2Y17511   3.327   4.497  10.119  0.0002  0.2710  0.5097
  157SAPE   C2317512   3.990   4.471   9.885 -0.3099 -1.0568  0.7444
  157SAPE   H3R17513   3.983   4.377   9.826  0.0682 -0.0772 -0.9155
  157SAPE   H3S17514   4.066   4.443   9.962  0.7937  1.7666  0.7527
  157SAPE   C2417515   4.049   4.584   9.798 -0.5049 -0.3435 -0.3779
  157SAPE   H4R17516   4.154   4.555   9.776  0.4652  1.7271  1.3869
  157SAPE   H4S17517   4.051   4.676   9.860 -1.8709 -1.9229  2.0908
  157SAPE   C2517518   3.962   4.590   9.675  0.0951  0.6889  0.2405
  157SAPE   H5R17519   3.855   4.604   9.691  0.0439 -1.5067  1.9775
  157SAPE   C2617520   4.008   4.565   9.550 -0.4707 -0.1377 -0.1206
  157SAPE   H6R17521   3.950   4.569   9.457  1.1180 -0.2440 -1.1399
  157SAPE   C2717522   4.160   4.540   9.526  0.0742 -0.7582  0.8306
  157SAPE   H7R17523   4.222   4.616   9.577  0.2555  0.1723 -0.7260
  157SAPE   H7S17524   4.183   4.562   9.419 -2.1974  0.6651  0.6033
  157SAPE   C2817525   4.217   4.401   9.560  0.5993 -0.1252  0.6453
  157SAPE   H8R17526   4.233   4.392   9.669 -1.5259 -0.9240  0.9295
  157SAPE   C2917527   4.240   4.297   9.475 -0.4248  0.4070  0.1847
  157SAPE   H9R17528   4.291   4.209   9.517  0.5175  0.3791 -1.0011
  157SAPE  C21017529   4.222   4.292   9.321 -0.4971 -0.3204  0.5448
  157SAPE  H10R17530   4.129   4.347   9.294 -0.6969 -0.2987  1.2689
  157SAPE  H10S17531   4.200   4.187   9.292 -0.7132  0.0854 -0.7763
  157SAPE  C21117532   4.340   4.352   9.252 -0.0124  0.6707  0.2966
  157SAPE  H11R17533   4.409   4.415   9.309  3.7003 -1.5930 -1.5080
  157SAPE  C21217534   4.357   4.348   9.118 -0.2609  0.2252 -0.0100
  157SAPE  H12R17535   4.450   4.389   9.078  0.3080 -1.0613 -0.0277
  157SAPE  C21317536   4.272   4.277   9.014  1.2377  0.4820  0.3306
  157SAPE  H13R17537   4.164   4.283   9.040  0.7601 -0.3357 -1.4140
  157SAPE  H13S17538   4.291   4.168   9.025 -0.4873 -0.1117 -2.1693
  157SAPE  C21417539   4.311   4.321   8.874 -0.6434  0.0406 -1.0237
  157SAPE  H14R17540   4.420   4.334   8.861 -0.6584 -0.5019 -1.6689
  157SAPE  C21517541   4.222   4.341   8.774  0.2421  0.4588 -0.4409
  157SAPE  H15R17542   4.262   4.375   8.678  1.4148  0.7372  0.1388
  157SAPE  C21617543   4.068   4.330   8.772 -0.5869 -0.6341 -0.5022
  157SAPE  H16R17544   4.035   4.419   8.713  1.3036 -1.0450 -2.2870
  157SAPE  H16S17545   4.022   4.332   8.872  1.3066  0.0397  0.3798
  157SAPE  C21717546   4.024   4.195   8.701  0.4262 -0.9505  0.0856
  157SAPE  H17R17547   3.926   4.178   8.749  0.9246 -2.8736  0.4550
  157SAPE  H17S17548   4.093   4.110   8.719 -0.3091 -1.7137 -0.6211
  157SAPE  C21817549   4.001   4.228   8.554  0.2511 -0.2667  0.9833
  157SAPE  H18R17550   4.097   4.270   8.515 -0.4019 -0.2833 -0.6808
  157SAPE  H18S17551   3.916   4.299   8.547  0.1030 -0.3744  1.7029
  157SAPE  C21917552   3.956   4.106   8.468  0.3183  0.2095 -0.1367
  157SAPE  H19R17553   3.858   4.070   8.505  0.5773  0.3285  0.6994
  157SAPE  H19S17554   4.038   4.034   8.493  1.4166  1.7252  0.7390
  157SAPE  C22017555   3.947   4.142   8.318 -0.9184  0.3010  0.3361
  157SAPE  H20R17556   3.844   4.174   8.294 -0.4850  1.7147  0.3442
  157SAPE  H20S17557   3.955   4.050   8.256  0.2453 -0.4258  1.5516
  157SAPE  H20T17558   4.023   4.217   8.289  0.1880 -0.5496  0.9864
  157SAPE   C3317559   3.406   4.672  10.021  0.3692  0.4537  0.2596
  157SAPE   H3X17560   3.506   4.718  10.034  0.1737  0.2788  2.5241
  157SAPE   H3Y17561   3.354   4.768  10.005 -1.1951 -0.4178  0.0907
  157SAPE   C3417562   3.412   4.588   9.894 -0.4471  0.3873  0.9713
  157SAPE   H4X17563   3.305   4.580   9.865  0.1914  1.0113 -1.7247
  157SAPE   H4Y17564   3.451   4.490   9.927  0.5167  0.0629 -1.0673
  157SAPE   C3517565   3.496   4.658   9.790  0.1679  0.2247 -0.8988
  157SAPE   H5X17566   3.603   4.664   9.820 -0.1431  0.6168  0.1555
  157SAPE   H5Y17567   3.460   4.763   9.778 -1.3376  0.2093  2.6226
  157SAPE   C3617568   3.486   4.572   9.661  0.3683 -0.0678 -0.1410
  157SAPE   H6X17569   3.383   4.532   9.649 -0.2881  2.1936 -2.3765
  157SAPE   H6Y17570   3.566   4.496   9.668  0.5179  0.1237  0.2659
  157SAPE   C3717571   3.504   4.651   9.530  0.3987 -0.1389  0.7333
  157SAPE   H7X17572   3.599   4.708   9.524 -0.1299  0.7191  0.3702
  157SAPE   H7Y17573   3.428   4.731   9.513  0.2292 -1.0005 -3.0479
  157SAPE   C3817574   3.491   4.563   9.406 -0.8634  0.2107 -0.1123
  157SAPE   H8X17575   3.392   4.525   9.373 -1.1791  2.1413 -1.4830
  157SAPE   H8Y17576   3.548   4.469   9.418 -0.4268  0.6402  1.2360
  157SAPE   C3917577   3.548   4.636   9.284  0.6772 -0.6856  0.4132
  157SAPE   H9X17578   3.649   4.679   9.302  0.1399 -0.3949  2.8574
  157SAPE   H9Y17579   3.482   4.724   9.269  0.4933 -1.3161 -2.8772
  157SAPE  C31017580   3.564   4.554   9.155  0.1395  0.5377 -0.3140
  157SAPE  H10X17581   3.467   4.525   9.109  0.7374 -2.4198  0.2313
  157SAPE  H10Y17582   3.626   4.468   9.186  0.9110  1.7398  1.5323
  157SAPE  C31117583   3.621   4.638   9.044 -0.3530 -0.5689 -0.2650
  157SAPE  H11X17584   3.712   4.687   9.086 -0.7354  0.9415 -1.1792
  157SAPE  H11Y17585   3.551   4.719   9.016  1.0448  0.8949  0.3858
  157SAPE  C31217586   3.697   4.560   8.929  0.3432  0.1188  0.1277
  157SAPE  H12X17587   3.791   4.509   8.960  0.7733  0.7490 -0.1141
  157SAPE  H12Y17588   3.728   4.637   8.855 -1.4256  2.0840  1.3650
  157SAPE  C31317589   3.610   4.458   8.860 -0.5013  0.5162 -0.2296
  157SAPE  H13X17590   3.527   4.521   8.823 -0.5297  2.2025  2.5010
  157SAPE  H13Y17591   3.558   4.387   8.929  2.4113 -3.4880 -1.9566
  157SAPE  C31417592   3.671   4.390   8.738  0.0752  0.2262  0.1676
  157SAPE  H14X17593   3.742   4.305   8.752  0.8776  0.7838 -0.4388
  157SAPE  H14Y17594   3.719   4.468   8.675  1.3674  0.6211  1.5991
  157SAPE  C31517595   3.559   4.323   8.652  0.2419  0.2741 -0.2827
  157SAPE  H15X17596   3.501   4.242   8.702 -0.9179  1.5399  0.4720
  157SAPE  H15Y17597   3.607   4.278   8.563 -0.8992 -2.2253  0.3332
  157SAPE  C31617598   3.456   4.416   8.596  0.5567 -0.2135 -0.4262
  157SAPE  H16X17599   3.509   4.495   8.538  0.1553 -0.8502 -1.6695
  157SAPE  H16Y17600   3.390   4.460   8.674  1.6708 -0.9539  0.9696
  157SAPE  C31717601   3.382   4.340   8.492 -0.2290  1.4604 -0.5942
  157SAPE  H17X17602   3.337   4.243   8.524 -1.7716  3.2599  2.9509
  157SAPE  H17Y17603   3.462   4.318   8.418 -0.1351 -3.1869  0.7088
  157SAPE  C31817604   3.262   4.432   8.443 -0.2989 -0.4891  0.0344
  157SAPE  H18X17605   3.292   4.533   8.409  0.9577 -1.4145 -1.7383
  157SAPE  H18Y17606   3.188   4.443   8.525 -0.8431  1.3547 -0.6916
  157SAPE  H18Z17607   3.213   4.388   8.353 -2.6917 -0.0513  1.0919
  158SAPE     N17608   5.188   4.846  10.513  0.8579 -0.6299  0.4863
  158SAPE   HN117609   5.163   4.804  10.421 -1.0907  1.8001 -0.1678
  158SAPE   HN217610   5.104   4.907  10.515  0.9231 -0.4588 -1.3512
  158SAPE   HN317611   5.273   4.904  10.501  0.2676 -0.0053 -0.7657
  158SAPE   C1217612   5.209   4.758  10.631  0.3751  0.0285  0.3745
  158SAPE  H12A17613   5.125   4.686  10.636 -0.1938  0.7975  2.8870
  158SAPE  H12B17614   5.203   4.822  10.722  0.1582  0.1611  0.2686
  158SAPE   C1117615   5.342   4.686  10.614 -1.1658 -0.2149  0.5804
  158SAPE  H11A17616   5.369   4.627  10.705  2.2963 -0.9487 -0.8183
  158SAPE  H11B17617   5.422   4.763  10.615 -2.1507  0.8052  1.7778
  158SAPE     P17618   5.292   4.471  10.471 -0.1042 -0.2701 -0.1650
  158SAPE   O1317619   5.387   4.374  10.535 -0.3182 -0.0213 -0.3391
  158SAPE   O1417620   5.152   4.476  10.526 -0.3810 -0.4479  0.8104
  158SAPE   O1217621   5.352   4.612  10.489  0.6147  0.0486  0.2360
  158SAPE   O1117622   5.285   4.467  10.319  0.0263 -0.5369 -0.1202
  158SAPE    C117623   5.401   4.503  10.242  0.4071  0.1597 -0.5948
  158SAPE    HA17624   5.498   4.494  10.295 -0.4666  0.8889  1.1675
  158SAPE    HB17625   5.411   4.427  10.162 -0.9699 -0.4114 -0.2351
  158SAPE    C217626   5.388   4.633  10.165 -0.4313 -0.0810 -0.6219
  158SAPE    HS17627   5.389   4.716  10.238  1.8697  2.9930 -3.9638
  158SAPE   O2117628   5.267   4.634  10.084 -0.2229  0.5952 -0.1057
  158SAPE   C2117629   5.160   4.667  10.146  0.5831  0.4015  0.1111
  158SAPE   O2217630   5.145   4.699  10.265  0.1130  0.0727  0.1488
  158SAPE   C2217631   5.049   4.659  10.040  0.5521  0.1914 -0.4406
  158SAPE   H2R17632   5.081   4.696   9.940  2.6727 -0.4485 -0.0277
  158SAPE   H2S17633   5.015   4.555  10.021 -1.2100  1.1112 -2.5455
  158SAPE    C317634   5.515   4.661  10.075  0.0189 -0.3727 -0.2587
  158SAPE    HX17635   5.602   4.670  10.144 -1.2756  1.8919  1.1602
  158SAPE    HY17636   5.504   4.763  10.031 -0.3495  0.1295  0.9828
  158SAPE   O3117637   5.537   4.574   9.957 -0.3755 -0.1510  0.0528
  158SAPE   C3117638   5.630   4.629   9.881  0.5363 -1.0828  0.2753
  158SAPE   O3217639   5.679   4.735   9.896 -0.2838 -0.3186 -0.1389
  158SAPE   C3217640   5.670   4.538   9.761  0.0800  0.0044  0.0569
  158SAPE   H2X17641   5.683   4.436   9.803 -0.8437  0.6437  1.9673
  158SAPE   H2Y17642   5.764   4.582   9.720  0.7678 -0.6055  0.9561
  158SAPE   C2317643   4.926   4.740  10.081 -0.2684 -0.4661  0.3825
  158SAPE   H3R17644   4.913   4.729  10.191  3.0439 -0.4191  0.8171
  158SAPE   H3S17645   4.838   4.688  10.037 -0.1596 -2.3295  2.2742
  158SAPE   C2417646   4.919   4.886  10.032  0.0905 -0.6258 -0.2745
  158SAPE   H4R17647   4.813   4.917  10.043  0.3088  0.3630 -0.9247
  158SAPE   H4S17648   4.941   4.886   9.923 -1.6160  1.9554 -0.6796
  158SAPE   C2517649   5.003   4.983  10.115 -0.9296 -0.2374  0.8042
  158SAPE   H5R17650   4.995   4.981  10.225 -2.7149 -1.5075  0.6664
  158SAPE   C2617651   5.102   5.055  10.062 -0.7982 -0.3189 -0.3633
  158SAPE   H6R17652   5.146   5.132  10.127 -0.4713 -1.4378  0.7675
  158SAPE   C2717653   5.160   5.054   9.925 -0.7795 -0.1518  0.4588
  158SAPE   H7R17654   5.208   5.151   9.900 -0.5418 -0.0404  1.3537
  158SAPE   H7S17655   5.082   5.039   9.847 -0.2061  0.6947 -0.2803
  158SAPE   C2817656   5.258   4.948   9.906 -0.5210 -0.1466 -0.5946
  158SAPE   H8R17657   5.303   4.911   9.999 -0.1153 -1.7128 -1.3921
  158SAPE   C2917658   5.301   4.890   9.793 -0.0834  0.1190  0.6031
  158SAPE   H9R17659   5.393   4.831   9.794 -0.9651 -1.3814 -2.2126
  158SAPE  C21017660   5.254   4.925   9.658  0.3618  0.3493  0.7370
  158SAPE  H10R17661   5.326   4.877   9.588 -2.5558  1.0015 -2.9022
  158SAPE  H10S17662   5.265   5.034   9.638 -2.2400  0.3365 -1.1080
  158SAPE  C21117663   5.111   4.872   9.623  0.2182 -0.0759  0.2440
  158SAPE  H11R17664   5.050   4.852   9.712  0.2549 -0.0849  0.2671
  158SAPE  C21217665   5.059   4.841   9.504  0.4351  0.9260  0.8036
  158SAPE  H12R17666   4.950   4.821   9.501  0.3049  1.6605  0.4282
  158SAPE  C21317667   5.124   4.840   9.368 -0.2371  0.1799 -0.6206
  158SAPE  H13R17668   5.193   4.926   9.358 -0.3115  0.2421 -0.6008
  158SAPE  H13S17669   5.046   4.854   9.290 -0.8625  1.3020  0.1780
  158SAPE  C21417670   5.197   4.712   9.340  0.2882 -0.6913 -0.0489
  158SAPE  H14R17671   5.225   4.654   9.429 -0.0099  2.0624  1.8990
  158SAPE  C21517672   5.228   4.662   9.219 -0.2060 -0.1627 -0.2214
  158SAPE  H15R17673   5.281   4.566   9.209  0.5681  0.3270 -0.8759
  158SAPE  C21617674   5.205   4.730   9.087  0.2871  0.0389  0.0333
  158SAPE  H16R17675   5.269   4.692   9.005  0.8450  1.3035 -0.1328
  158SAPE  H16S17676   5.234   4.837   9.090 -2.0114  0.6634  1.0042
  158SAPE  C21717677   5.059   4.726   9.031 -0.7546  0.0332 -0.0397
  158SAPE  H17R17678   4.993   4.789   9.094 -1.7206  0.6048 -1.5898
  158SAPE  H17S17679   5.028   4.619   9.032  1.5121 -0.6563 -0.1362
  158SAPE  C21817680   5.045   4.782   8.880  0.3256  0.0291 -0.2053
  158SAPE  H18R17681   5.086   4.886   8.886  1.9448 -0.6246  0.4623
  158SAPE  H18S17682   4.937   4.781   8.855  0.5843  0.3368 -1.3771
  158SAPE  C21917683   5.123   4.708   8.767  0.3531  0.4175 -0.2524
  158SAPE  H19R17684   5.092   4.601   8.774  2.5435 -0.2068  0.2069
  158SAPE  H19S17685   5.232   4.719   8.782  0.4434 -0.0317 -0.5986
  158SAPE  C22017686   5.080   4.755   8.622 -0.2204  0.0390 -0.1907
  158SAPE  H20R17687   5.106   4.863   8.614 -1.0051  0.0591 -3.3559
  158SAPE  H20S17688   4.973   4.742   8.594 -0.1047 -0.6016 -0.3418
  158SAPE  H20T17689   5.137   4.695   8.548 -0.6188  1.0129 -1.3196
  158SAPE   C3317690   5.568   4.530   9.651 -0.7577 -0.5480 -0.2608
  158SAPE   H3X17691   5.484   4.482   9.704 -2.0815  1.1499 -0.7694
  158SAPE   H3Y17692   5.604   4.463   9.570  2.1079  0.5225  0.0625
  158SAPE   C3417693   5.538   4.657   9.570 -0.1079 -0.0675 -0.2592
  158SAPE   H4X17694   5.585   4.749   9.611 -1.4548  0.2609  0.5916
  158SAPE   H4Y17695   5.428   4.670   9.563  0.3862  2.8709 -3.8263
  158SAPE   C3517696   5.570   4.634   9.425  0.2991 -0.9263  0.5948
  158SAPE   H5X17697   5.489   4.576   9.375  0.2708 -0.1771 -0.2542
  158SAPE   H5Y17698   5.663   4.573   9.421 -0.8037 -2.8498  3.0859
  158SAPE   C3617699   5.596   4.762   9.337  0.0253  0.6335  0.3413
  158SAPE   H6X17700   5.669   4.824   9.393 -0.6877  0.7635  1.1397
  158SAPE   H6Y17701   5.502   4.820   9.344 -2.6664 -3.3887 -0.5366
  158SAPE   C3717702   5.640   4.731   9.193 -0.5940 -0.6590 -0.2462
  158SAPE   H7X17703   5.566   4.653   9.164  0.0512 -0.9902 -1.0193
  158SAPE   H7Y17704   5.744   4.692   9.191 -0.4964 -0.3470 -1.2907
  158SAPE   C3817705   5.640   4.851   9.099  0.0857 -0.1430  0.4493
  158SAPE   H8X17706   5.703   4.936   9.132 -2.0643  1.2556  1.0052
  158SAPE   H8Y17707   5.541   4.897   9.080  0.8267  2.2082  2.1065
  158SAPE   C3917708   5.705   4.829   8.961  0.4749  0.0807  0.4557
  158SAPE   H9X17709   5.627   4.789   8.893  1.3396  0.5163 -0.8231
  158SAPE   H9Y17710   5.793   4.761   8.970  1.2144  0.8600 -0.7638
  158SAPE  C31017711   5.761   4.963   8.897 -0.0136  0.6491 -0.4966
  158SAPE  H10X17712   5.838   5.012   8.960  0.7075  1.3941 -1.9498
  158SAPE  H10Y17713   5.679   5.036   8.912  1.9388  2.6473  0.7491
  158SAPE  C31117714   5.794   4.945   8.748 -0.2318 -0.5934  0.5370
  158SAPE  H11X17715   5.704   4.935   8.684 -0.8673 -0.7321  1.4538
  158SAPE  H11Y17716   5.848   4.848   8.732  1.9695  0.9470 -1.7126
  158SAPE  C31217717   5.891   5.048   8.705 -0.4278  0.2471 -0.7081
  158SAPE  H12X17718   5.984   5.021   8.759 -0.5558  0.9165 -0.1334
  158SAPE  H12Y17719   5.847   5.141   8.748 -0.8490  0.2445 -1.1350
  158SAPE  C31317720   5.911   5.062   8.553  0.6827  0.4145  0.1092
  158SAPE  H13X17721   5.830   5.120   8.505 -0.1903 -1.3576 -0.5952
  158SAPE  H13Y17722   5.900   4.964   8.503 -1.0638 -0.4549  2.1151
  158SAPE  C31417723   6.045   5.129   8.528 -1.0409  0.0380 -0.2223
  158SAPE  H14X17724   6.126   5.073   8.578  0.5088  2.0171 -0.4274
  158SAPE  H14Y17725   6.018   5.228   8.571  0.5167  0.3029  0.1863
  158SAPE  C31517726   6.091   5.136   8.379  0.5114 -0.6488 -0.2062
  158SAPE  H15X17727   6.015   5.184   8.313 -0.7793 -1.1568  0.8918
  158SAPE  H15Y17728   6.114   5.036   8.336 -1.1314 -0.0701 -2.5426
  158SAPE  C31617729   6.214   5.214   8.352 -0.3001 -0.1003  0.1030
  158SAPE  H16X17730   6.202   5.315   8.398 -2.9450 -0.1743 -0.3944
  158SAPE  H16Y17731   6.226   5.207   8.242  1.2609  0.9123  0.1793
  158SAPE  C31717732   6.339   5.143   8.409 -0.7146  0.6671  0.3582
  158SAPE  H17X17733   6.361   5.047   8.357 -1.1923  0.7325  0.0362
  158SAPE  H17Y17734   6.318   5.111   8.513 -1.6542  1.8714  0.5529
  158SAPE  C31817735   6.464   5.239   8.410 -0.2905 -0.1836  0.5902
  158SAPE  H18X17736   6.489   5.253   8.303 -1.0665 -1.1691  0.2683
  158SAPE  H18Y17737   6.551   5.195   8.464  1.1130  1.7966 -0.0347
  158SAPE  H18Z17738   6.443   5.335   8.461  0.1912 -0.2367  0.8973
  159SAPE     N17739   4.065   2.998   6.579  0.3708 -0.2330  0.3783
  159SAPE   HN117740   4.121   3.024   6.496 -1.1341  0.4070 -0.4603
  159SAPE   HN217741   3.974   2.971   6.536  0.7580  0.3075 -0.7919
  159SAPE   HN317742   4.048   3.077   6.645  0.7724  2.1186 -2.2390
  159SAPE   C1217743   4.132   2.884   6.650 -0.6717 -0.4000  0.4424
  159SAPE  H12A17744   4.092   2.880   6.753  1.2966  0.4410  1.2809
  159SAPE  H12B17745   4.239   2.914   6.652 -0.6320 -0.6125  1.9322
  159SAPE   C1117746   4.115   2.755   6.573 -0.2149 -0.0283  0.0272
  159SAPE  H11A17747   4.006   2.739   6.580 -0.0749 -1.8583 -1.5823
  159SAPE  H11B17748   4.157   2.669   6.629 -2.0554  0.3268  1.9992
  159SAPE     P17749   4.312   2.735   6.394 -0.4999  0.2184 -0.1056
  159SAPE   O1317750   4.325   2.665   6.263  0.1640  0.4611  0.6091
  159SAPE   O1417751   4.380   2.866   6.406 -0.2829 -0.2338  0.6037
  159SAPE   O1217752   4.164   2.761   6.438 -0.0134  0.0930  0.5309
  159SAPE   O1117753   4.353   2.648   6.518 -0.8183 -0.6115 -0.0474
  159SAPE    C117754   4.471   2.698   6.584  0.5526 -0.3916  0.9259
  159SAPE    HA17755   4.561   2.718   6.521  2.0634 -2.8367  2.2357
  159SAPE    HB17756   4.445   2.796   6.630 -0.2689  0.1507 -0.6620
  159SAPE    C217757   4.521   2.608   6.699  0.6789 -0.8871  0.6859
  159SAPE    HS17758   4.561   2.508   6.670  2.2248  0.5720 -2.3931
  159SAPE   O2117759   4.413   2.593   6.797  0.3750 -0.2355  0.3956
  159SAPE   C2117760   4.333   2.483   6.774  0.0278 -0.0577  0.0020
  159SAPE   O2217761   4.360   2.393   6.699  0.0189 -0.6526  0.7420
  159SAPE   C2217762   4.197   2.509   6.842  0.5587  0.0927  0.7035
  159SAPE   H2R17763   4.188   2.616   6.867 -4.0976 -0.0417  0.0581
  159SAPE   H2S17764   4.121   2.488   6.764 -0.1418 -0.7078  1.5891
  159SAPE    C317765   4.629   2.674   6.778 -1.2909 -0.2864 -0.1901
  159SAPE    HX17766   4.594   2.777   6.800  0.7492  0.2659  0.5498
  159SAPE    HY17767   4.714   2.708   6.716 -2.8159  3.2391 -0.4572
  159SAPE   O3117768   4.667   2.598   6.901  0.7948  0.2985 -0.2006
  159SAPE   C3117769   4.758   2.510   6.878 -0.6390  0.2409 -0.1243
  159SAPE   O3217770   4.803   2.474   6.771 -0.3050  0.0350  0.2181
  159SAPE   C3217771   4.797   2.454   7.015 -0.6275  0.2802 -0.3522
  159SAPE   H2X17772   4.721   2.373   7.025 -0.7356  0.4870  0.5653
  159SAPE   H2Y17773   4.780   2.533   7.091  0.9119  0.0876  0.2190
  159SAPE   C2317774   4.182   2.411   6.961 -0.2829  0.0428 -0.1744
  159SAPE   H3R17775   4.225   2.311   6.938 -1.4770 -0.9609  1.8096
  159SAPE   H3S17776   4.071   2.404   6.974 -0.2697  0.5784  0.2121
  159SAPE   C2417777   4.244   2.464   7.088 -0.2917  0.0660 -0.0091
  159SAPE   H4R17778   4.210   2.386   7.160 -1.1747  0.4783  0.0388
  159SAPE   H4S17779   4.191   2.559   7.113  0.3574  0.5973 -0.6218
  159SAPE   C2517780   4.389   2.495   7.110  0.4824  0.1650 -0.8896
  159SAPE   H5R17781   4.421   2.583   7.052 -3.2543  1.6624 -0.8348
  159SAPE   C2617782   4.478   2.443   7.196  0.4419 -0.6283 -0.2120
  159SAPE   H6R17783   4.580   2.481   7.180  0.3075 -0.4086 -0.5325
  159SAPE   C2717784   4.446   2.323   7.290 -0.2371  0.0813 -0.1066
  159SAPE   H7R17785   4.544   2.274   7.307  0.7631  2.4324  1.0350
  159SAPE   H7S17786   4.377   2.250   7.242 -0.7344 -0.7117  1.7820
  159SAPE   C2817787   4.402   2.370   7.426 -0.9439  0.5890  0.9711
  159SAPE   H8R17788   4.473   2.442   7.469  1.2129 -0.5189 -0.5856
  159SAPE   C2917789   4.307   2.315   7.501  0.0965  0.4782 -0.4417
  159SAPE   H9R17790   4.298   2.355   7.603  1.4993 -0.0490 -0.1008
  159SAPE  C21017791   4.209   2.202   7.472  0.3705 -0.0759  0.1960
  159SAPE  H10R17792   4.219   2.178   7.364  2.1486 -5.4462  1.3937
  159SAPE  H10S17793   4.103   2.232   7.487 -0.5641 -3.5749  1.1258
  159SAPE  C21117794   4.217   2.086   7.564 -0.3254  1.2498  0.1463
  159SAPE  H11R17795   4.234   1.994   7.507 -0.3390  2.5869 -2.0549
  159SAPE  C21217796   4.207   2.072   7.700 -0.1706 -0.1644  0.5342
  159SAPE  H12R17797   4.220   1.972   7.743  1.1676  0.8003  2.4380
  159SAPE  C21317798   4.176   2.180   7.797  0.3827 -0.5114 -0.0447
  159SAPE  H13R17799   4.099   2.155   7.873  0.7111  0.4558  0.6172
  159SAPE  H13S17800   4.134   2.262   7.736 -1.4471 -0.1325  1.7178
  159SAPE  C21417801   4.309   2.210   7.862 -0.3949 -0.0183  0.0372
  159SAPE  H14R17802   4.397   2.208   7.796 -0.4838 -1.4546 -0.0364
  159SAPE  C21517803   4.327   2.239   7.997  0.3243 -0.0543 -0.8958
  159SAPE  H15R17804   4.429   2.259   8.032 -0.3689  2.5850 -0.2392
  159SAPE  C21617805   4.220   2.239   8.103  0.4567 -0.3034  0.3415
  159SAPE  H16R17806   4.272   2.179   8.180 -1.0613 -1.2682  0.6310
  159SAPE  H16S17807   4.127   2.186   8.074 -1.7664  3.9963 -0.7734
  159SAPE  C21717808   4.179   2.379   8.151  0.3117  0.6563 -0.1957
  159SAPE  H17R17809   4.272   2.432   8.182 -0.0190  1.2673 -0.2345
  159SAPE  H17S17810   4.111   2.378   8.238 -0.1399 -0.8168 -0.5524
  159SAPE  C21817811   4.100   2.455   8.042  0.2282  0.4754  0.2919
  159SAPE  H18R17812   4.007   2.396   8.026 -0.0181  0.6521  1.0624
  159SAPE  H18S17813   4.159   2.471   7.950 -1.2364 -0.3274 -0.8141
  159SAPE  C21917814   4.059   2.592   8.093  0.1806  0.4954 -0.6822
  159SAPE  H19R17815   4.148   2.649   8.128 -0.0491  0.9626 -0.8672
  159SAPE  H19S17816   3.992   2.586   8.181 -1.2790 -1.5174 -1.9038
  159SAPE  C22017817   3.983   2.675   7.993  0.2719  0.3008 -0.3656
  159SAPE  H20R17818   3.883   2.631   7.971 -0.2532  1.4552 -0.2729
  159SAPE  H20S17819   4.036   2.691   7.896  1.3698 -0.8869  0.0223
  159SAPE  H20T17820   3.964   2.776   8.034  3.6940  0.4831  1.0000
  159SAPE   C3317821   4.936   2.393   7.031 -0.3945 -0.2021  0.3284
  159SAPE   H3X17822   5.006   2.478   7.032 -0.9320  0.2756 -1.3315
  159SAPE   H3Y17823   4.965   2.339   6.939 -0.7020 -1.9215  1.2169
  159SAPE   C3417824   4.952   2.299   7.153  0.4055  0.0411 -0.3695
  159SAPE   H4X17825   5.043   2.237   7.137  0.0669 -1.3451  2.8099
  159SAPE   H4Y17826   4.864   2.232   7.165  0.0510  0.5035 -0.3783
  159SAPE   C3517827   4.968   2.366   7.289  0.1248  0.2785 -0.2012
  159SAPE   H5X17828   5.049   2.442   7.296  1.0532 -0.6674 -0.6668
  159SAPE   H5Y17829   5.011   2.292   7.360  1.0203 -1.6458 -2.6959
  159SAPE   C3617830   4.837   2.397   7.366  0.3946 -0.5806  0.2053
  159SAPE   H6X17831   4.777   2.304   7.379  0.0744 -0.2837  0.8817
  159SAPE   H6Y17832   4.769   2.465   7.309  0.3656 -0.5655  0.2578
  159SAPE   C3717833   4.879   2.469   7.493 -0.5601 -0.2492  0.0925
  159SAPE   H7X17834   4.929   2.558   7.449 -1.1014  0.1054  0.1896
  159SAPE   H7Y17835   4.948   2.422   7.567  0.3963 -2.4821 -2.1629
  159SAPE   C3817836   4.757   2.537   7.560  0.0673  0.2257 -0.2743
  159SAPE   H8X17837   4.692   2.582   7.481 -1.6087  3.3613  2.7671
  159SAPE   H8Y17838   4.795   2.632   7.603 -1.6741  0.9484 -0.3082
  159SAPE   C3917839   4.679   2.450   7.661  0.5030  0.0593  0.4505
  159SAPE   H9X17840   4.627   2.370   7.605 -0.1304  2.1421 -2.0669
  159SAPE   H9Y17841   4.605   2.517   7.710 -1.2891 -0.3660 -1.5867
  159SAPE  C31017842   4.762   2.395   7.776 -0.2490 -0.4183 -0.2685
  159SAPE  H10X17843   4.803   2.489   7.821 -0.7042  0.2538 -1.2462
  159SAPE  H10Y17844   4.845   2.331   7.739 -1.5808 -1.7531 -0.9949
  159SAPE  C31117845   4.695   2.321   7.890 -0.0785  0.1309  0.1434
  159SAPE  H11X17846   4.670   2.216   7.861 -1.0225  0.6893 -1.1263
  159SAPE  H11Y17847   4.597   2.368   7.915  0.7670  1.2884  1.3223
  159SAPE  C31217848   4.778   2.314   8.023  0.2476 -0.4741 -0.2281
  159SAPE  H12X17849   4.806   2.419   8.050  0.5261 -0.9514  1.4252
  159SAPE  H12Y17850   4.880   2.270   8.012  0.9054  1.2595 -1.3932
  159SAPE  C31317851   4.705   2.247   8.133 -0.5258  0.4212 -0.3902
  159SAPE  H13X17852   4.598   2.277   8.127 -1.0545 -1.8235 -4.6638
  159SAPE  H13Y17853   4.760   2.274   8.225  0.6463  1.2214 -1.3141
  159SAPE  C31417854   4.713   2.094   8.135  0.6758 -0.2118 -0.0666
  159SAPE  H14X17855   4.814   2.059   8.165  0.3495  0.2242  1.6032
  159SAPE  H14Y17856   4.697   2.069   8.028 -2.5915 -0.7660  0.4988
  159SAPE  C31517857   4.589   2.037   8.208  0.8282 -0.2946  0.3625
  159SAPE  H15X17858   4.596   1.927   8.221 -1.9455 -0.5734 -0.1805
  159SAPE  H15Y17859   4.500   2.051   8.144  0.0581  2.0847  1.8863
  159SAPE  C31617860   4.562   2.089   8.351  0.4659 -0.4244 -1.1065
  159SAPE  H16X17861   4.526   2.194   8.348 -0.5545 -0.8181 -3.3593
  159SAPE  H16Y17862   4.654   2.088   8.414  0.2880 -1.8984 -0.8508
  159SAPE  C31717863   4.455   2.013   8.429  0.0613  0.1121 -0.3123
  159SAPE  H17X17864   4.466   1.903   8.442 -1.0805  0.0193 -0.0547
  159SAPE  H17Y17865   4.360   2.024   8.373  0.0879  1.4875 -0.1196
  159SAPE  C31817866   4.451   2.073   8.572 -0.8990  0.4897 -0.0866
  159SAPE  H18X17867   4.371   2.022   8.630 -1.1261  1.7066  0.6913
  159SAPE  H18Y17868   4.447   2.184   8.581 -1.1972  0.9011 -4.3088
  159SAPE  H18Z17869   4.547   2.051   8.622  0.7288  2.0332 -2.4120
  160SAPE     N17870   2.775   3.152   6.469  0.3292 -0.5905 -0.8728
  160SAPE   HN117871   2.788   3.079   6.542  0.9703  1.0024  0.6408
  160SAPE   HN217872   2.701   3.117   6.405 -0.0523 -0.8666 -0.2851
  160SAPE   HN317873   2.854   3.159   6.402 -1.2933  2.2347 -2.5797
  160SAPE   C1217874   2.732   3.267   6.549  0.5847 -0.1190 -0.3228
  160SAPE  H12A17875   2.672   3.232   6.636  0.3030  0.5112 -0.2618
  160SAPE  H12B17876   2.659   3.325   6.488 -0.7261 -1.1795  0.2069
  160SAPE   C1117877   2.848   3.361   6.582 -0.2045 -0.3857 -0.1493
  160SAPE  H11A17878   2.913   3.315   6.659 -1.7000 -1.3566  0.5544
  160SAPE  H11B17879   2.808   3.447   6.640  2.0247 -0.2376  1.2193
  160SAPE     P17880   2.932   3.539   6.419  0.0510 -0.3645  0.0285
  160SAPE   O1317881   3.001   3.547   6.289 -0.3033 -0.1790 -0.1419
  160SAPE   O1417882   2.802   3.610   6.419 -0.3212 -0.6286  0.3536
  160SAPE   O1217883   2.918   3.399   6.463 -0.0957 -0.2516 -0.1779
  160SAPE   O1117884   3.015   3.597   6.547  0.9616  0.7317  0.3043
  160SAPE    C117885   3.151   3.654   6.528 -0.2266  0.5077  0.4061
  160SAPE    HA17886   3.167   3.716   6.437  0.6476  0.0001  0.2053
  160SAPE    HB17887   3.181   3.722   6.611 -0.6414  1.3919 -0.1555
  160SAPE    C217888   3.255   3.536   6.537  0.1399  0.4964  0.0415
  160SAPE    HS17889   3.226   3.476   6.449  1.4243  0.3895 -0.3262
  160SAPE   O2117890   3.252   3.478   6.669 -0.5323 -0.7688 -0.5861
  160SAPE   C2117891   3.275   3.349   6.663  0.4934  0.1966  0.1349
  160SAPE   O2217892   3.295   3.287   6.562 -0.0941 -0.6086  0.4763
  160SAPE   C2217893   3.269   3.274   6.802 -0.5884  0.7940 -0.1468
  160SAPE   H2R17894   3.266   3.167   6.774 -2.0276  1.0328 -0.9211
  160SAPE   H2S17895   3.358   3.302   6.864 -0.6081  1.7938 -0.5601
  160SAPE    C317896   3.397   3.590   6.519 -0.5390 -0.4523 -0.6181
  160SAPE    HX17897   3.397   3.637   6.419  1.0031 -0.1259 -0.4635
  160SAPE    HY17898   3.467   3.504   6.519  1.2528  0.9815 -1.0207
  160SAPE   O3117899   3.426   3.684   6.623  0.2894  0.1907 -0.7228
  160SAPE   C3117900   3.530   3.657   6.700  1.4215 -0.0259 -0.5141
  160SAPE   O3217901   3.608   3.564   6.689  0.7612  0.1403 -0.3470
  160SAPE   C3217902   3.527   3.751   6.825 -1.0027  0.3509 -0.2990
  160SAPE   H2X17903   3.516   3.858   6.796  0.7445  0.1271 -1.9430
  160SAPE   H2Y17904   3.626   3.750   6.875 -1.2087  1.7933  0.1568
  160SAPE   C2317905   3.148   3.328   6.881  0.1308 -1.1787  0.0183
  160SAPE   H3R17906   3.060   3.315   6.814  1.0109  1.0595 -1.6538
  160SAPE   H3S17907   3.146   3.437   6.902 -1.8175 -1.2152  0.1290
  160SAPE   C2417908   3.110   3.247   7.008 -0.5140 -0.2282  0.7310
  160SAPE   H4R17909   3.086   3.144   6.974  0.5913  0.4496 -2.2203
  160SAPE   H4S17910   3.015   3.289   7.049 -1.0566  0.8726 -1.5690
  160SAPE   C2517911   3.215   3.245   7.116  0.5024  1.0151 -0.1711
  160SAPE   H5R17912   3.306   3.188   7.096  0.7751  0.6412  1.9688
  160SAPE   C2617913   3.211   3.283   7.244  1.0302 -0.2568 -0.0201
  160SAPE   H6R17914   3.302   3.282   7.305  0.5439  0.6374  0.7355
  160SAPE   C2717915   3.091   3.347   7.317 -0.1007 -0.6354  0.3664
  160SAPE   H7R17916   3.095   3.304   7.420 -0.8941 -0.1598  0.6002
  160SAPE   H7S17917   2.998   3.305   7.273 -0.1983 -1.0708  0.9762
  160SAPE   C2817918   3.099   3.499   7.318 -0.2166  0.1266  0.1393
  160SAPE   H8R17919   3.093   3.553   7.222 -0.2264  0.6734  0.4444
  160SAPE   C2917920   3.107   3.585   7.426  0.6582  0.2419  0.4376
  160SAPE   H9R17921   3.116   3.693   7.408  1.8748  0.1932  0.7559
  160SAPE  C21017922   3.108   3.538   7.571  0.6173 -0.4196  0.5216
  160SAPE  H10R17923   3.074   3.435   7.592  1.9447 -0.6749  1.4409
  160SAPE  H10S17924   3.035   3.607   7.619  2.1673  0.9239  0.9989
  160SAPE  C21117925   3.246   3.568   7.627  0.9569  0.6732  0.8617
  160SAPE  H11R17926   3.327   3.596   7.558 -0.0251 -1.7101 -1.3206
  160SAPE  C21217927   3.270   3.573   7.758 -0.6509 -0.1882 -0.2545
  160SAPE  H12R17928   3.372   3.585   7.796 -1.6988 -1.2175  3.1275
  160SAPE  C21317929   3.170   3.550   7.872 -0.1139  0.0752 -0.1201
  160SAPE  H13R17930   3.208   3.473   7.942 -0.0770 -1.0700 -1.3742
  160SAPE  H13S17931   3.068   3.517   7.843 -0.5753  0.8598  0.5871
  160SAPE  C21417932   3.148   3.670   7.962  0.3212  0.1258 -0.3685
  160SAPE  H14R17933   3.179   3.767   7.921  0.2587  1.6715  3.1146
  160SAPE  C21517934   3.106   3.667   8.092  0.0188 -0.1532  0.2125
  160SAPE  H15R17935   3.092   3.763   8.145 -0.5411  0.7931 -1.6121
  160SAPE  C21617936   3.068   3.546   8.171  0.0982  0.1976  0.5534
  160SAPE  H16R17937   3.106   3.561   8.275  0.4506  1.2755  0.2792
  160SAPE  H16S17938   3.114   3.452   8.135 -1.0892 -0.3217  0.4047
  160SAPE  C21717939   2.919   3.528   8.180 -0.6552 -0.4544  0.4308
  160SAPE  H17R17940   2.891   3.451   8.255 -2.4492  0.2172  0.4723
  160SAPE  H17S17941   2.890   3.504   8.076  2.4199 -1.2502 -0.2784
  160SAPE  C21817942   2.843   3.659   8.231 -0.3960 -0.4538  0.4016
  160SAPE  H18R17943   2.868   3.759   8.190  0.2256 -0.1724  1.4585
  160SAPE  H18S17944   2.861   3.659   8.341 -1.5644  0.1483  0.5910
  160SAPE  C21917945   2.695   3.646   8.204  0.1956  0.5556 -0.1020
  160SAPE  H19R17946   2.647   3.553   8.240 -0.9274  0.7252 -1.1283
  160SAPE  H19S17947   2.682   3.643   8.094  1.6139 -0.4965 -0.2546
  160SAPE  C22017948   2.623   3.762   8.271  0.7121  0.6345  0.5279
  160SAPE  H20R17949   2.513   3.754   8.284  0.7363 -0.4957  0.1422
  160SAPE  H20S17950   2.649   3.856   8.219  0.4744 -0.3685 -1.4324
  160SAPE  H20T17951   2.664   3.771   8.374 -0.5947  0.5496  1.0685
  160SAPE   C3317952   3.419   3.720   6.930 -0.5191  0.1478  0.7937
  160SAPE   H3X17953   3.398   3.611   6.927  0.7204 -0.0569 -2.0151
  160SAPE   H3Y17954   3.324   3.771   6.904 -1.2006 -0.5029  1.9399
  160SAPE   C3417955   3.449   3.762   7.072 -0.1704 -0.4384  0.1568
  160SAPE   H4X17956   3.355   3.774   7.131  0.9050 -0.1863  1.8585
  160SAPE   H4Y17957   3.496   3.862   7.079  0.6449 -0.8188  0.1543
  160SAPE   C3517958   3.542   3.673   7.158 -0.5337  0.3014 -0.7937
  160SAPE   H5X17959   3.635   3.658   7.099 -1.2622 -2.2534 -1.3659
  160SAPE   H5Y17960   3.482   3.580   7.154 -1.7526  1.1352 -2.2904
  160SAPE   C3617961   3.596   3.720   7.294 -0.4290  0.2690  0.0032
  160SAPE   H6X17962   3.662   3.809   7.284  0.9472 -0.6260  0.9233
  160SAPE   H6Y17963   3.663   3.645   7.339 -0.6666 -0.5109 -0.9284
  160SAPE   C3717964   3.483   3.767   7.387  0.1636  0.6175  0.0294
  160SAPE   H7X17965   3.414   3.681   7.398  2.1282 -0.7679  1.7554
  160SAPE   H7Y17966   3.426   3.857   7.356  1.1317  1.3904  0.4816
  160SAPE   C3817967   3.526   3.803   7.526  0.3769  0.8962  0.2189
  160SAPE   H8X17968   3.611   3.873   7.514  0.6723  0.5530  0.2859
  160SAPE   H8Y17969   3.555   3.708   7.576 -2.1659  0.2728  0.5832
  160SAPE   C3917970   3.426   3.868   7.616  0.3471  0.4063  0.6367
  160SAPE   H9X17971   3.336   3.814   7.652 -0.6726  1.7468  0.1205
  160SAPE   H9Y17972   3.400   3.962   7.564  0.3096 -0.7539 -1.5406
  160SAPE  C31017973   3.495   3.912   7.750  0.4041  0.2725 -0.6443
  160SAPE  H10X17974   3.417   3.937   7.825 -0.0023  1.2194 -1.3840
  160SAPE  H10Y17975   3.549   4.004   7.719  1.0766  0.3127  0.6208
  160SAPE  C31117976   3.591   3.812   7.822  0.4258  0.2167 -0.0262
  160SAPE  H11X17977   3.683   3.792   7.763 -0.0583  0.2124 -0.7906
  160SAPE  H11Y17978   3.539   3.715   7.836  0.7660  0.1942  1.1190
  160SAPE  C31217979   3.637   3.860   7.964  0.0978 -0.5296 -0.5808
  160SAPE  H12X17980   3.688   3.959   7.954  0.9103 -0.9809 -0.9380
  160SAPE  H12Y17981   3.710   3.789   8.007  2.0579  0.0596 -2.7991
  160SAPE  C31317982   3.519   3.884   8.062 -1.1108  0.5949  0.3802
  160SAPE  H13X17983   3.437   3.809   8.054 -1.5922  1.1576  0.0909
  160SAPE  H13Y17984   3.463   3.978   8.046  2.4312  2.6486 -0.3574
  160SAPE  C31417985   3.559   3.873   8.209 -0.3527 -0.6709  0.1227
  160SAPE  H14X17986   3.634   3.953   8.224 -1.7656  0.2579  2.5473
  160SAPE  H14Y17987   3.596   3.770   8.228  1.2427 -0.1537 -0.1344
  160SAPE  C31517988   3.436   3.906   8.303 -0.0210  0.0161 -0.3475
  160SAPE  H15X17989   3.350   3.849   8.261  1.3047 -2.8664  0.7268
  160SAPE  H15Y17990   3.419   4.016   8.296 -0.5101  0.0211  0.7450
  160SAPE  C31617991   3.462   3.859   8.441 -0.1175  0.4341 -0.5216
  160SAPE  H16X17992   3.557   3.907   8.475  0.4874 -0.1077 -1.4349
  160SAPE  H16Y17993   3.478   3.750   8.446  0.8657  0.5519 -1.0293
  160SAPE  C31717994   3.362   3.878   8.550  0.1067  0.0610  0.7832
  160SAPE  H17X17995   3.359   3.984   8.584  1.5522  0.4971 -0.3930
  160SAPE  H17Y17996   3.394   3.831   8.645 -1.7063 -1.8451  0.4835
  160SAPE  C31817997   3.225   3.833   8.510  0.4910 -0.6947 -0.4360
  160SAPE  H18X17998   3.188   3.889   8.422 -0.0297 -1.3326 -0.6237
  160SAPE  H18Y17999   3.157   3.854   8.595  2.2335  0.3460  0.7577
  160SAPE  H18Z18000   3.223   3.724   8.494  2.1368 -0.4543 -2.5548
  161SAPE     N18001   6.167   1.489   6.131  0.3998  0.3271 -0.2314
  161SAPE   HN118002   6.210   1.403   6.090 -2.7150 -0.5365 -1.9011
  161SAPE   HN218003   6.156   1.469   6.232  2.1572  0.1430 -0.0644
  161SAPE   HN318004   6.073   1.490   6.085  0.1490  2.7739  0.2895
  161SAPE   C1218005   6.249   1.611   6.102  0.0018  0.5183  0.2675
  161SAPE  H12A18006   6.243   1.648   5.997  0.6612  1.7641  0.6647
  161SAPE  H12B18007   6.352   1.586   6.136  0.0180 -0.4707 -0.5024
  161SAPE   C1118008   6.191   1.728   6.184  0.2797  0.1318 -0.6393
  161SAPE  H11A18009   6.275   1.801   6.178  2.0504 -1.9765 -1.8144
  161SAPE  H11B18010   6.178   1.701   6.291 -2.2319 -0.1708 -0.9783
  161SAPE     P18011   5.935   1.789   6.204  0.1870  0.3101  0.5328
  161SAPE   O1318012   5.841   1.822   6.092  0.2144 -0.6400 -0.4384
  161SAPE   O1418013   5.913   1.655   6.264 -0.0661 -0.7744  0.4996
  161SAPE   O1218014   6.071   1.781   6.124 -0.1705 -0.6816 -0.1838
  161SAPE   O1118015   5.949   1.907   6.307  0.4256 -0.0745  0.1222
  161SAPE    C118016   6.041   1.911   6.418 -0.0435 -0.0522  0.7290
  161SAPE    HA18017   6.079   1.808   6.437  2.7881  0.3522 -2.2892
  161SAPE    HB18018   6.130   1.975   6.398  0.8539 -1.3535  0.4853
  161SAPE    C218019   5.970   1.956   6.549 -0.3274  0.0626 -0.6362
  161SAPE    HS18020   5.898   1.878   6.584 -0.1968  0.1199 -0.2297
  161SAPE   O2118021   5.906   2.083   6.523  0.2377 -0.8502  0.3787
  161SAPE   C2118022   5.806   2.117   6.612 -0.4789 -0.2141  0.5264
  161SAPE   O2218023   5.775   2.042   6.702 -0.3127 -0.4655 -0.0600
  161SAPE   C2218024   5.749   2.255   6.578 -0.6134  0.0999  0.1987
  161SAPE   H2R18025   5.814   2.318   6.514  0.5723 -0.7779  0.5318
  161SAPE   H2S18026   5.647   2.246   6.536  0.3277  2.9701 -2.9207
  161SAPE    C318027   6.073   1.968   6.670 -0.5154  0.4053 -0.1918
  161SAPE    HX18028   6.096   2.075   6.689 -2.0684  0.7407 -0.0830
  161SAPE    HY18029   6.154   1.906   6.627  0.7395  0.9618  1.3442
  161SAPE   O3118030   6.016   1.901   6.782  0.1030  0.4128 -0.1840
  161SAPE   C3118031   6.094   1.901   6.890 -0.3315  0.0660 -0.5251
  161SAPE   O3218032   6.198   1.957   6.901 -0.1977  0.4915  0.4525
  161SAPE   C3218033   6.030   1.812   6.990  0.7863  0.4469  0.6029
  161SAPE   H2X18034   6.031   1.705   6.964  0.7555  0.1824  1.6718
  161SAPE   H2Y18035   5.923   1.838   7.002  1.0809  2.1373 -0.1265
  161SAPE   C2318036   5.729   2.335   6.707  0.1180 -0.1475  0.0171
  161SAPE   H3R18037   5.671   2.267   6.773 -1.1766 -0.0201 -0.9682
  161SAPE   H3S18038   5.673   2.428   6.681  0.0822 -0.3854 -0.7615
  161SAPE   C2418039   5.856   2.375   6.787 -0.0556 -0.0617  0.5046
  161SAPE   H4R18040   5.926   2.437   6.727  0.5455 -2.1240 -1.0006
  161SAPE   H4S18041   5.903   2.275   6.798 -1.1759 -0.8521 -1.6571
  161SAPE   C2518042   5.827   2.430   6.928 -0.1693  1.1799  0.3798
  161SAPE   H5R18043   5.794   2.534   6.931 -1.4607  0.8323 -1.0721
  161SAPE   C2618044   5.850   2.361   7.043  0.0406  0.3507  0.2742
  161SAPE   H6R18045   5.813   2.412   7.133 -1.7254  0.6433 -0.5934
  161SAPE   C2718046   5.893   2.220   7.072 -0.4124  0.7494 -0.1626
  161SAPE   H7R18047   5.975   2.216   7.147 -0.1298  1.9550 -0.3982
  161SAPE   H7S18048   5.926   2.160   6.985 -0.2453  0.6562 -0.0343
  161SAPE   C2818049   5.777   2.146   7.135  0.6946 -0.5402 -0.0275
  161SAPE   H8R18050   5.712   2.101   7.059 -1.0243  0.3790  0.8753
  161SAPE   C2918051   5.755   2.125   7.263  0.1105 -0.5062 -0.8025
  161SAPE   H9R18052   5.669   2.061   7.290  1.6897 -2.1130  0.5060
  161SAPE  C21018053   5.823   2.177   7.391 -0.1758 -0.6213  0.2972
  161SAPE  H10R18054   5.753   2.167   7.477 -1.1349  1.2993 -0.2244
  161SAPE  H10S18055   5.848   2.285   7.380  2.4761 -1.0181  1.8326
  161SAPE  C21118056   5.963   2.119   7.419  0.6468  0.2281 -0.0459
  161SAPE  H11R18057   6.008   2.066   7.334  1.4261  0.9700 -0.1054
  161SAPE  C21218058   6.024   2.122   7.537  0.4815 -0.3948  0.3886
  161SAPE  H12R18059   6.123   2.074   7.545  1.1325  0.7260 -0.7655
  161SAPE  C21318060   5.984   2.188   7.663  0.3301  0.5241  0.2624
  161SAPE  H13R18061   5.984   2.298   7.654  2.4196  0.4464 -1.0840
  161SAPE  H13S18062   6.071   2.163   7.727  1.6494  0.3617 -1.5430
  161SAPE  C21418063   5.856   2.138   7.731  0.1838  0.3851  0.8193
  161SAPE  H14R18064   5.779   2.089   7.669 -0.3133  0.9403  0.9932
  161SAPE  C21518065   5.819   2.154   7.859 -0.1596  0.2401  0.9100
  161SAPE  H15R18066   5.723   2.112   7.894 -1.0837  1.2333 -0.3421
  161SAPE  C21618067   5.899   2.217   7.969  0.5498  0.0511  0.8786
  161SAPE  H16R18068   5.857   2.318   7.981  0.9127  0.6135 -2.1895
  161SAPE  H16S18069   6.004   2.232   7.935  0.8191 -0.2744  1.5444
  161SAPE  C21718070   5.895   2.151   8.111 -0.8083 -0.7288 -0.0522
  161SAPE  H17R18071   5.993   2.171   8.160  0.2385  1.0456 -2.7242
  161SAPE  H17S18072   5.887   2.042   8.090 -1.8802 -0.5220 -0.7157
  161SAPE  C21818073   5.772   2.186   8.200 -0.2804 -0.1969  0.5839
  161SAPE  H18R18074   5.765   2.111   8.282 -0.6446  1.5607  2.2041
  161SAPE  H18S18075   5.672   2.183   8.152 -0.8328 -0.7849  1.7409
  161SAPE  C21918076   5.783   2.322   8.274 -0.3198  0.1518  0.2944
  161SAPE  H19R18077   5.762   2.403   8.202  0.5944  0.1777  0.0415
  161SAPE  H19S18078   5.887   2.330   8.313  0.3569  1.4087 -1.6677
  161SAPE  C22018079   5.696   2.325   8.402  0.1227 -0.8947  0.4638
  161SAPE  H20R18080   5.590   2.314   8.371  0.2853  0.2097 -0.5591
  161SAPE  H20S18081   5.723   2.422   8.449  1.5085 -1.7672  1.4764
  161SAPE  H20T18082   5.716   2.247   8.478  1.1477  0.5813  1.7586
  161SAPE   C3318083   6.103   1.832   7.123  1.0819  0.3236  0.0329
  161SAPE   H3X18084   6.088   1.938   7.155 -0.0442  0.4964 -1.0515
  161SAPE   H3Y18085   6.212   1.817   7.107  1.3526  2.4178 -0.2763
  161SAPE   C3418086   6.052   1.733   7.221  0.2032  0.3691  0.1171
  161SAPE   H4X18087   6.078   1.627   7.196  1.2288 -0.3322  3.7526
  161SAPE   H4Y18088   5.947   1.760   7.242  0.2589 -1.1921  2.7308
  161SAPE   C3518089   6.127   1.758   7.355 -0.1409  0.4667  0.3615
  161SAPE   H5X18090   6.101   1.863   7.381 -0.0648  0.6566 -0.3206
  161SAPE   H5Y18091   6.236   1.750   7.337 -0.1068  1.5421  0.0204
  161SAPE   C3618092   6.094   1.662   7.470  0.9069  0.5046  0.1263
  161SAPE   H6X18093   6.148   1.566   7.460 -0.5157 -0.1383 -1.5547
  161SAPE   H6Y18094   5.985   1.643   7.476  0.7140  1.2560 -0.9163
  161SAPE   C3718095   6.136   1.718   7.608 -0.0034  0.1583  0.0942
  161SAPE   H7X18096   6.081   1.815   7.605 -1.2462 -0.5242  0.4915
  161SAPE   H7Y18097   6.241   1.755   7.615 -0.1555  0.3687  1.4105
  161SAPE   C3818098   6.119   1.620   7.729  0.2550 -0.3582 -0.8783
  161SAPE   H8X18099   6.203   1.547   7.729  0.0262 -0.6291  0.1944
  161SAPE   H8Y18100   6.030   1.559   7.706 -0.4211  0.3952 -0.3042
  161SAPE   C3918101   6.119   1.689   7.870  0.0475  0.2880  0.8217
  161SAPE   H9X18102   6.048   1.774   7.870  0.1242  0.3528  0.9223
  161SAPE   H9Y18103   6.226   1.715   7.890  0.1497 -1.1173  2.2031
  161SAPE  C31018104   6.083   1.585   7.978  0.5092 -0.1875  0.6154
  161SAPE  H10X18105   6.111   1.482   7.949  2.1205  0.2523  0.5803
  161SAPE  H10Y18106   5.972   1.583   7.970  0.6199 -2.6454 -0.9642
  161SAPE  C31118107   6.129   1.624   8.116 -0.4535 -0.0644  0.1149
  161SAPE  H11X18108   6.075   1.717   8.144  0.4587  0.2745  0.7527
  161SAPE  H11Y18109   6.235   1.655   8.105 -0.8440  0.7635 -1.5194
  161SAPE  C31218110   6.113   1.517   8.229  0.2877  0.9686  0.3043
  161SAPE  H12X18111   6.152   1.420   8.190 -0.1950  1.2818 -1.0017
  161SAPE  H12Y18112   6.003   1.505   8.246  0.1829  0.1689 -0.8690
  161SAPE  C31318113   6.175   1.570   8.363  0.2480  0.2182 -0.6230
  161SAPE  H13X18114   6.128   1.665   8.395 -0.0019  0.2506 -1.0850
  161SAPE  H13Y18115   6.284   1.584   8.350  0.3756 -0.7322 -0.6099
  161SAPE  C31418116   6.157   1.466   8.471 -0.0571 -0.2299  0.7796
  161SAPE  H14X18117   6.238   1.395   8.443 -1.7719 -2.4253  1.2552
  161SAPE  H14Y18118   6.054   1.425   8.480 -0.2771  0.0740 -0.2896
  161SAPE  C31518119   6.183   1.518   8.619 -0.3086  0.1069 -0.2723
  161SAPE  H15X18120   6.096   1.584   8.641  0.1603  0.6849 -0.1557
  161SAPE  H15Y18121   6.274   1.581   8.623 -1.6342  2.1312 -1.1391
  161SAPE  C31618122   6.198   1.395   8.720  0.0696  0.3602 -0.0575
  161SAPE  H16X18123   6.291   1.341   8.691 -1.1619 -1.9016  0.1461
  161SAPE  H16Y18124   6.113   1.326   8.705 -0.3105  0.2978  2.3172
  161SAPE  C31718125   6.217   1.425   8.870  0.0125 -1.4093 -0.2160
  161SAPE  H17X18126   6.146   1.501   8.911  0.8143 -0.7433 -0.0464
  161SAPE  H17Y18127   6.318   1.467   8.888 -1.1210  1.7156 -0.6717
  161SAPE  C31818128   6.197   1.306   8.969  0.4821  0.1931  0.2555
  161SAPE  H18X18129   6.112   1.244   8.932  2.4252 -2.6168  0.3603
  161SAPE  H18Y18130   6.188   1.331   9.077 -0.2852  0.9171  0.0318
  161SAPE  H18Z18131   6.282   1.236   8.958 -0.6142 -0.9768 -0.8452
  162SAPE     N18132   4.444   3.909   5.996 -0.0487  0.4493 -0.3028
  162SAPE   HN118133   4.490   3.816   5.992  0.3455  0.6389 -0.2291
  162SAPE   HN218134   4.510   3.962   6.056 -1.0183  1.8492 -0.4569
  162SAPE   HN318135   4.347   3.914   6.034 -0.7087  0.8164 -1.9780
  162SAPE   C1218136   4.425   3.968   5.862 -0.2354 -0.1903  0.0769
  162SAPE  H12A18137   4.378   3.897   5.790  0.1981  0.2097 -0.6100
  162SAPE  H12B18138   4.523   3.956   5.810  0.5322  1.1520  1.1670
  162SAPE   C1118139   4.367   4.109   5.854  0.4561  0.3020  0.0238
  162SAPE  H11A18140   4.405   4.158   5.761 -2.5355  1.3590 -0.7017
  162SAPE  H11B18141   4.406   4.173   5.936  2.0402  1.7965 -1.8458
  162SAPE     P18142   4.138   4.130   5.970 -0.1215 -0.1019  0.0362
  162SAPE   O1318143   4.122   4.271   5.994  0.2713 -0.2724 -0.6783
  162SAPE   O1418144   4.019   4.050   5.962 -0.5081  0.0764  0.0303
  162SAPE   O1218145   4.225   4.109   5.846  0.1882  0.2918  0.4457
  162SAPE   O1118146   4.231   4.072   6.080 -0.0610 -0.5065  0.3050
  162SAPE    C118147   4.197   4.055   6.216 -0.5530 -0.6392 -0.5389
  162SAPE    HA18148   4.099   4.096   6.247 -0.2564  0.2883 -0.7996
  162SAPE    HB18149   4.215   3.950   6.248 -0.6071  0.4405  3.2474
  162SAPE    C218150   4.298   4.126   6.309 -0.4388  0.6446 -0.2609
  162SAPE    HS18151   4.401   4.099   6.279 -0.5906 -0.8736  0.5383
  162SAPE   O2118152   4.277   4.092   6.444  0.3606  0.3837  0.0815
  162SAPE   C2118153   4.322   3.983   6.491 -0.7288  0.5293 -0.1115
  162SAPE   O2218154   4.381   3.902   6.421  0.1923 -0.0056 -0.6662
  162SAPE   C2218155   4.310   3.971   6.640 -0.6863 -0.3228  0.7256
  162SAPE   H2R18156   4.210   3.935   6.671 -0.4954  0.1658  1.9405
  162SAPE   H2S18157   4.378   3.890   6.676  0.0837 -0.4047 -0.8554
  162SAPE    C318158   4.285   4.284   6.284  0.1772  0.3957 -0.2207
  162SAPE    HX18159   4.184   4.315   6.319 -0.2852  0.6957 -1.7579
  162SAPE    HY18160   4.291   4.289   6.173 -3.8997 -0.4553 -0.5467
  162SAPE   O3118161   4.392   4.356   6.351 -0.0268  0.2126 -0.8705
  162SAPE   C3118162   4.511   4.339   6.304 -0.5576 -0.2156 -0.5511
  162SAPE   O3218163   4.532   4.277   6.203  0.1866  0.2059 -0.5811
  162SAPE   C3218164   4.617   4.401   6.393 -0.3647  0.5037  0.5939
  162SAPE   H2X18165   4.585   4.506   6.409 -1.1479  0.3134  0.2883
  162SAPE   H2Y18166   4.715   4.382   6.344  0.2254 -0.3645  2.1085
  162SAPE   C2318167   4.335   4.109   6.719 -0.1762  0.5814 -0.2420
  162SAPE   H3R18168   4.264   4.185   6.680 -1.4077  0.4734  1.6834
  162SAPE   H3S18169   4.441   4.138   6.702  1.0561 -1.2850  3.6764
  162SAPE   C2418170   4.296   4.088   6.863  0.3540 -0.7301 -0.2553
  162SAPE   H4R18171   4.377   4.019   6.895 -0.5073 -1.3262  0.6792
  162SAPE   H4S18172   4.203   4.032   6.885  0.1091 -2.1923 -4.5813
  162SAPE   C2518173   4.311   4.225   6.925 -0.7411  0.4483 -1.0334
  162SAPE   H5R18174   4.265   4.305   6.864 -1.1418  0.9208 -0.1334
  162SAPE   C2618175   4.363   4.241   7.053  0.6102 -0.7124  0.0015
  162SAPE   H6R18176   4.366   4.341   7.098  1.4703 -0.6157 -0.2668
  162SAPE   C2718177   4.395   4.122   7.139 -0.0878  0.6054 -0.4904
  162SAPE   H7R18178   4.474   4.058   7.094  2.1183  1.8463  1.4761
  162SAPE   H7S18179   4.299   4.067   7.146  0.5280 -0.4974 -0.5525
  162SAPE   C2818180   4.463   4.154   7.275 -0.1612 -0.3131 -0.4870
  162SAPE   H8R18181   4.568   4.128   7.291  0.1574  1.2330  0.0668
  162SAPE   C2918182   4.395   4.221   7.371 -0.1075  0.4004 -1.0596
  162SAPE   H9R18183   4.443   4.244   7.468 -2.9249  0.0407  0.4669
  162SAPE  C21018184   4.253   4.286   7.365 -0.4049 -0.4095 -0.4181
  162SAPE  H10R18185   4.184   4.200   7.347 -0.6071 -0.2403 -0.4520
  162SAPE  H10S18186   4.232   4.348   7.276  0.4758 -0.5847 -0.7510
  162SAPE  C21118187   4.223   4.369   7.488  0.1705 -0.4627 -0.3340
  162SAPE  H11R18188   4.252   4.318   7.581 -0.9984  0.3520  0.4875
  162SAPE  C21218189   4.164   4.492   7.489  0.4337  0.6988  0.2942
  162SAPE  H12R18190   4.150   4.555   7.579 -4.0271  1.4553 -0.7902
  162SAPE  C21318191   4.122   4.576   7.373 -0.2390 -0.2145  0.3865
  162SAPE  H13R18192   4.196   4.580   7.290  0.5398 -0.1188  1.0788
  162SAPE  H13S18193   4.139   4.684   7.396 -0.0703 -0.0496 -0.4611
  162SAPE  C21418194   3.982   4.544   7.326  0.2530  0.3120  0.4684
  162SAPE  H14R18195   3.911   4.526   7.407  0.3139  2.9679  1.1459
  162SAPE  C21518196   3.937   4.529   7.197  0.5687 -0.9215  0.3616
  162SAPE  H15R18197   3.829   4.543   7.182  0.8367  1.9856  0.8901
  162SAPE  C21618198   4.025   4.544   7.072 -0.0182 -0.1059 -0.6041
  162SAPE  H16R18199   4.006   4.452   7.014  0.0669 -0.4329 -0.1135
  162SAPE  H16S18200   4.133   4.540   7.096  0.0389 -0.3664 -0.9093
  162SAPE  C21718201   3.982   4.670   6.999 -0.4297  0.4309 -0.4555
  162SAPE  H17R18202   3.994   4.753   7.072  3.0184 -0.0813 -0.3632
  162SAPE  H17S18203   3.880   4.668   6.955 -0.9415 -3.4826  0.7375
  162SAPE  C21818204   4.085   4.698   6.894 -0.7359 -0.1796 -0.7027
  162SAPE  H18R18205   4.188   4.684   6.935 -1.0895  0.6674  0.5097
  162SAPE  H18S18206   4.084   4.805   6.864 -0.4692  0.6278  1.9893
  162SAPE  C21918207   4.067   4.599   6.780  0.8946  0.0998 -0.7483
  162SAPE  H19R18208   3.966   4.616   6.735  0.1694  0.6156  1.0239
  162SAPE  H19S18209   4.058   4.493   6.812  0.1120  0.8103  1.4862
  162SAPE  C22018210   4.182   4.614   6.681 -0.5021 -0.2209 -0.1694
  162SAPE  H20R18211   4.184   4.722   6.658  1.6665 -0.9821 -3.9041
  162SAPE  H20S18212   4.178   4.547   6.593 -1.2313 -0.0353 -0.2751
  162SAPE  H20T18213   4.276   4.581   6.731 -2.0750 -0.2538  2.9450
  162SAPE   C3318214   4.616   4.327   6.530 -0.2282 -1.1592  0.0964
  162SAPE   H3X18215   4.673   4.232   6.518  2.9960  0.4939  1.8148
  162SAPE   H3Y18216   4.511   4.295   6.552 -0.3434 -1.9486 -1.4906
  162SAPE   C3418217   4.674   4.396   6.650 -0.0589 -0.0640  0.2526
  162SAPE   H4X18218   4.646   4.504   6.649 -1.2182 -0.3603 -0.6314
  162SAPE   H4Y18219   4.785   4.392   6.644 -0.0514  0.1949  0.1977
  162SAPE   C3518220   4.642   4.346   6.793 -0.1907  0.1343  0.1723
  162SAPE   H5X18221   4.678   4.244   6.819 -0.9261 -0.2209 -0.2007
  162SAPE   H5Y18222   4.532   4.345   6.811 -0.5996  1.3068 -2.1427
  162SAPE   C3618223   4.713   4.437   6.894 -0.4016  0.1379  0.0813
  162SAPE   H6X18224   4.809   4.474   6.851 -0.5487  2.2078  1.4399
  162SAPE   H6Y18225   4.738   4.379   6.986  2.7463 -1.2579 -1.5847
  162SAPE   C3718226   4.616   4.547   6.943 -0.3797 -0.6302  0.4677
  162SAPE   H7X18227   4.514   4.508   6.962 -1.5134  2.4472  1.0134
  162SAPE   H7Y18228   4.616   4.619   6.858  0.8791 -0.0170  0.9712
  162SAPE   C3818229   4.668   4.598   7.082 -0.2514  0.4098  0.3992
  162SAPE   H8X18230   4.636   4.703   7.094  2.7348  1.3401  0.4466
  162SAPE   H8Y18231   4.777   4.598   7.065 -0.2951  2.2917  0.1097
  162SAPE   C3918232   4.628   4.514   7.211  0.2368 -0.4216 -0.4699
  162SAPE   H9X18233   4.649   4.408   7.184 -0.6975  0.2150 -3.9978
  162SAPE   H9Y18234   4.520   4.536   7.221  0.5646  0.3038  1.6637
  162SAPE  C31018235   4.697   4.562   7.335  0.3714  0.0287 -0.5429
  162SAPE  H10X18236   4.682   4.671   7.349 -0.2209 -0.2159  0.8676
  162SAPE  H10Y18237   4.805   4.538   7.323  0.2287 -0.4852 -0.8061
  162SAPE  C31118238   4.642   4.495   7.461 -0.5729 -0.7233 -0.1415
  162SAPE  H11X18239   4.681   4.391   7.470 -1.6035 -1.0437  0.7976
  162SAPE  H11Y18240   4.531   4.496   7.455 -0.4926 -1.2247 -2.1954
  162SAPE  C31218241   4.670   4.586   7.582 -0.3253 -0.1244 -0.3338
  162SAPE  H12X18242   4.618   4.684   7.577  1.4438  0.9844  1.9455
  162SAPE  H12Y18243   4.778   4.606   7.568 -0.2611  0.2800  0.7310
  162SAPE  C31318244   4.640   4.526   7.720 -0.0785 -0.1884  0.7368
  162SAPE  H13X18245   4.662   4.609   7.790  0.1837 -0.4259  0.9342
  162SAPE  H13Y18246   4.701   4.436   7.744 -1.9504 -1.5752  0.4629
  162SAPE  C31418247   4.488   4.497   7.735  0.1301  0.1406 -0.1167
  162SAPE  H14X18248   4.449   4.450   7.642 -0.4834 -0.6632  0.5323
  162SAPE  H14Y18249   4.445   4.599   7.742  1.1113  0.6335 -1.0931
  162SAPE  C31518250   4.454   4.416   7.853  0.5395  0.2430 -0.0983
  162SAPE  H15X18251   4.452   4.486   7.939  0.7841  0.5159 -0.3149
  162SAPE  H15Y18252   4.541   4.347   7.864  0.9408  0.4409 -1.9158
  162SAPE  C31618253   4.325   4.329   7.864 -0.3084 -0.4705  0.3225
  162SAPE  H16X18254   4.327   4.258   7.949 -0.5257  0.3302  1.0107
  162SAPE  H16Y18255   4.330   4.273   7.769 -0.6844  0.1244 -0.0521
  162SAPE  C31718256   4.196   4.412   7.889 -0.0738 -0.0596 -0.1110
  162SAPE  H17X18257   4.112   4.340   7.876 -0.5245 -0.0716  2.6138
  162SAPE  H17Y18258   4.194   4.493   7.813 -0.5414 -0.1646 -0.2136
  162SAPE  C31818259   4.176   4.471   8.028  0.1507 -0.1304  0.2586
  162SAPE  H18X18260   4.263   4.533   8.058 -1.0775  2.1529 -0.7413
  162SAPE  H18Y18261   4.163   4.392   8.105  1.2325 -1.4351 -0.8620
  162SAPE  H18Z18262   4.089   4.541   8.022  0.6630  0.6549  1.8812
  163SAPE     N18263   3.767   2.022   6.556 -0.2653  0.0583 -0.1406
  163SAPE   HN118264   3.688   2.059   6.499 -0.8796 -0.8279  0.1126
  163SAPE   HN218265   3.842   2.093   6.549 -0.5868  0.4334  0.2008
  163SAPE   HN318266   3.797   1.935   6.507  1.2296  0.0442  0.7651
  163SAPE   C1218267   3.709   1.985   6.688  0.3829  0.3103  0.1991
  163SAPE  H12A18268   3.797   1.984   6.756  1.3161 -1.9013 -0.9992
  163SAPE  H12B18269   3.661   1.886   6.672 -1.2164  0.9345  1.0666
  163SAPE   C1118270   3.618   2.101   6.726  0.1105  0.8789  0.7434
  163SAPE  H11A18271   3.675   2.195   6.741 -0.1755  1.0518  0.7429
  163SAPE  H11B18272   3.587   2.079   6.830  2.8673  0.7620  1.5762
  163SAPE     P18273   3.468   2.257   6.576 -0.1940  0.2434  0.0597
  163SAPE   O1318274   3.593   2.315   6.524  0.0938  0.4751 -0.0437
  163SAPE   O1418275   3.352   2.236   6.486  0.5303 -0.2236  0.1327
  163SAPE   O1218276   3.498   2.113   6.649 -0.3842 -0.4586 -0.4548
  163SAPE   O1118277   3.427   2.364   6.686  0.4216 -0.3055 -0.8135
  163SAPE    C118278   3.463   2.355   6.817  0.3329  0.8837  0.1158
  163SAPE    HA18279   3.453   2.252   6.857  0.6390  0.2421 -1.4243
  163SAPE    HB18280   3.567   2.392   6.833  1.1385 -0.5577 -1.5921
  163SAPE    C218281   3.365   2.433   6.907 -0.0623  0.0301 -0.1795
  163SAPE    HS18282   3.360   2.531   6.854 -1.2931  0.3338  0.4726
  163SAPE   O2118283   3.421   2.453   7.042  0.1158 -0.5740  0.4334
  163SAPE   C2118284   3.365   2.555   7.109 -0.0769 -0.4157  0.1380
  163SAPE   O2218285   3.303   2.646   7.060  0.0636  0.5978  0.2329
  163SAPE   C2218286   3.399   2.543   7.254  0.1880 -0.1532 -0.2418
  163SAPE   H2R18287   3.333   2.464   7.297 -1.8900  1.3592 -0.5806
  163SAPE   H2S18288   3.507   2.516   7.262  0.0597 -0.6284 -0.0981
  163SAPE    C318289   3.226   2.367   6.906 -0.2038  0.0624  0.2968
  163SAPE    HX18290   3.196   2.355   6.799  0.1581 -0.6130  0.2689
  163SAPE    HY18291   3.158   2.443   6.949 -0.2140  0.2501 -0.0503
  163SAPE   O3118292   3.222   2.239   6.970 -0.4271 -0.3412  0.4394
  163SAPE   C3118293   3.177   2.233   7.095 -0.7047 -0.2509 -0.0031
  163SAPE   O3218294   3.123   2.331   7.149 -0.4242  0.0074  0.2038
  163SAPE   C3218295   3.221   2.100   7.166 -0.0372  0.4858 -0.6397
  163SAPE   H2X18296   3.330   2.093   7.151  0.4529 -1.7379  3.2616
  163SAPE   H2Y18297   3.166   2.014   7.123 -0.5309 -0.3925  1.6933
  163SAPE   C2318298   3.371   2.672   7.334 -0.3406  0.9089  0.5112
  163SAPE   H3R18299   3.268   2.667   7.375 -1.0878  0.1592 -1.3695
  163SAPE   H3S18300   3.375   2.763   7.270 -0.6688  0.7113  0.2032
  163SAPE   C2418301   3.467   2.699   7.453  0.3630  0.0069 -0.1753
  163SAPE   H4R18302   3.565   2.715   7.403  0.0705  1.3055 -0.3722
  163SAPE   H4S18303   3.460   2.603   7.508 -1.2514  0.2122 -0.0013
  163SAPE   C2518304   3.440   2.813   7.547  0.6645  0.3516  0.1100
  163SAPE   H5R18305   3.415   2.905   7.493  0.4237  1.4763  2.0771
  163SAPE   C2618306   3.438   2.810   7.681 -0.2299  0.1615  0.8220
  163SAPE   H6R18307   3.424   2.910   7.726  2.7179  1.3854 -0.8137
  163SAPE   C2718308   3.457   2.695   7.776 -0.8758  0.0567  0.2320
  163SAPE   H7R18309   3.544   2.734   7.833 -1.2403  2.5443 -0.8875
  163SAPE   H7S18310   3.495   2.607   7.719 -1.5551  0.9492 -1.6297
  163SAPE   C2818311   3.349   2.655   7.875  0.3362 -0.4403  0.3359
  163SAPE   H8R18312   3.269   2.600   7.823 -0.9577  1.4803  0.2802
  163SAPE   C2918313   3.351   2.668   8.011  0.1520 -0.8452 -0.4890
  163SAPE   H9R18314   3.261   2.623   8.057 -0.6581  2.2422  1.0994
  163SAPE  C21018315   3.456   2.730   8.095  0.7696 -0.0900 -0.0257
  163SAPE  H10R18316   3.548   2.668   8.097  0.3915 -0.6151  2.0776
  163SAPE  H10S18317   3.428   2.715   8.201 -0.2572  0.5718 -0.1980
  163SAPE  C21118318   3.491   2.874   8.068  0.7011 -0.2820  0.3583
  163SAPE  H11R18319   3.433   2.913   7.982 -0.7940 -2.0389  0.5419
  163SAPE  C21218320   3.571   2.954   8.138  0.0453 -0.4295 -0.8671
  163SAPE  H12R18321   3.594   3.059   8.113 -2.0242  0.4951  0.9122
  163SAPE  C21318322   3.644   2.906   8.260  0.5787  0.4201  0.1683
  163SAPE  H13R18323   3.749   2.905   8.224  0.7050 -1.8443  0.5102
  163SAPE  H13S18324   3.619   2.798   8.271  1.4345  0.4808  3.2249
  163SAPE  C21418325   3.632   2.972   8.390 -0.6896 -0.0487  0.5447
  163SAPE  H14R18326   3.532   3.015   8.404 -0.8068  0.2217 -1.0526
  163SAPE  C21518327   3.730   2.982   8.486  0.5042  0.3426  0.0966
  163SAPE  H15R18328   3.713   3.045   8.575  2.1642 -0.2979  0.8971
  163SAPE  C21618329   3.875   2.923   8.472 -0.0087 -0.5485 -1.1762
  163SAPE  H16R18330   3.942   2.992   8.528 -0.0333 -0.8491 -0.7716
  163SAPE  H16S18331   3.915   2.924   8.368 -1.2320 -0.9530 -1.6531
  163SAPE  C21718332   3.876   2.782   8.520 -0.9457 -0.5972 -0.4447
  163SAPE  H17R18333   3.806   2.720   8.460  0.8640 -1.4885 -1.6971
  163SAPE  H17S18334   3.838   2.775   8.624 -0.6841  2.3620 -0.0969
  163SAPE  C21818335   4.022   2.724   8.518 -0.7162 -0.3577 -0.4887
  163SAPE  H18R18336   4.088   2.781   8.588  2.2795  0.8659 -4.1533
  163SAPE  H18S18337   4.055   2.731   8.413 -0.5156 -1.6188 -0.5154
  163SAPE  C21918338   4.023   2.584   8.579  0.4803 -0.6504  0.4483
  163SAPE  H19R18339   3.941   2.523   8.536 -0.3864 -0.2843  1.5555
  163SAPE  H19S18340   4.004   2.599   8.687 -0.1288 -1.2064  0.4180
  163SAPE  C22018341   4.155   2.506   8.560  0.1967  0.3699  0.1672
  163SAPE  H20R18342   4.155   2.482   8.452 -1.3436  2.8938 -0.4344
  163SAPE  H20S18343   4.148   2.412   8.619 -0.2541 -0.7273 -1.5803
  163SAPE  H20T18344   4.245   2.566   8.581  0.2608  0.6212 -0.7969
  163SAPE   C3318345   3.194   2.090   7.322 -0.0059 -0.2670 -0.3351
  163SAPE   H3X18346   3.087   2.113   7.339  0.6981  1.5183  2.0288
  163SAPE   H3Y18347   3.242   2.170   7.382  2.1415 -0.3466 -1.8972
  163SAPE   C3418348   3.237   1.964   7.381  0.1849  0.1931  0.2651
  163SAPE   H4X18349   3.336   1.947   7.333  0.5807  3.5778 -0.2723
  163SAPE   H4Y18350   3.178   1.876   7.348 -0.2999  1.3970 -2.2418
  163SAPE   C3518351   3.242   1.964   7.529  0.2060  0.1012  0.1194
  163SAPE   H5X18352   3.138   1.974   7.567  0.3078  0.0222  0.4169
  163SAPE   H5Y18353   3.304   2.052   7.557  1.7163 -0.7715 -0.4346
  163SAPE   C3618354   3.316   1.846   7.586 -0.0723  0.0438  0.3196
  163SAPE   H6X18355   3.420   1.835   7.548 -0.3673  0.8223 -0.7403
  163SAPE   H6Y18356   3.265   1.754   7.549 -0.3754  0.3198  0.0548
  163SAPE   C3718357   3.315   1.847   7.738 -0.3445 -0.0467 -0.4841
  163SAPE   H7X18358   3.212   1.868   7.775  0.0280  2.7889 -0.9408
  163SAPE   H7Y18359   3.388   1.921   7.776 -0.5320 -0.1832  0.1451
  163SAPE   C3818360   3.359   1.709   7.792 -0.2629 -0.5593  0.2146
  163SAPE   H8X18361   3.452   1.678   7.740 -0.6868 -1.5661  0.0556
  163SAPE   H8Y18362   3.286   1.628   7.774 -2.4741  0.9306  2.1172
  163SAPE   C3918363   3.407   1.724   7.939  0.3357 -0.1870  0.2702
  163SAPE   H9X18364   3.320   1.768   7.993  0.4859  0.9187 -0.3724
  163SAPE   H9Y18365   3.499   1.787   7.938 -0.7423  1.4062 -0.1764
  163SAPE  C31018366   3.437   1.588   8.013  0.3393 -0.2736 -0.2603
  163SAPE  H10X18367   3.472   1.520   7.933  0.9113  0.5569 -0.7120
  163SAPE  H10Y18368   3.338   1.551   8.047  0.9831 -0.6055  1.3145
  163SAPE  C31118369   3.541   1.594   8.134  0.4356  0.0800  0.3098
  163SAPE  H11X18370   3.549   1.488   8.167 -1.5900  0.4728  2.2062
  163SAPE  H11Y18371   3.501   1.650   8.221  2.3744 -1.6886  2.4141
  163SAPE  C31218372   3.685   1.660   8.099 -0.0653 -0.3930 -0.1084
  163SAPE  H12X18373   3.661   1.768   8.106  1.1245 -0.1096 -0.3002
  163SAPE  H12Y18374   3.714   1.648   7.993 -0.0533 -1.9368  0.0621
  163SAPE  C31318375   3.799   1.610   8.195  0.4003 -0.1001  0.4424
  163SAPE  H13X18376   3.887   1.665   8.155 -0.2860  0.1167 -0.7734
  163SAPE  H13Y18377   3.813   1.501   8.179  0.2729 -0.3949  2.2209
  163SAPE  C31418378   3.772   1.637   8.349 -0.1960 -0.3750 -0.2860
  163SAPE  H14X18379   3.677   1.585   8.373 -0.7112  0.7822  0.2019
  163SAPE  H14Y18380   3.740   1.743   8.353 -1.4788 -0.7462 -0.4355
  163SAPE  C31518381   3.883   1.590   8.453 -0.3305 -0.0093 -0.4421
  163SAPE  H15X18382   3.896   1.486   8.417  0.6756 -0.7084  1.8690
  163SAPE  H15Y18383   3.860   1.603   8.561  1.8558 -0.5816  0.1174
  163SAPE  C31618384   4.021   1.663   8.433 -0.6837  0.2189 -0.4719
  163SAPE  H16X18385   3.998   1.771   8.447 -2.9685 -0.1994 -0.7150
  163SAPE  H16Y18386   4.062   1.647   8.332  2.5946 -3.0328  1.2834
  163SAPE  C31718387   4.130   1.623   8.535 -0.0113 -0.7888 -0.1371
  163SAPE  H17X18388   4.150   1.514   8.545  1.8543 -0.3130  1.4327
  163SAPE  H17Y18389   4.093   1.653   8.635  1.8854 -3.1162  1.3101
  163SAPE  C31818390   4.259   1.689   8.503 -0.3924  0.5615 -0.5186
  163SAPE  H18X18391   4.243   1.798   8.519 -0.9468  0.5226 -0.8083
  163SAPE  H18Y18392   4.283   1.666   8.397  0.7072  3.4516 -0.9290
  163SAPE  H18Z18393   4.350   1.657   8.558 -0.6383  0.0962 -0.3805
  164SAPE     N18394   5.979   6.708   6.398  0.9302  0.5527 -0.0889
  164SAPE   HN118395   5.908   6.689   6.473 -0.0495  0.7822 -0.9452
  164SAPE   HN218396   6.011   6.804   6.424 -1.1979  0.7427  2.0954
  164SAPE   HN318397   5.935   6.717   6.304  2.2738 -1.4350 -0.9344
  164SAPE   C1218398   6.106   6.623   6.384  0.6544 -0.1919 -0.0304
  164SAPE  H12A18399   6.076   6.528   6.434  0.2508  1.1486  2.3483
  164SAPE  H12B18400   6.181   6.671   6.450 -2.7993  2.8631  1.8221
  164SAPE   C1118401   6.155   6.598   6.240 -0.0367 -0.3402  0.0757
  164SAPE  H11A18402   6.176   6.694   6.187  1.4329 -1.1535 -0.8370
  164SAPE  H11B18403   6.076   6.554   6.176 -2.1353  0.5771  1.9751
  164SAPE     P18404   6.293   6.371   6.206  0.1995  0.3789 -0.0275
  164SAPE   O1318405   6.200   6.277   6.270 -0.3945  0.5414  0.2344
  164SAPE   O1418406   6.298   6.363   6.059  0.4048 -1.0150  0.1734
  164SAPE   O1218407   6.269   6.524   6.237  0.2312  0.1318  0.0194
  164SAPE   O1118408   6.432   6.345   6.269 -0.4878 -0.3334  0.0774
  164SAPE    C118409   6.547   6.430   6.238 -0.7105 -1.2942  0.2638
  164SAPE    HA18410   6.630   6.363   6.206 -0.2640 -0.8542  0.4909
  164SAPE    HB18411   6.525   6.499   6.153  2.7118 -1.0827 -0.5602
  164SAPE    C218412   6.601   6.523   6.354  0.5879 -0.2195 -1.0546
  164SAPE    HS18413   6.662   6.604   6.310  0.7870 -0.4405 -1.1847
  164SAPE   O2118414   6.666   6.445   6.455 -0.1753  0.5575 -0.8179
  164SAPE   C2118415   6.787   6.486   6.496  0.0277  0.0313  0.0582
  164SAPE   O2218416   6.838   6.589   6.466  0.3066 -0.1998 -0.1336
  164SAPE   C2218417   6.853   6.392   6.602  0.6157  0.2963 -0.4483
  164SAPE   H2R18418   6.837   6.439   6.702  2.8048 -1.2401  0.6577
  164SAPE   H2S18419   6.816   6.288   6.592 -0.4787  0.6469 -0.2094
  164SAPE    C318420   6.483   6.591   6.421 -0.6742  0.2899 -0.6683
  164SAPE    HX18421   6.410   6.514   6.452 -0.2544  0.6275  1.2203
  164SAPE    HY18422   6.439   6.657   6.343 -0.4197 -0.0775 -1.1271
  164SAPE   O3118423   6.537   6.667   6.536  0.6149 -0.1486  0.0812
  164SAPE   C3118424   6.457   6.679   6.636  0.0867  0.3308  0.1852
  164SAPE   O3218425   6.339   6.678   6.628  0.6721 -0.6250  0.0539
  164SAPE   C3218426   6.543   6.689   6.766  0.3213 -0.0872 -0.0583
  164SAPE   H2X18427   6.629   6.756   6.745  1.9926 -2.2755 -0.4408
  164SAPE   H2Y18428   6.577   6.585   6.788 -1.9565 -0.1514  3.5711
  164SAPE   C2318429   7.010   6.379   6.579  0.2363 -0.4734  0.7518
  164SAPE   H3R18430   7.061   6.476   6.600  0.5741 -1.1596  3.1810
  164SAPE   H3S18431   7.042   6.348   6.477 -1.1372 -1.7420  0.7025
  164SAPE   C2418432   7.070   6.273   6.668  0.1956  0.3084 -0.1853
  164SAPE   H4R18433   7.177   6.266   6.639  0.2270 -1.2893  0.2533
  164SAPE   H4S18434   7.016   6.178   6.651 -0.5719  0.4673  1.2666
  164SAPE   C2518435   7.061   6.299   6.823  0.5942 -0.0182  0.1578
  164SAPE   H5R18436   6.983   6.370   6.853 -0.4997 -0.7525 -0.9390
  164SAPE   C2618437   7.129   6.238   6.919 -0.0102  0.8466  0.5536
  164SAPE   H6R18438   7.118   6.274   7.022  2.0077 -0.1632  1.1345
  164SAPE   C2718439   7.237   6.132   6.907  0.1498  0.1456 -0.3256
  164SAPE   H7R18440   7.271   6.119   6.802 -0.3852 -1.7621 -0.2706
  164SAPE   H7S18441   7.180   6.041   6.936  1.1584 -0.9929 -1.8745
  164SAPE   C2818442   7.358   6.145   7.000  0.7310  0.3889 -0.0632
  164SAPE   H8R18443   7.439   6.201   6.952  1.4270  0.7158  1.4902
  164SAPE   C2918444   7.374   6.114   7.130 -0.7529  0.0733  0.4718
  164SAPE   H9R18445   7.470   6.137   7.177  0.4783 -1.6956 -1.0886
  164SAPE  C21018446   7.273   6.049   7.214 -0.7047  0.6922 -0.2581
  164SAPE  H10R18447   7.275   5.939   7.227 -0.4176  0.8445  1.0416
  164SAPE  H10S18448   7.175   6.069   7.164  0.1480 -0.2958 -2.3683
  164SAPE  C21118449   7.264   6.106   7.352  0.1115 -0.1889  0.4516
  164SAPE  H11R18450   7.335   6.055   7.419  3.5249  0.5913 -2.4301
  164SAPE  C21218451   7.187   6.216   7.389 -1.1951 -0.2159  0.1643
  164SAPE  H12R18452   7.188   6.248   7.494  1.2430 -0.8914  0.3779
  164SAPE  C21318453   7.099   6.302   7.314 -0.2441 -0.0308  0.1195
  164SAPE  H13R18454   7.055   6.241   7.232  0.4966  1.7206 -1.6156
  164SAPE  H13S18455   7.164   6.383   7.274  0.7667 -1.2811 -0.7921
  164SAPE  C21418456   6.995   6.374   7.380  0.0657  0.4112 -0.4478
  164SAPE  H14R18457   7.010   6.403   7.485  1.5580  0.4198 -0.6495
  164SAPE  C21518458   6.873   6.399   7.327  0.0124 -0.5262 -0.9261
  164SAPE  H15R18459   6.807   6.467   7.383 -0.1662 -1.2214 -0.2793
  164SAPE  C21618460   6.832   6.372   7.186  0.0960 -0.4299  0.3430
  164SAPE  H16R18461   6.919   6.373   7.118  0.1299  0.5657  0.3932
  164SAPE  H16S18462   6.756   6.447   7.157 -0.1873 -1.0220 -0.4618
  164SAPE  C21718463   6.771   6.234   7.158 -0.2416  0.2522 -0.0827
  164SAPE  H17R18464   6.844   6.161   7.198 -0.6415  0.0428  0.2694
  164SAPE  H17S18465   6.757   6.217   7.049 -2.3168 -2.7891  0.5945
  164SAPE  C21818466   6.634   6.205   7.231 -0.3116  0.1392  0.1252
  164SAPE  H18R18467   6.668   6.176   7.332  1.4611  3.4146  0.5668
  164SAPE  H18S18468   6.594   6.114   7.182 -1.6541  1.2823 -0.9324
  164SAPE  C21918469   6.543   6.322   7.238 -0.0307 -0.6192 -0.5282
  164SAPE  H19R18470   6.538   6.365   7.136  1.1925  1.0408  0.0698
  164SAPE  H19S18471   6.583   6.407   7.298  0.2809 -1.4901  0.5212
  164SAPE  C22018472   6.403   6.287   7.289  0.2421 -0.2412 -0.2243
  164SAPE  H20R18473   6.365   6.205   7.225 -2.0066  0.6963 -0.1397
  164SAPE  H20S18474   6.336   6.374   7.268 -1.6888 -0.6954  3.6703
  164SAPE  H20T18475   6.404   6.253   7.394 -0.1832 -1.1660 -0.5184
  164SAPE   C3318476   6.463   6.737   6.892 -0.8802  0.6808  0.3538
  164SAPE   H3X18477   6.392   6.662   6.934 -2.1077  1.7755  0.3002
  164SAPE   H3Y18478   6.389   6.817   6.869 -2.4039 -0.6076  0.6771
  164SAPE   C3418479   6.540   6.801   7.008 -0.2650 -0.7346  0.2836
  164SAPE   H4X18480   6.474   6.863   7.073  2.8852  1.6187  1.4246
  164SAPE   H4Y18481   6.620   6.866   6.966  0.7370 -2.6612 -0.8404
  164SAPE   C3518482   6.612   6.691   7.086  0.3866 -0.0340  0.0833
  164SAPE   H5X18483   6.691   6.643   7.025 -0.1257 -4.0315  2.3660
  164SAPE   H5Y18484   6.534   6.615   7.107  0.6991 -0.4979 -0.4466
  164SAPE   C3618485   6.684   6.722   7.221  0.3698  0.0150 -0.0820
  164SAPE   H6X18486   6.739   6.819   7.222 -1.6955  1.1970  1.6799
  164SAPE   H6Y18487   6.767   6.651   7.241  1.1603  0.2498 -2.3509
  164SAPE   C3718488   6.598   6.721   7.346 -0.2290  0.7137  0.1218
  164SAPE   H7X18489   6.548   6.622   7.352 -0.2224  0.6776 -0.4128
  164SAPE   H7Y18490   6.528   6.805   7.327  0.0631  1.0485  0.5276
  164SAPE   C3818491   6.677   6.760   7.471  0.6668 -0.1682  0.2587
  164SAPE   H8X18492   6.708   6.866   7.454  1.8284 -0.2309  1.8740
  164SAPE   H8Y18493   6.774   6.706   7.470  1.4524  1.1904  0.6484
  164SAPE   C3918494   6.602   6.732   7.606  0.3497 -0.5236 -0.6833
  164SAPE   H9X18495   6.610   6.622   7.620 -2.9964 -0.6552  0.4181
  164SAPE   H9Y18496   6.495   6.753   7.587 -0.3958 -2.6929  0.9938
  164SAPE  C31018497   6.656   6.825   7.711  0.1036 -0.1617 -0.1622
  164SAPE  H10X18498   6.627   6.927   7.680 -3.6252 -1.0855 -0.0261
  164SAPE  H10Y18499   6.765   6.820   7.730  0.3663  2.3457 -0.8509
  164SAPE  C31118500   6.573   6.778   7.838 -0.0308  0.9348  0.0422
  164SAPE  H11X18501   6.604   6.672   7.846 -2.3837  0.1593 -0.8499
  164SAPE  H11Y18502   6.463   6.785   7.832 -0.1174 -0.8595 -0.6264
  164SAPE  C31218503   6.622   6.854   7.960 -0.9489  0.3071  0.3186
  164SAPE  H12X18504   6.563   6.837   8.053  1.1436 -1.7589  1.3188
  164SAPE  H12Y18505   6.625   6.963   7.941  2.3563  0.1881 -0.1378
  164SAPE  C31318506   6.748   6.797   8.014 -0.9550 -0.2031 -0.2370
  164SAPE  H13X18507   6.819   6.798   7.929 -0.6193 -0.0806  0.0417
  164SAPE  H13Y18508   6.722   6.696   8.051  0.8017 -0.1018  1.3677
  164SAPE  C31418509   6.791   6.881   8.129 -0.7077 -0.1787 -0.1660
  164SAPE  H14X18510   6.719   6.877   8.213 -0.5064 -1.7807 -0.0724
  164SAPE  H14Y18511   6.801   6.989   8.105  1.2630  0.3776  2.8638
  164SAPE  C31518512   6.936   6.852   8.159  0.4835 -0.1152 -0.7019
  164SAPE  H15X18513   6.999   6.854   8.068  0.4306  0.4662 -0.7280
  164SAPE  H15Y18514   6.952   6.754   8.208  0.6014  0.6452  0.8385
  164SAPE  C31618515   6.997   6.964   8.248 -0.0458  0.0479  0.0674
  164SAPE  H16X18516   6.950   6.973   8.348 -0.5915 -0.3700 -0.1464
  164SAPE  H16Y18517   6.988   7.060   8.193  2.7236 -0.5912 -1.6415
  164SAPE  C31718518   7.144   6.940   8.270 -0.0156 -0.9250  0.6623
  164SAPE  H17X18519   7.188   6.925   8.169 -1.7304  0.1324 -0.2669
  164SAPE  H17Y18520   7.161   6.848   8.330 -1.5505 -2.1737 -0.7557
  164SAPE  C31818521   7.230   7.049   8.344 -0.2144 -0.2744  0.2972
  164SAPE  H18X18522   7.201   7.055   8.451 -1.7215 -0.7601 -0.0709
  164SAPE  H18Y18523   7.213   7.148   8.297  0.0775 -0.0474  0.6705
  164SAPE  H18Z18524   7.335   7.016   8.335 -0.4229 -0.7912 -0.2938
  165SAPE     N18525   6.594   3.462   6.446 -0.0932  0.1300  0.4754
  165SAPE   HN118526   6.677   3.516   6.414  0.7635 -0.9646  0.8084
  165SAPE   HN218527   6.543   3.528   6.508  2.1471  1.5192  0.8780
  165SAPE   HN318528   6.616   3.381   6.507 -1.1506 -1.8921 -1.7048
  165SAPE   C1218529   6.521   3.410   6.326 -0.0569 -0.6642 -0.5927
  165SAPE  H12A18530   6.597   3.364   6.259 -0.2576  1.5793 -2.4371
  165SAPE  H12B18531   6.473   3.490   6.266  2.6060  1.9306  0.6224
  165SAPE   C1118532   6.415   3.305   6.368 -0.2900 -0.4565  0.5224
  165SAPE  H11A18533   6.337   3.357   6.427  0.7258  1.4838  0.2086
  165SAPE  H11B18534   6.463   3.226   6.430  0.0588 -0.6296  0.0362
  165SAPE     P18535   6.239   3.289   6.182  0.1587 -0.0041  0.1659
  165SAPE   O1318536   6.240   3.436   6.168 -0.0346  0.0902  0.0203
  165SAPE   O1418537   6.208   3.206   6.064 -0.1947  0.1720  0.0719
  165SAPE   O1218538   6.364   3.238   6.248 -0.2576  0.1011 -0.0702
  165SAPE   O1118539   6.128   3.254   6.286 -0.5871  0.1997  0.0537
  165SAPE    C118540   6.079   3.119   6.294 -0.3347 -0.3138  0.5247
  165SAPE    HA18541   5.969   3.115   6.275 -0.0205  0.9660 -1.7006
  165SAPE    HB18542   6.131   3.046   6.228  2.3560  0.1735  2.0388
  165SAPE    C218543   6.087   3.068   6.444  0.4943  0.0269  0.8218
  165SAPE    HS18544   6.007   2.992   6.459 -1.4916  2.1780  1.4026
  165SAPE   O2118545   6.062   3.172   6.539 -0.0997 -0.0295 -0.0150
  165SAPE   C2118546   5.947   3.223   6.563 -0.4285 -0.5446  0.6791
  165SAPE   O2218547   5.844   3.191   6.499  0.3669  0.2160  0.6959
  165SAPE   C2218548   5.938   3.307   6.684 -0.2310 -0.0572 -0.0759
  165SAPE   H2R18549   6.045   3.316   6.715 -0.2147  0.7109 -0.3408
  165SAPE   H2S18550   5.891   3.404   6.657  2.3228  1.1204 -0.5151
  165SAPE    C318551   6.219   2.981   6.460 -0.0209 -0.2423 -0.6168
  165SAPE    HX18552   6.312   3.040   6.440  2.2092 -2.5200  2.6619
  165SAPE    HY18553   6.214   2.899   6.386  0.2375 -3.1447  2.4996
  165SAPE   O3118554   6.215   2.920   6.589 -0.2825  0.1947  0.3823
  165SAPE   C3118555   6.321   2.960   6.664 -0.0456  0.4268 -0.7119
  165SAPE   O3218556   6.403   3.042   6.633 -0.8387  0.0523 -0.3528
  165SAPE   C3218557   6.306   2.889   6.798 -0.1291 -0.1879 -0.1692
  165SAPE   H2X18558   6.400   2.905   6.855 -1.3042  0.9071  1.5174
  165SAPE   H2Y18559   6.315   2.784   6.762 -2.6218  0.3721 -2.5790
  165SAPE   C2318560   5.862   3.231   6.800 -0.4163 -0.4596 -0.0633
  165SAPE   H3R18561   5.921   3.142   6.831  2.2500  2.0912  2.4468
  165SAPE   H3S18562   5.772   3.189   6.750 -0.0042 -0.5831 -0.7008
  165SAPE   C2418563   5.813   3.325   6.904  0.5518 -0.2688 -0.5237
  165SAPE   H4R18564   5.756   3.266   6.979  1.8966 -1.4568 -0.4008
  165SAPE   H4S18565   5.747   3.400   6.858  1.5216  1.2117  0.4507
  165SAPE   C2518566   5.932   3.389   6.968 -0.2684 -0.1380 -0.0274
  165SAPE   H5R18567   5.983   3.465   6.907  1.6291 -1.7416 -0.5149
  165SAPE   C2618568   5.986   3.357   7.082 -0.0792 -0.6150  0.0563
  165SAPE   H6R18569   6.064   3.427   7.117 -0.7710 -1.4919  3.6135
  165SAPE   C2718570   5.947   3.251   7.184 -0.5226  0.2773  0.0405
  165SAPE   H7R18571   5.895   3.160   7.145  2.9438 -1.7739 -0.0329
  165SAPE   H7S18572   5.879   3.301   7.255 -1.7250 -1.3818  0.0738
  165SAPE   C2818573   6.068   3.212   7.269  0.4714  0.4879 -0.2095
  165SAPE   H8R18574   6.166   3.218   7.219  0.9091  0.7600  0.6769
  165SAPE   C2918575   6.073   3.157   7.393 -0.4020 -0.2341  0.4554
  165SAPE   H9R18576   6.170   3.145   7.444 -0.0817 -1.1550 -0.3628
  165SAPE  C21018577   5.961   3.119   7.489  0.2089  0.2863  0.5232
  165SAPE  H10R18578   5.946   3.009   7.481 -2.2309  0.6786 -1.0515
  165SAPE  H10S18579   5.864   3.158   7.451  1.4212  1.2277 -1.7201
  165SAPE  C21118580   5.971   3.142   7.638  0.1451 -0.0605  0.9706
  165SAPE  H11R18581   5.898   3.211   7.682  0.7222 -0.5364  2.7168
  165SAPE  C21218582   6.038   3.067   7.734  0.0498  0.0452  0.7065
  165SAPE  H12R18583   6.019   3.094   7.839 -0.5835 -1.3542  0.9587
  165SAPE  C21318584   6.126   2.949   7.717  0.1127 -0.1339  0.1255
  165SAPE  H13R18585   6.137   2.931   7.608 -3.8447  1.6411 -0.6617
  165SAPE  H13S18586   6.080   2.854   7.752  0.1786 -0.6254 -1.0974
  165SAPE  C21418587   6.267   2.970   7.781 -0.4653 -0.1841 -0.3569
  165SAPE  H14R18588   6.272   2.973   7.891 -0.4273  1.4574 -0.3872
  165SAPE  C21518589   6.386   2.987   7.710 -0.7412 -0.0105  0.4855
  165SAPE  H15R18590   6.476   2.986   7.772  0.6826 -1.4200 -1.5382
  165SAPE  C21618591   6.411   2.984   7.561 -0.0248  0.3487  0.6125
  165SAPE  H16R18592   6.515   3.018   7.539 -0.3131  1.4509  0.9213
  165SAPE  H16S18593   6.335   3.052   7.517 -0.1063  0.1504  0.4480
  165SAPE  C21718594   6.381   2.845   7.496  0.1298 -0.0482  0.0366
  165SAPE  H17R18595   6.273   2.819   7.502 -0.1306  1.2508  0.9295
  165SAPE  H17S18596   6.442   2.765   7.544  0.2917 -1.2505 -2.0994
  165SAPE  C21818597   6.407   2.836   7.342  0.6227 -0.2440  0.0670
  165SAPE  H18R18598   6.353   2.922   7.298 -0.0821 -1.0214 -0.6309
  165SAPE  H18S18599   6.359   2.740   7.311  2.3694 -0.8530 -0.8253
  165SAPE  C21918600   6.556   2.838   7.303  0.3374  0.6779 -0.2293
  165SAPE  H19R18601   6.612   2.757   7.355  0.2464 -0.9064 -2.5108
  165SAPE  H19S18602   6.603   2.932   7.339 -0.7614  0.3818  2.0894
  165SAPE  C22018603   6.573   2.835   7.151 -0.0019 -0.1550  0.3463
  165SAPE  H20R18604   6.533   2.742   7.106  0.4780 -0.1977  0.0072
  165SAPE  H20S18605   6.681   2.842   7.130 -0.0468 -1.5861 -0.4338
  165SAPE  H20T18606   6.511   2.923   7.124  0.7565  1.9898  5.1292
  165SAPE   C3318607   6.189   2.927   6.880 -0.6141  0.2314 -0.0614
  165SAPE   H3X18608   6.092   2.933   6.827 -0.0595 -0.3013 -1.1483
  165SAPE   H3Y18609   6.199   3.031   6.918 -0.3341 -0.5013  1.8914
  165SAPE   C3418610   6.188   2.828   6.990 -0.2968 -0.4772 -0.0580
  165SAPE   H4X18611   6.284   2.847   7.043  0.5095 -2.2929 -0.8186
  165SAPE   H4Y18612   6.183   2.723   6.953  2.1412 -0.0038 -1.8823
  165SAPE   C3518613   6.072   2.844   7.088 -0.6394  0.0814 -0.2427
  165SAPE   H5X18614   5.979   2.828   7.030 -0.2403 -1.1509 -0.5669
  165SAPE   H5Y18615   6.079   2.945   7.134  3.1266  0.7825 -2.1418
  165SAPE   C3618616   6.057   2.737   7.195 -0.3202 -0.1495 -0.2360
  165SAPE   H6X18617   6.144   2.752   7.262 -0.6006 -2.3125  0.6747
  165SAPE   H6Y18618   6.084   2.635   7.160  1.9462  0.3054  0.1172
  165SAPE   C3718619   5.924   2.749   7.264  0.0580 -0.3648 -0.3705
  165SAPE   H7X18620   5.840   2.737   7.192  1.1683 -2.1299 -1.4137
  165SAPE   H7Y18621   5.921   2.855   7.296  3.0278 -0.4242  0.2675
  165SAPE   C3818622   5.912   2.667   7.385 -0.2944  0.3705  0.0045
  165SAPE   H8X18623   5.990   2.689   7.461 -0.6522  0.4822  0.3475
  165SAPE   H8Y18624   5.899   2.557   7.371  0.0292  0.2278  0.7667
  165SAPE   C3918625   5.789   2.718   7.469  0.5456  0.0692 -0.0358
  165SAPE   H9X18626   5.700   2.735   7.405 -0.0992  1.0825  1.1228
  165SAPE   H9Y18627   5.807   2.820   7.509  0.8395 -0.5287  1.3779
  165SAPE  C31018628   5.769   2.631   7.600 -0.0202  0.0653 -0.2688
  165SAPE  H10X18629   5.861   2.591   7.648 -0.7798  2.9830  3.8867
  165SAPE  H10Y18630   5.712   2.541   7.570 -0.0018  0.6169 -2.0024
  165SAPE  C31118631   5.697   2.708   7.714 -0.0107 -0.0407 -1.2577
  165SAPE  H11X18632   5.588   2.726   7.701  0.3329  4.4442  0.8196
  165SAPE  H11Y18633   5.730   2.814   7.726 -1.8648  0.7339 -2.6983
  165SAPE  C31218634   5.727   2.645   7.852  0.2870  0.0323  0.1854
  165SAPE  H12X18635   5.834   2.665   7.874  0.6397 -3.8394  2.5319
  165SAPE  H12Y18636   5.709   2.536   7.839 -0.2895  0.1462 -0.0098
  165SAPE  C31318637   5.651   2.694   7.974  0.2642  0.1117  0.2679
  165SAPE  H13X18638   5.661   2.616   8.052  1.4861  0.5995  0.6170
  165SAPE  H13Y18639   5.545   2.709   7.946 -0.0142 -1.1030  0.6433
  165SAPE  C31418640   5.703   2.828   8.016 -0.2929 -0.5420 -0.1294
  165SAPE  H14X18641   5.657   2.894   7.939  1.6104 -0.6789 -1.4124
  165SAPE  H14Y18642   5.812   2.842   8.003 -0.6685  0.9867 -1.8397
  165SAPE  C31518643   5.666   2.874   8.160  0.4510  0.6418  0.2044
  165SAPE  H15X18644   5.684   2.789   8.229 -4.1983 -2.9938 -2.7694
  165SAPE  H15Y18645   5.555   2.881   8.170  0.4620  0.7625  0.2451
  165SAPE  C31618646   5.751   2.986   8.219 -0.0513 -1.0988  0.1904
  165SAPE  H16X18647   5.858   2.954   8.224 -0.2042 -1.9845 -1.7633
  165SAPE  H16Y18648   5.724   3.019   8.321 -0.0353 -1.2403  0.2410
  165SAPE  C31718649   5.754   3.105   8.118  0.1306 -0.4988  0.2668
  165SAPE  H17X18650   5.654   3.133   8.078  0.9197  1.4648 -0.4111
  165SAPE  H17Y18651   5.812   3.076   8.027 -0.2047  0.2153 -0.1758
  165SAPE  C31818652   5.816   3.238   8.176  0.6499  0.8004 -0.9742
  165SAPE  H18X18653   5.814   3.319   8.101 -1.8000 -0.1459 -1.9870
  165SAPE  H18Y18654   5.916   3.231   8.223  0.2111 -0.7298 -0.2367
  165SAPE  H18Z18655   5.744   3.261   8.258  1.0491  1.1898 -0.7296
  166SAPE     N18656   4.868   6.524   5.840 -0.2485  0.1318 -0.5559
  166SAPE   HN118657   4.778   6.524   5.893  0.8487  0.6336  1.3414
  166SAPE   HN218658   4.846   6.589   5.762 -1.4844  2.5837  1.7791
  166SAPE   HN318659   4.890   6.428   5.808  0.9144  0.8254 -1.9029
  166SAPE   C1218660   4.976   6.587   5.913  0.0346  0.0967  0.8726
  166SAPE  H12A18661   4.994   6.532   6.008  0.2617 -0.1841  0.6686
  166SAPE  H12B18662   4.956   6.695   5.928  1.6020  0.2333  2.0943
  166SAPE   C1118663   5.106   6.562   5.830 -0.1465 -0.4812  0.7704
  166SAPE  H11A18664   5.176   6.646   5.844 -1.1262  0.5530 -0.3554
  166SAPE  H11B18665   5.090   6.576   5.721  2.7501 -2.1601  0.0804
  166SAPE     P18666   5.290   6.413   5.942  0.4752 -0.3025  0.7582
  166SAPE   O1318667   5.318   6.266   5.961 -0.8546  0.3411 -0.0172
  166SAPE   O1418668   5.390   6.507   5.892  0.2302 -0.2435  0.5187
  166SAPE   O1218669   5.165   6.431   5.849 -0.2714  0.7431  0.3846
  166SAPE   O1118670   5.243   6.478   6.080  0.1581  0.5361  0.0951
  166SAPE    C118671   5.173   6.391   6.165 -0.4573  0.0787  0.0178
  166SAPE    HA18672   5.080   6.354   6.118 -0.1725 -0.8000  0.1366
  166SAPE    HB18673   5.222   6.292   6.181  2.7793  0.6484 -5.0211
  166SAPE    C218674   5.135   6.449   6.303 -0.2294  0.5152 -0.3255
  166SAPE    HS18675   5.075   6.539   6.277  0.7923  1.3741  0.2884
  166SAPE   O2118676   5.250   6.496   6.366 -0.6924 -0.1090  0.5077
  166SAPE   C2118677   5.226   6.574   6.473 -0.1616  0.5102  0.1450
  166SAPE   O2218678   5.115   6.605   6.517 -0.6323  1.0111 -0.1388
  166SAPE   C2218679   5.358   6.626   6.525  0.1055 -0.0471 -0.4300
  166SAPE   H2R18680   5.436   6.564   6.477  0.4622  0.3234 -0.3332
  166SAPE   H2S18681   5.373   6.731   6.491 -0.6448  0.2339  0.0852
  166SAPE    C318682   5.065   6.349   6.390  0.1328  0.6090  0.1789
  166SAPE    HX18683   4.982   6.300   6.335  0.5266  0.1511 -0.0154
  166SAPE    HY18684   5.016   6.394   6.478  0.3344  1.7648 -0.2915
  166SAPE   O3118685   5.143   6.228   6.414 -0.0047 -0.4352 -0.3545
  166SAPE   C3118686   5.098   6.154   6.518  0.3284 -0.4893 -0.2509
  166SAPE   O3218687   4.999   6.191   6.586 -0.4667 -0.1562  0.2141
  166SAPE   C3218688   5.201   6.044   6.547  0.4816  0.3242  0.0686
  166SAPE   H2X18689   5.304   6.082   6.529  0.3705  0.4049 -0.4035
  166SAPE   H2Y18690   5.186   5.966   6.469  0.2735  0.9497 -0.5188
  166SAPE   C2318691   5.363   6.631   6.685 -0.1104 -0.0019  1.1376
  166SAPE   H3R18692   5.355   6.526   6.719  0.2740 -1.0564 -1.8959
  166SAPE   H3S18693   5.273   6.681   6.727 -0.0454  1.2842 -0.2316
  166SAPE   C2418694   5.488   6.688   6.753  0.1798 -0.2180 -0.0256
  166SAPE   H4R18695   5.451   6.692   6.857 -0.4996  1.2026 -0.3042
  166SAPE   H4S18696   5.502   6.795   6.724  1.7308 -0.6967 -1.1550
  166SAPE   C2518697   5.615   6.607   6.739 -0.3027 -0.2707 -0.6994
  166SAPE   H5R18698   5.666   6.607   6.642 -0.7862  1.1107 -0.9646
  166SAPE   C2618699   5.685   6.541   6.834  0.2656 -0.0231 -0.3564
  166SAPE   H6R18700   5.774   6.482   6.806  0.2738  0.4809 -1.3999
  166SAPE   C2718701   5.646   6.532   6.980 -0.5610  0.5754  0.3627
  166SAPE   H7R18702   5.719   6.468   7.035 -0.0737  0.0736 -0.8599
  166SAPE   H7S18703   5.546   6.486   6.990 -1.8388  2.2496 -3.8136
  166SAPE   C2818704   5.635   6.667   7.053  0.0042  0.6087 -0.2900
  166SAPE   H8R18705   5.636   6.752   6.983 -1.0041  2.0940  1.4739
  166SAPE   C2918706   5.622   6.699   7.180  0.1731  0.4832 -0.2664
  166SAPE   H9R18707   5.613   6.805   7.207  1.1034  0.4278  0.2707
  166SAPE  C21018708   5.630   6.604   7.301 -0.2095 -0.2553  0.1551
  166SAPE  H10R18709   5.652   6.503   7.261 -0.0059  0.7789 -2.4442
  166SAPE  H10S18710   5.528   6.581   7.339 -0.5609 -0.2573 -0.7555
  166SAPE  C21118711   5.730   6.653   7.407  0.9127  0.1944  0.0544
  166SAPE  H11R18712   5.825   6.688   7.364  2.3240  2.1136  4.4700
  166SAPE  C21218713   5.724   6.655   7.540  0.0394 -0.6969 -0.5171
  166SAPE  H12R18714   5.807   6.683   7.606 -0.7227 -1.6887  0.8723
  166SAPE  C21318715   5.615   6.625   7.632  0.0125  0.1573  0.1209
  166SAPE  H13R18716   5.519   6.622   7.575 -0.9470  1.7509  1.6268
  166SAPE  H13S18717   5.593   6.703   7.707 -0.2175  1.8423 -1.6478
  166SAPE  C21418718   5.640   6.494   7.691  0.2043 -0.2383 -0.1079
  166SAPE  H14R18719   5.608   6.412   7.626 -1.2342 -0.4646  0.8615
  166SAPE  C21518720   5.681   6.469   7.814 -0.5525 -0.2174  0.2051
  166SAPE  H15R18721   5.690   6.363   7.842  1.1936 -0.3011 -0.6012
  166SAPE  C21618722   5.730   6.575   7.916 -0.1228  0.2532 -0.2212
  166SAPE  H16R18723   5.738   6.677   7.874  1.4211  1.0479  2.0065
  166SAPE  H16S18724   5.827   6.543   7.958 -0.8715  0.1419  1.4504
  166SAPE  C21718725   5.639   6.600   8.037  0.1237 -0.4365  0.1263
  166SAPE  H17R18726   5.539   6.634   8.001  1.4929  0.3437 -3.0891
  166SAPE  H17S18727   5.677   6.687   8.096 -1.5679  1.3025 -1.2732
  166SAPE  C21818728   5.610   6.484   8.131  0.4094  0.1957  0.6674
  166SAPE  H18R18729   5.703   6.430   8.158  1.2240  1.8361  1.1509
  166SAPE  H18S18730   5.557   6.405   8.073 -1.7489  1.0654  1.4104
  166SAPE  C21918731   5.526   6.529   8.250 -0.6249 -0.1092 -0.2313
  166SAPE  H19R18732   5.442   6.589   8.212  0.4752  1.3276 -0.4373
  166SAPE  H19S18733   5.599   6.585   8.312  0.8667 -3.8261  1.5428
  166SAPE  C22018734   5.475   6.404   8.332  0.2495  0.3007 -0.4125
  166SAPE  H20R18735   5.443   6.319   8.267 -0.0570  0.1794 -0.1048
  166SAPE  H20S18736   5.393   6.443   8.396  1.8817  0.0076  1.8824
  166SAPE  H20T18737   5.556   6.362   8.394 -1.0545 -2.7693 -0.6816
  166SAPE   C3318738   5.193   5.969   6.679 -0.2119 -0.9111 -0.4712
  166SAPE   H3X18739   5.260   5.881   6.676  1.0957  0.0035  0.8638
  166SAPE   H3Y18740   5.087   5.939   6.688 -0.6039 -0.1181 -2.1324
  166SAPE   C3418741   5.236   6.037   6.806 -0.3033 -0.4405  0.0259
  166SAPE   H4X18742   5.227   5.967   6.892 -0.4911 -0.8944 -0.3537
  166SAPE   H4Y18743   5.167   6.123   6.822 -0.7803 -0.6459 -0.8640
  166SAPE   C3518744   5.382   6.089   6.799 -0.0409  0.0580 -0.0567
  166SAPE   H5X18745   5.396   6.157   6.712 -4.0402  1.0231 -0.0208
  166SAPE   H5Y18746   5.440   5.998   6.772  0.4935  0.6712 -1.0230
  166SAPE   C3618747   5.429   6.149   6.935  0.1248  0.6784  0.1495
  166SAPE   H6X18748   5.405   6.081   7.019  1.5404  0.0719  0.0754
  166SAPE   H6Y18749   5.388   6.251   6.951  2.0681  1.6535 -0.8646
  166SAPE   C3718750   5.583   6.144   6.928 -0.2716  0.2577  0.4432
  166SAPE   H7X18751   5.610   6.213   6.845 -1.7242  0.8597  0.4475
  166SAPE   H7Y18752   5.608   6.039   6.904  1.9352  1.1619 -1.5549
  166SAPE   C3818753   5.658   6.195   7.049  0.0595 -0.3398  0.5294
  166SAPE   H8X18754   5.603   6.284   7.086 -3.3152 -1.3591 -1.7269
  166SAPE   H8Y18755   5.755   6.237   7.015 -0.4728  0.7991  0.4068
  166SAPE   C3918756   5.665   6.099   7.168 -0.7663  1.2748  0.0066
  166SAPE   H9X18757   5.729   6.009   7.155 -1.4328  0.8567 -0.3972
  166SAPE   H9Y18758   5.567   6.058   7.199 -0.4451 -0.0279 -0.6550
  166SAPE  C31018759   5.710   6.177   7.297  0.6137  0.2697  0.7854
  166SAPE  H10X18760   5.673   6.281   7.290  1.9701  0.8441  1.9239
  166SAPE  H10Y18761   5.820   6.191   7.291  0.5262  0.9017  0.6523
  166SAPE  C31118762   5.684   6.119   7.430 -0.2150 -0.1710  0.0308
  166SAPE  H11X18763   5.753   6.179   7.494 -0.8104  1.0227 -0.4343
  166SAPE  H11Y18764   5.737   6.021   7.435 -1.5960 -0.9666 -0.6541
  166SAPE  C31218765   5.545   6.128   7.485  0.0836  0.6888 -0.5442
  166SAPE  H12X18766   5.469   6.072   7.427  0.9086 -1.4300  0.3410
  166SAPE  H12Y18767   5.524   6.237   7.482  2.6398  1.2451  0.1950
  166SAPE  C31318768   5.540   6.087   7.637  0.2369 -0.2125  0.6537
  166SAPE  H13X18769   5.633   6.109   7.694  1.0876 -1.7014 -0.1396
  166SAPE  H13Y18770   5.528   5.977   7.637 -0.5452 -0.1450 -1.3910
  166SAPE  C31418771   5.424   6.137   7.716 -0.0002 -0.1354 -0.3782
  166SAPE  H14X18772   5.327   6.105   7.671  0.0331 -0.0094 -0.5421
  166SAPE  H14Y18773   5.433   6.248   7.713 -1.7124  0.0148 -0.4335
  166SAPE  C31518774   5.423   6.080   7.859 -0.6136 -0.2098 -0.1459
  166SAPE  H15X18775   5.517   6.112   7.909 -1.9180  2.4227  0.7080
  166SAPE  H15Y18776   5.415   5.969   7.854 -0.0996 -0.3491  1.7551
  166SAPE  C31618777   5.315   6.133   7.952  0.1242  0.2151 -0.2091
  166SAPE  H16X18778   5.220   6.129   7.895 -0.7754  1.4860  1.1416
  166SAPE  H16Y18779   5.334   6.240   7.975 -2.1671  0.4557  0.7595
  166SAPE  C31718780   5.300   6.058   8.083  0.1602 -1.1334  0.0056
  166SAPE  H17X18781   5.263   6.131   8.158 -1.2896 -0.8801 -0.9199
  166SAPE  H17Y18782   5.399   6.018   8.112  0.4829 -0.1402  0.2863
  166SAPE  C31818783   5.201   5.948   8.064  0.2598 -0.1356 -0.0510
  166SAPE  H18X18784   5.214   5.918   7.958 -0.8488 -2.2488  0.3902
  166SAPE  H18Y18785   5.097   5.980   8.084  0.4664  2.4439 -2.9083
  166SAPE  H18Z18786   5.220   5.862   8.133  1.0657  0.6286  0.6880
  167SAPE     N18787   6.544   5.361   5.924 -0.5074 -0.2648 -0.4682
  167SAPE   HN118788   6.523   5.286   5.993  3.1393  1.3712  2.6160
  167SAPE   HN218789   6.508   5.452   5.960 -0.5733 -1.0174  1.4351
  167SAPE   HN318790   6.496   5.336   5.835 -2.3767 -0.0055  0.4623
  167SAPE   C1218791   6.694   5.362   5.899  1.7127  0.5621  0.2473
  167SAPE  H12A18792   6.709   5.443   5.823  0.3113  1.0930  0.5238
  167SAPE  H12B18793   6.718   5.269   5.844 -0.6988  0.7439 -1.1920
  167SAPE   C1118794   6.777   5.371   6.025 -0.1287 -0.1588 -0.2941
  167SAPE  H11A18795   6.886   5.362   6.006 -0.1485  0.5196 -0.7087
  167SAPE  H11B18796   6.757   5.278   6.083 -0.7047  0.2888  0.2312
  167SAPE     P18797   6.810   5.618   6.083  0.2865 -0.1724 -0.7723
  167SAPE   O1318798   6.905   5.614   5.975 -0.5092  0.2997 -0.2613
  167SAPE   O1418799   6.708   5.720   6.083 -0.1687 -0.6040  0.2001
  167SAPE   O1218800   6.735   5.483   6.094  0.3351  0.3948 -0.1505
  167SAPE   O1118801   6.891   5.623   6.217 -0.3583  0.0960  0.5057
  167SAPE    C118802   6.857   5.553   6.331 -0.0215  0.0466  0.5641
  167SAPE    HA18803   6.823   5.449   6.313  0.5088 -0.0671  0.1853
  167SAPE    HB18804   6.950   5.538   6.390  1.7430  0.1575 -2.0649
  167SAPE    C218805   6.753   5.628   6.413  0.0976  0.0955 -0.0356
  167SAPE    HS18806   6.659   5.626   6.353  0.2436  1.9274 -0.3656
  167SAPE   O2118807   6.806   5.759   6.445 -0.2837 -0.0920  0.1779
  167SAPE   C2118808   6.719   5.828   6.517  0.1517  0.0533 -0.4751
  167SAPE   O2218809   6.603   5.804   6.539 -0.3182  0.0420 -0.7385
  167SAPE   C2218810   6.787   5.954   6.569  0.0913 -0.2766 -0.0494
  167SAPE   H2R18811   6.853   5.988   6.486 -0.8756 -1.5819 -1.3830
  167SAPE   H2S18812   6.706   6.030   6.578  1.3037  1.4193 -2.7493
  167SAPE    C318813   6.727   5.543   6.531 -0.0724 -0.2967 -0.0635
  167SAPE    HX18814   6.689   5.445   6.495  1.3974 -0.4970 -1.1289
  167SAPE    HY18815   6.635   5.565   6.590  0.6747 -2.3038  1.9363
  167SAPE   O3118816   6.841   5.525   6.627  0.2046  0.0874  0.0251
  167SAPE   C3118817   6.827   5.420   6.705  0.3256 -0.4039  0.2943
  167SAPE   O3218818   6.737   5.341   6.696  0.2222 -0.0758 -0.0059
  167SAPE   C3218819   6.961   5.406   6.785  0.4139 -0.2732  0.4630
  167SAPE   H2X18820   6.993   5.505   6.825 -1.1836  0.4917 -0.0726
  167SAPE   H2Y18821   7.035   5.365   6.713 -0.0253 -0.6446  0.2218
  167SAPE   C2318822   6.843   5.930   6.716 -0.0454 -0.2061 -0.2091
  167SAPE   H3R18823   6.954   5.933   6.712 -0.0541  2.5949  0.4195
  167SAPE   H3S18824   6.815   5.829   6.752 -0.3001  0.8728  2.7805
  167SAPE   C2418825   6.800   6.038   6.819 -0.2470  0.0882  0.3428
  167SAPE   H4R18826   6.805   6.135   6.764  1.0563 -0.2170 -0.0755
  167SAPE   H4S18827   6.869   6.039   6.905  1.8144  0.7469 -1.2614
  167SAPE   C2518828   6.664   6.005   6.872 -0.7774 -0.9890 -1.3978
  167SAPE   H5R18829   6.658   5.902   6.910 -0.6950 -0.1873  0.8524
  167SAPE   C2618830   6.558   6.089   6.880  0.1198  0.0846 -0.4989
  167SAPE   H6R18831   6.480   6.056   6.951  2.6132 -3.1010  0.8420
  167SAPE   C2718832   6.552   6.235   6.833 -0.4932 -0.4225  0.8072
  167SAPE   H7R18833   6.654   6.268   6.805 -0.0172 -1.8041  0.8941
  167SAPE   H7S18834   6.524   6.291   6.924 -0.8433 -2.1741  1.8027
  167SAPE   C2818835   6.454   6.272   6.725 -0.4543  0.2660  0.4134
  167SAPE   H8R18836   6.491   6.242   6.626 -0.7552 -0.6773  0.5815
  167SAPE   C2918837   6.325   6.321   6.733 -0.0859 -0.4424 -1.1980
  167SAPE   H9R18838   6.264   6.344   6.644  0.5337 -0.3079 -1.5874
  167SAPE  C21018839   6.266   6.353   6.870 -0.0986 -0.5499 -0.0546
  167SAPE  H10R18840   6.332   6.418   6.930  0.2959 -2.6135  1.8265
  167SAPE  H10S18841   6.261   6.261   6.932 -0.9133 -0.4089  0.0967
  167SAPE  C21118842   6.124   6.416   6.863  0.1590  0.3461  0.4435
  167SAPE  H11R18843   6.085   6.418   6.760  3.5038 -1.1720 -0.8946
  167SAPE  C21218844   6.051   6.447   6.971  0.4921 -0.0011 -0.0385
  167SAPE  H12R18845   5.946   6.481   6.964 -0.1646 -2.0463 -0.4591
  167SAPE  C21318846   6.095   6.436   7.110  0.2003 -0.4952 -0.0245
  167SAPE  H13R18847   6.165   6.515   7.145 -0.4538  0.1238 -0.0980
  167SAPE  H13S18848   6.154   6.343   7.124  3.0673  1.3963  0.9866
  167SAPE  C21418849   5.978   6.425   7.209  0.0011 -0.4746  0.2763
  167SAPE  H14R18850   5.884   6.383   7.171 -1.2646  0.3272  2.4985
  167SAPE  C21518851   5.987   6.447   7.341  0.3628  0.1190 -0.1887
  167SAPE  H15R18852   5.900   6.419   7.402 -0.8127 -2.2712 -2.7809
  167SAPE  C21618853   6.108   6.489   7.419  0.3325 -0.1867  0.1851
  167SAPE  H16R18854   6.186   6.535   7.355 -1.1793  1.4127 -0.5269
  167SAPE  H16S18855   6.157   6.404   7.471 -2.7470 -1.5359  1.0329
  167SAPE  C21718856   6.068   6.584   7.530 -0.4387  0.1513 -0.1986
  167SAPE  H17R18857   5.970   6.551   7.571  1.1307 -2.0255  1.9062
  167SAPE  H17S18858   6.064   6.679   7.473  1.8541 -0.4804 -1.4727
  167SAPE  C21818859   6.178   6.598   7.636  0.0622 -0.5360 -0.0669
  167SAPE  H18R18860   6.162   6.690   7.697 -0.6962 -1.2454  0.8109
  167SAPE  H18S18861   6.273   6.622   7.585  0.2465 -0.0752  0.4871
  167SAPE  C21918862   6.192   6.475   7.733  0.2762  0.3250 -1.3967
  167SAPE  H19R18863   6.276   6.479   7.805 -2.2925  0.3131  1.6763
  167SAPE  H19S18864   6.213   6.388   7.667  3.4244 -0.4090  0.4967
  167SAPE  C22018865   6.069   6.441   7.823 -0.5592  0.4571  0.5446
  167SAPE  H20R18866   6.039   6.534   7.877  0.1208  0.6244  0.6417
  167SAPE  H20S18867   6.094   6.356   7.890 -2.0358 -0.2439  0.2113
  167SAPE  H20T18868   5.991   6.410   7.750  2.0055 -3.3658 -0.7237
  167SAPE   C3318869   6.942   5.303   6.907  0.2417 -0.7149  0.3954
  167SAPE   H3X18870   6.925   5.206   6.855 -0.8510 -0.4707  0.2846
  167SAPE   H3Y18871   6.847   5.325   6.960 -0.7001 -0.9524 -1.1418
  167SAPE   C3418872   7.055   5.293   7.003  0.1320  0.3703 -0.4943
  167SAPE   H4X18873   7.089   5.391   7.041  2.0696 -0.9230  1.2491
  167SAPE   H4Y18874   7.139   5.243   6.950  0.2731  1.1295 -0.9965
  167SAPE   C3518875   7.019   5.220   7.138 -0.1230 -0.1434 -0.1945
  167SAPE   H5X18876   6.975   5.120   7.119  0.0529 -0.4685  1.0924
  167SAPE   H5Y18877   6.934   5.275   7.183  0.5671  0.3880  0.4729
  167SAPE   C3618878   7.143   5.209   7.228  0.0991 -0.3395 -0.0845
  167SAPE   H6X18879   7.192   5.307   7.245 -0.5104  0.0363 -0.4845
  167SAPE   H6Y18880   7.208   5.136   7.176 -0.8718 -1.5455  0.3476
  167SAPE   C3718881   7.114   5.171   7.373  0.1362  0.8132  0.0547
  167SAPE   H7X18882   7.065   5.072   7.373 -0.1619  0.9614  0.2673
  167SAPE   H7Y18883   7.036   5.243   7.406  1.1720  2.1180 -0.2772
  167SAPE   C3818884   7.233   5.177   7.456 -0.0253 -0.0677  0.1562
  167SAPE   H8X18885   7.267   5.282   7.460 -0.5336  0.1544 -1.1785
  167SAPE   H8Y18886   7.312   5.110   7.416  0.5796 -0.1777  1.4968
  167SAPE   C3918887   7.216   5.138   7.605  0.1650  0.0482  0.1805
  167SAPE   H9X18888   7.167   5.040   7.622 -0.8028  0.7098  1.3171
  167SAPE   H9Y18889   7.143   5.216   7.636  1.5162  1.8178 -0.9877
  167SAPE  C31018890   7.338   5.154   7.693  0.2837  0.2295  0.2470
  167SAPE  H10X18891   7.349   5.264   7.694  0.3909  0.2130  0.7464
  167SAPE  H10Y18892   7.422   5.102   7.642  0.2721 -0.1908  0.6507
  167SAPE  C31118893   7.322   5.099   7.832 -0.5366 -0.2357  0.1235
  167SAPE  H11X18894   7.422   5.075   7.875 -0.4395 -0.6507 -0.3234
  167SAPE  H11Y18895   7.256   5.010   7.826  1.2189 -1.6624  1.2516
  167SAPE  C31218896   7.270   5.210   7.930  0.5842  0.1991 -0.0950
  167SAPE  H12X18897   7.263   5.162   8.030  0.1538  1.7779  0.6533
  167SAPE  H12Y18898   7.169   5.237   7.892 -0.0864 -0.5037  1.1491
  167SAPE  C31318899   7.352   5.335   7.947  0.1745 -0.5219  0.7336
  167SAPE  H13X18900   7.363   5.388   7.850  0.3689  0.2788  1.1889
  167SAPE  H13Y18901   7.458   5.317   7.975  1.0645 -0.4633 -2.4207
  167SAPE  C31418902   7.281   5.438   8.040 -0.2527  0.4598  0.3024
  167SAPE  H14X18903   7.181   5.441   7.989  0.2768 -2.2486 -1.0047
  167SAPE  H14Y18904   7.329   5.538   8.033  0.2659  0.4660  3.3614
  167SAPE  C31518905   7.265   5.395   8.189 -0.0166 -0.2236  0.5783
  167SAPE  H15X18906   7.204   5.302   8.188  0.0374 -0.2716 -2.3460
  167SAPE  H15Y18907   7.214   5.468   8.255 -3.2777 -0.3106 -1.7725
  167SAPE  C31618908   7.393   5.347   8.257  0.8898  0.5116 -0.2088
  167SAPE  H16X18909   7.457   5.437   8.269 -0.6521  1.5158  0.7550
  167SAPE  H16Y18910   7.418   5.263   8.189 -1.0525 -0.3098  0.0344
  167SAPE  C31718911   7.369   5.290   8.396 -0.5598 -0.6554 -0.6735
  167SAPE  H17X18912   7.325   5.189   8.385 -0.4372 -0.5642 -2.1278
  167SAPE  H17Y18913   7.308   5.366   8.448  2.0533 -0.2644  1.9327
  167SAPE  C31818914   7.493   5.263   8.477  0.4024  0.1473 -0.0875
  167SAPE  H18X18915   7.484   5.235   8.585 -1.9723 -0.9962 -0.5494
  167SAPE  H18Y18916   7.549   5.359   8.480  2.2092 -0.8964  0.4184
  167SAPE  H18Z18917   7.555   5.188   8.423 -1.7646 -0.4787 -1.7610
  168SAPE     N18918   1.207   0.063   6.602 -0.6234  0.4749  0.3636
  168SAPE   HN118919   1.113   0.066   6.557  1.3680 -0.7082 -4.1731
  168SAPE   HN218920   1.249  -0.030   6.583 -1.0213 -0.0994  2.2258
  168SAPE   HN318921   1.194   0.083   6.703  2.2559 -0.8997  1.0707
  168SAPE   C1218922   1.280   0.175   6.534 -0.9090 -0.3912  0.4361
  168SAPE  H12A18923   1.385   0.162   6.570 -0.9164  0.1747  0.6611
  168SAPE  H12B18924   1.232   0.269   6.568 -1.4355 -0.2064 -0.8113
  168SAPE   C1118925   1.272   0.166   6.386 -0.2542 -0.3234  0.1577
  168SAPE  H11A18926   1.312   0.259   6.340 -2.1291  0.2010 -0.4199
  168SAPE  H11B18927   1.165   0.157   6.360  0.1220 -0.7912 -1.2702
  168SAPE     P18928   1.481   0.045   6.302 -0.2632  0.8739 -0.7865
  168SAPE   O1318929   1.540  -0.093   6.307 -0.7781 -0.1636  0.1108
  168SAPE   O1418930   1.496   0.119   6.180  0.1124  0.4464 -0.2250
  168SAPE   O1218931   1.333   0.043   6.351 -0.4804 -0.1190 -0.0311
  168SAPE   O1118932   1.552   0.125   6.414 -0.4330  0.0650  0.0272
  168SAPE    C118933   1.696   0.123   6.420 -0.2930  0.5451 -0.1893
  168SAPE    HA18934   1.738   0.021   6.434 -0.9709  0.3258  0.2301
  168SAPE    HB18935   1.738   0.154   6.322 -2.4064 -0.6318 -1.4856
  168SAPE    C218936   1.748   0.229   6.529  0.1810  0.7363 -0.8743
  168SAPE    HS18937   1.852   0.206   6.559 -1.3023 -1.0990  3.2932
  168SAPE   O2118938   1.665   0.226   6.652  0.1772 -0.5975 -0.6881
  168SAPE   C2118939   1.691   0.128   6.742 -0.2025 -0.7415 -0.0436
  168SAPE   O2218940   1.789   0.061   6.732  0.3219  0.1244  0.3037
  168SAPE   C2218941   1.576   0.105   6.834  0.4386  0.4419 -0.7180
  168SAPE   H2R18942   1.595   0.187   6.907 -0.0382  0.0108 -0.1025
  168SAPE   H2S18943   1.477   0.111   6.785  0.2069 -2.2139 -0.6526
  168SAPE    C318944   1.732   0.367   6.483 -0.3057  0.0123 -0.9747
  168SAPE    HX18945   1.622   0.379   6.471 -0.6602 -1.2121  0.8437
  168SAPE    HY18946   1.781   0.391   6.386 -0.2868 -0.5283 -1.0986
  168SAPE   O3118947   1.768   0.468   6.586  0.1085 -0.5230 -0.3336
  168SAPE   C3118948   1.892   0.509   6.586 -0.4523  0.4444  0.1666
  168SAPE   O3218949   1.973   0.480   6.503 -0.5353 -0.5430  0.8648
  168SAPE   C3218950   1.923   0.585   6.709 -0.2109  0.4556  0.4003
  168SAPE   H2X18951   1.935   0.696   6.707 -2.5395  0.7061 -0.7428
  168SAPE   H2Y18952   2.030   0.566   6.734 -0.9982 -4.3008  0.5742
  168SAPE   C2318953   1.584  -0.028   6.913 -0.2257 -0.0227  0.1822
  168SAPE   H3R18954   1.687  -0.058   6.944 -0.8377  0.1527  2.4125
  168SAPE   H3S18955   1.565  -0.105   6.835  0.8814  1.2598 -1.3862
  168SAPE   C2418956   1.499  -0.025   7.030  0.7417 -0.1975  0.0261
  168SAPE   H4R18957   1.395  -0.019   6.991  0.6078 -2.3057 -0.0286
  168SAPE   H4S18958   1.513   0.063   7.096  0.4573 -0.4111  0.3714
  168SAPE   C2518959   1.508  -0.162   7.098  0.4895  0.1182  0.1090
  168SAPE   H5R18960   1.515  -0.248   7.029 -1.3954 -2.2071  2.6826
  168SAPE   C2618961   1.525  -0.184   7.233 -0.0830  0.0560  0.0807
  168SAPE   H6R18962   1.548  -0.286   7.264 -1.7228 -0.7394 -1.1996
  168SAPE   C2718963   1.545  -0.080   7.339 -0.5298 -0.6177 -0.8672
  168SAPE   H7R18964   1.571   0.019   7.296 -2.1319 -0.0751 -0.6352
  168SAPE   H7S18965   1.632  -0.127   7.389 -0.9126 -0.8265 -0.3823
  168SAPE   C2818966   1.429  -0.068   7.435  0.2373  0.5014 -0.0059
  168SAPE   H8R18967   1.347  -0.141   7.432  1.0829 -0.4610  0.1177
  168SAPE   C2918968   1.423   0.034   7.523  0.1002 -0.2561 -0.6823
  168SAPE   H9R18969   1.333   0.047   7.585 -1.1047  0.6428 -2.5634
  168SAPE  C21018970   1.531   0.133   7.538 -0.6947 -0.1063 -0.2833
  168SAPE  H10R18971   1.604   0.130   7.454 -1.9359 -1.6101 -1.3570
  168SAPE  H10S18972   1.583   0.097   7.629 -1.5745 -2.5564 -0.7056
  168SAPE  C21118973   1.488   0.267   7.565 -1.1494 -0.1999 -1.0273
  168SAPE  H11R18974   1.498   0.338   7.481  0.6044  1.7025  0.7212
  168SAPE  C21218975   1.440   0.308   7.682  0.0234 -0.2869  0.0944
  168SAPE  H12R18976   1.409   0.413   7.690  3.5163  0.8779 -0.7709
  168SAPE  C21318977   1.426   0.230   7.813 -0.7158 -0.2781 -0.1586
  168SAPE  H13R18978   1.510   0.264   7.878  1.0875 -0.7328 -2.1826
  168SAPE  H13S18979   1.428   0.120   7.799  2.0937  0.1726 -4.0686
  168SAPE  C21418980   1.290   0.263   7.871  0.2657  0.3273 -0.0199
  168SAPE  H14R18981   1.206   0.205   7.831  0.7846 -0.0088 -0.6258
  168SAPE  C21518982   1.274   0.362   7.954 -0.3941 -0.3301 -0.1457
  168SAPE  H15R18983   1.170   0.366   7.989 -0.8173  1.6430 -1.5761
  168SAPE  C21618984   1.375   0.456   8.011 -0.0864  1.1700  0.1094
  168SAPE  H16R18985   1.347   0.564   8.013 -0.2703  1.1272 -0.1831
  168SAPE  H16S18986   1.468   0.454   7.951  0.0489  1.0215  0.3280
  168SAPE  C21718987   1.421   0.428   8.155  0.2012  0.2439 -0.2366
  168SAPE  H17R18988   1.526   0.464   8.155  0.4046 -0.2411 -2.9626
  168SAPE  H17S18989   1.428   0.320   8.181 -1.0018  0.0053 -0.8691
  168SAPE  C21818990   1.332   0.502   8.258  0.5685 -0.3603 -0.4760
  168SAPE  H18R18991   1.233   0.452   8.256  0.0555  0.6081  0.4370
  168SAPE  H18S18992   1.323   0.609   8.233 -0.4786  0.0380  1.4572
  168SAPE  C21918993   1.388   0.497   8.396 -0.0651  0.6065 -0.2408
  168SAPE  H19R18994   1.413   0.390   8.409 -1.2572  0.3712  0.1807
  168SAPE  H19S18995   1.316   0.538   8.470 -0.5224  1.6131 -1.2198
  168SAPE  C22018996   1.517   0.579   8.418  0.1501  0.8291 -1.0055
  168SAPE  H20R18997   1.497   0.682   8.381  0.8818  1.2703 -0.1846
  168SAPE  H20S18998   1.599   0.537   8.356  1.4066  0.2353  1.0097
  168SAPE  H20T18999   1.544   0.580   8.526  0.9876  0.1648 -1.2090
  168SAPE   C3319000   1.847   0.535   6.835  0.1026 -0.1372  0.0595
  168SAPE   H3X19001   1.810   0.431   6.825 -1.4038  0.5100 -1.1823
  168SAPE   H3Y19002   1.757   0.598   6.852 -0.2255  0.1505 -2.5467
  168SAPE   C3419003   1.927   0.538   6.970  0.2199 -0.9069  1.2174
  168SAPE   H4X19004   1.967   0.641   6.981  0.4461 -0.7230 -1.1137
  168SAPE   H4Y19005   2.014   0.471   6.955  1.4509  1.0587 -0.8184
  168SAPE   C3519006   1.845   0.515   7.093  0.7312  0.8087  0.6098
  168SAPE   H5X19007   1.826   0.405   7.097 -0.8110  0.9497 -1.8889
  168SAPE   H5Y19008   1.747   0.566   7.084 -0.0190 -0.9693 -1.7113
  168SAPE   C3619009   1.901   0.540   7.235  0.3280 -0.1532 -0.8067
  168SAPE   H6X19010   1.921   0.649   7.241 -0.8146  0.0529 -0.7413
  168SAPE   H6Y19011   1.993   0.480   7.253  1.3809  1.5521 -0.4490
  168SAPE   C3719012   1.803   0.513   7.351  0.1481  0.0390  0.9865
  168SAPE   H7X19013   1.772   0.406   7.355 -0.5761  0.1270 -1.3821
  168SAPE   H7Y19014   1.716   0.579   7.329  0.0140 -0.0203  1.3498
  168SAPE   C3819015   1.860   0.557   7.482 -0.1744  0.1187  0.1464
  168SAPE   H8X19016   1.888   0.664   7.482  1.8404 -0.3618 -1.3875
  168SAPE   H8Y19017   1.956   0.501   7.487  0.4513  1.2069  0.3578
  168SAPE   C3919018   1.779   0.515   7.604 -0.2732  0.1176 -0.2747
  168SAPE   H9X19019   1.698   0.445   7.575  0.1914  0.1758 -1.7586
  168SAPE   H9Y19020   1.740   0.611   7.643 -0.7991 -0.8755  1.7097
  168SAPE  C31019021   1.868   0.463   7.711 -0.0157 -0.0546 -0.1331
  168SAPE  H10X19022   1.953   0.530   7.735  0.0607 -0.4476  0.7247
  168SAPE  H10Y19023   1.910   0.366   7.677 -1.9263 -0.6077 -1.0321
  168SAPE  C31119024   1.797   0.438   7.845  0.1882  0.2431  0.1919
  168SAPE  H11X19025   1.688   0.417   7.833 -0.0043  0.9015  0.7530
  168SAPE  H11Y19026   1.800   0.533   7.901 -0.2781  1.1606 -1.3002
  168SAPE  C31219027   1.877   0.339   7.932  0.1103 -0.0447 -0.0072
  168SAPE  H12X19028   1.983   0.364   7.911 -0.4003  1.1994 -1.1778
  168SAPE  H12Y19029   1.857   0.237   7.894 -1.3373  0.3092 -0.2234
  168SAPE  C31319030   1.832   0.331   8.083 -0.5711 -0.4298 -0.7884
  168SAPE  H13X19031   1.734   0.280   8.094 -1.2628  0.9738 -0.4012
  168SAPE  H13Y19032   1.816   0.432   8.126  0.5641  0.1737 -1.7658
  168SAPE  C31419033   1.940   0.257   8.155  0.2682  0.0196 -0.0247
  168SAPE  H14X19034   2.042   0.290   8.127  0.4323 -1.0801 -0.7373
  168SAPE  H14Y19035   1.922   0.150   8.135  1.0003  0.0659 -0.9855
  168SAPE  C31519036   1.920   0.267   8.306 -0.1544  0.0315 -0.3345
  168SAPE  H15X19037   1.818   0.229   8.326 -0.3551  1.1690  0.9195
  168SAPE  H15Y19038   1.910   0.375   8.334  0.0577  0.6906 -2.6685
  168SAPE  C31619039   2.014   0.175   8.389  0.1487 -0.1982 -0.4223
  168SAPE  H16X19040   2.121   0.200   8.376  0.8692 -2.2992  1.3269
  168SAPE  H16Y19041   1.996   0.072   8.353  1.4767 -0.1419 -1.2607
  168SAPE  C31719042   1.975   0.178   8.537 -0.4257 -0.4689  0.4297
  168SAPE  H17X19043   2.026   0.098   8.595  0.2050 -2.0015 -2.1225
  168SAPE  H17Y19044   1.868   0.157   8.557 -0.4233  1.6257  2.8519
  168SAPE  C31819045   2.007   0.313   8.597 -0.1360 -0.4308 -1.0674
  168SAPE  H18X19046   1.938   0.398   8.574  0.8716  0.5399 -0.5831
  168SAPE  H18Y19047   2.104   0.345   8.553 -0.1326 -1.2400 -1.6618
  168SAPE  H18Z19048   2.016   0.300   8.707  0.9606 -1.2383 -1.2469
  169SAPE     N19049   0.445   1.597   6.090 -0.1782  0.3769  0.3172
  169SAPE   HN119050   0.547   1.578   6.096  0.0198  0.7492 -1.6957
  169SAPE   HN219051   0.399   1.585   6.183 -1.2528  1.9217  0.0087
  169SAPE   HN319052   0.413   1.520   6.027 -1.0788  1.9859 -1.2440
  169SAPE   C1219053   0.416   1.731   6.032 -0.0079  0.0452  0.0133
  169SAPE  H12A19054   0.309   1.741   6.004 -0.2478 -0.5626  0.7097
  169SAPE  H12B19055   0.469   1.741   5.934  0.7034  3.7015  0.7009
  169SAPE   C1119056   0.464   1.838   6.128 -1.0827  0.5784  0.3140
  169SAPE  H11A19057   0.426   1.813   6.229 -1.0084  1.9643  0.6910
  169SAPE  H11B19058   0.423   1.937   6.098 -0.9564  0.3278 -0.7064
  169SAPE     P19059   0.681   1.932   6.229 -0.0624  0.2563 -0.1071
  169SAPE   O1319060   0.813   1.869   6.243  0.5763 -0.0449  0.1693
  169SAPE   O1419061   0.677   2.076   6.192  0.2393 -0.1281  0.6805
  169SAPE   O1219062   0.606   1.846   6.120 -0.1160  0.0010  0.2171
  169SAPE   O1119063   0.602   1.923   6.369  0.2741 -0.3539  0.2602
  169SAPE    C119064   0.629   2.005   6.481  0.0816  0.1841  0.0421
  169SAPE    HA19065   0.739   2.021   6.481  0.1394 -0.1861  0.6309
  169SAPE    HB19066   0.572   2.100   6.472  0.9372  0.6754 -0.2265
  169SAPE    C219067   0.574   1.935   6.608 -0.7125 -0.9031  0.7227
  169SAPE    HS19068   0.577   2.009   6.691  0.3138  1.1547 -1.0862
  169SAPE   O2119069   0.645   1.815   6.646  0.4720  0.3831  0.3661
  169SAPE   C2119070   0.763   1.849   6.705 -0.0056  0.4505  0.1065
  169SAPE   O2219071   0.790   1.959   6.741  0.3178  0.1570 -0.0477
  169SAPE   C2219072   0.866   1.738   6.709  0.3280  0.3704  0.3704
  169SAPE   H2R19073   0.839   1.639   6.666 -0.0343  0.2849  0.7904
  169SAPE   H2S19074   0.946   1.768   6.638 -0.5175 -0.4779 -0.9495
  169SAPE    C319075   0.424   1.903   6.591  0.4350  0.3080  0.3657
  169SAPE    HX19076   0.410   1.828   6.511 -0.1650  2.4362 -1.5667
  169SAPE    HY19077   0.376   1.995   6.550  1.5074  1.6518  2.0267
  169SAPE   O3119078   0.361   1.879   6.718  0.0211 -0.1681 -0.2756
  169SAPE   C3119079   0.368   1.754   6.768 -0.2964  0.6674 -0.6056
  169SAPE   O3219080   0.414   1.657   6.710  0.4843 -0.1781 -0.0204
  169SAPE   C3219081   0.312   1.759   6.908  0.0283 -1.0623 -0.5566
  169SAPE   H2X19082   0.223   1.692   6.915 -1.2005  0.4485 -1.5966
  169SAPE   H2Y19083   0.273   1.862   6.923 -1.1500 -1.4691 -0.7605
  169SAPE   C2319084   0.941   1.721   6.852  0.1561  0.7002  0.1464
  169SAPE   H3R19085   1.005   1.812   6.863  0.1111  1.2924 -3.8926
  169SAPE   H3S19086   1.014   1.639   6.842  0.7449  1.2935 -0.4807
  169SAPE   C2419087   0.848   1.711   6.976  0.2340 -0.3004 -0.6748
  169SAPE   H4R19088   0.757   1.647   6.971  1.6487 -2.6059  1.4360
  169SAPE   H4S19089   0.798   1.809   6.992 -1.3802 -1.2410  0.2135
  169SAPE   C2519090   0.916   1.648   7.095 -0.6889 -0.1394 -0.6399
  169SAPE   H5R19091   0.940   1.541   7.084  0.1762  0.1241 -1.3085
  169SAPE   C2619092   0.930   1.704   7.217  0.5890  0.2742 -0.4235
  169SAPE   H6R19093   0.998   1.646   7.280  0.9227 -0.6811 -1.6602
  169SAPE   C2719094   0.904   1.848   7.254 -0.2186  0.0323 -0.6887
  169SAPE   H7R19095   0.916   1.918   7.168  0.1675  2.1953  1.0972
  169SAPE   H7S19096   0.978   1.881   7.330 -0.7370 -1.8144  0.6465
  169SAPE   C2819097   0.762   1.857   7.304 -0.0528  0.0723  0.2972
  169SAPE   H8R19098   0.686   1.803   7.244  0.4223  0.6849 -0.8823
  169SAPE   C2919099   0.717   1.920   7.413 -0.1200  0.2271 -0.1712
  169SAPE   H9R19100   0.609   1.912   7.432  0.0984  2.0070  2.1613
  169SAPE  C21019101   0.795   1.997   7.520 -0.3611 -0.1064  1.1043
  169SAPE  H10R19102   0.879   2.050   7.470 -0.7233  0.0476  0.6547
  169SAPE  H10S19103   0.833   1.933   7.602  0.7066 -0.7563  0.1112
  169SAPE  C21119104   0.710   2.103   7.589 -0.5364 -0.2657 -0.1626
  169SAPE  H11R19105   0.636   2.157   7.530 -0.3013 -0.0514 -0.2632
  169SAPE  C21219106   0.727   2.129   7.721 -0.1907 -0.4173 -0.1294
  169SAPE  H12R19107   0.658   2.205   7.762 -0.2252 -0.4453 -0.1350
  169SAPE  C21319108   0.822   2.068   7.820 -0.3367 -0.1307  0.4931
  169SAPE  H13R19109   0.891   2.141   7.867 -0.0478 -1.0007  1.4417
  169SAPE  H13S19110   0.900   2.003   7.774 -0.6295 -0.6205  0.6991
  169SAPE  C21419111   0.766   1.996   7.939  0.7396 -0.2079  0.9540
  169SAPE  H14R19112   0.763   1.886   7.934  0.4793 -0.1929  0.7808
  169SAPE  C21519113   0.716   2.049   8.055  0.3440 -0.7249  0.3602
  169SAPE  H15R19114   0.669   1.978   8.125  1.7516 -0.9786  1.0573
  169SAPE  C21619115   0.719   2.190   8.099  0.0748 -0.1037 -0.4143
  169SAPE  H16R19116   0.615   2.226   8.084  0.8215  1.5708 -1.7523
  169SAPE  H16S19117   0.795   2.245   8.039  1.2862 -0.6137  0.6292
  169SAPE  C21719118   0.747   2.187   8.245 -0.1335  0.2627 -0.0211
  169SAPE  H17R19119   0.841   2.134   8.273 -1.3142 -1.4225  0.8157
  169SAPE  H17S19120   0.657   2.152   8.299 -0.5914  1.3196 -0.0880
  169SAPE  C21819121   0.760   2.330   8.293 -0.2903  0.9731 -0.0295
  169SAPE  H18R19122   0.839   2.381   8.234 -0.3816  1.2465  0.0841
  169SAPE  H18S19123   0.787   2.314   8.399 -2.0986 -4.3153 -0.2008
  169SAPE  C21919124   0.642   2.423   8.277 -0.1656  0.1621  0.2041
  169SAPE  H19R19125   0.547   2.368   8.294 -0.4552  0.8943  1.0408
  169SAPE  H19S19126   0.655   2.450   8.170 -0.1358  0.5042  0.2933
  169SAPE  C22019127   0.653   2.548   8.364  0.5894 -0.1724 -0.7013
  169SAPE  H20R19128   0.567   2.618   8.364  1.6342  1.1445 -3.2925
  169SAPE  H20S19129   0.754   2.590   8.350 -0.0152  1.7434  0.5291
  169SAPE  H20T19130   0.668   2.519   8.470  1.2893  1.2378 -0.4128
  169SAPE   C3319131   0.425   1.729   7.016  0.0147  0.1994 -0.1944
  169SAPE   H3X19132   0.507   1.801   6.992 -1.3581  2.1439  0.8114
  169SAPE   H3Y19133   0.456   1.623   7.002  0.5148  0.4263 -0.8488
  169SAPE   C3419134   0.377   1.735   7.161  1.0273 -0.5605 -1.2361
  169SAPE   H4X19135   0.450   1.690   7.231  0.3871  0.7342  0.2934
  169SAPE   H4Y19136   0.281   1.683   7.178 -0.3338  2.2826  0.0307
  169SAPE   C3519137   0.356   1.885   7.198  1.0554  0.2613 -0.1661
  169SAPE   H5X19138   0.277   1.933   7.137  0.1712 -3.2525 -1.9033
  169SAPE   H5Y19139   0.447   1.949   7.188  1.6046 -0.8130 -2.1062
  169SAPE   C3619140   0.303   1.910   7.345  0.2344 -0.3177 -0.6637
  169SAPE   H6X19141   0.369   1.854   7.414  1.8375  2.2766 -0.0058
  169SAPE   H6Y19142   0.205   1.858   7.355  0.4241 -0.3376  1.2677
  169SAPE   C3719143   0.316   2.057   7.383 -0.3134 -0.6772  0.4045
  169SAPE   H7X19144   0.227   2.100   7.333  1.4903  2.4552 -0.2309
  169SAPE   H7Y19145   0.406   2.104   7.338  0.7232 -0.3909  2.6989
  169SAPE   C3819146   0.328   2.084   7.534  0.7918  0.1931 -0.0627
  169SAPE   H8X19147   0.422   2.037   7.568  1.0389  0.1224 -0.8452
  169SAPE   H8Y19148   0.243   2.030   7.582  0.3216  0.9431 -0.0392
  169SAPE   C3919149   0.309   2.231   7.577  0.2082  0.4041  0.5696
  169SAPE   H9X19150   0.211   2.260   7.534 -0.1663  0.6129  1.5556
  169SAPE   H9Y19151   0.386   2.290   7.522  1.5340 -3.1173 -1.5397
  169SAPE  C31019152   0.318   2.246   7.734 -0.3783 -0.1514  0.3878
  169SAPE  H10X19153   0.416   2.212   7.775  0.6723 -0.0727 -1.9983
  169SAPE  H10Y19154   0.240   2.210   7.804 -0.4029  1.3429  1.1464
  169SAPE  C31119155   0.311   2.396   7.773  0.0349 -0.8445 -0.3179
  169SAPE  H11X19156   0.209   2.438   7.768 -0.1745 -1.4165 -1.0113
  169SAPE  H11Y19157   0.375   2.461   7.708  0.6313  0.1249  1.2071
  169SAPE  C31219158   0.352   2.431   7.922 -0.4833 -0.5069  0.7805
  169SAPE  H12X19159   0.451   2.381   7.934  0.9858  1.7764 -1.3696
  169SAPE  H12Y19160   0.278   2.385   7.990 -0.9439 -1.4286 -0.3284
  169SAPE  C31319161   0.366   2.589   7.947 -0.8554  0.6976 -0.3873
  169SAPE  H13X19162   0.272   2.636   7.913 -0.7046 -0.2165 -2.1113
  169SAPE  H13Y19163   0.436   2.642   7.879  0.0637  0.1433  0.1141
  169SAPE  C31419164   0.390   2.622   8.095 -0.2883 -0.1803 -0.3940
  169SAPE  H14X19165   0.468   2.549   8.128  1.6100  1.2667 -1.6100
  169SAPE  H14Y19166   0.305   2.612   8.166 -1.0729  3.0430 -0.8307
  169SAPE  C31519167   0.440   2.758   8.112 -0.5361 -0.1333  0.2744
  169SAPE  H15X19168   0.480   2.790   8.013 -0.5290 -1.5120 -0.1826
  169SAPE  H15Y19169   0.525   2.753   8.184 -0.2165  0.1180 -0.0809
  169SAPE  C31619170   0.333   2.854   8.165 -0.3641  0.5769 -0.2848
  169SAPE  H16X19171   0.292   2.807   8.257  2.1433  1.1964  1.2072
  169SAPE  H16Y19172   0.247   2.868   8.096 -1.6369  0.1087  1.1760
  169SAPE  C31719173   0.394   2.979   8.223 -0.7048  0.2142 -0.3807
  169SAPE  H17X19174   0.455   3.016   8.137 -0.3593 -1.1009 -0.7055
  169SAPE  H17Y19175   0.461   2.948   8.306  0.1184  4.9689  0.9058
  169SAPE  C31819176   0.289   3.083   8.266  0.1666  0.2963  0.1525
  169SAPE  H18X19177   0.200   3.069   8.201 -0.3038  0.0130  0.8463
  169SAPE  H18Y19178   0.332   3.185   8.258 -1.4446  1.0307  0.6359
  169SAPE  H18Z19179   0.264   3.068   8.373  1.3141 -1.6212  0.1762
  170SAPE     N19180   1.885   6.190   6.274 -0.4431 -0.6260  0.0775
  170SAPE   HN119181   1.943   6.270   6.239  1.0832 -1.6989  0.0873
  170SAPE   HN219182   1.900   6.182   6.377 -0.6409  0.0188  0.1610
  170SAPE   HN319183   1.925   6.101   6.238  4.3942  0.8614  1.2726
  170SAPE   C1219184   1.738   6.198   6.249  1.1413 -0.3795 -0.1718
  170SAPE  H12A19185   1.725   6.233   6.144 -1.1853 -0.3981  0.0815
  170SAPE  H12B19186   1.695   6.269   6.323 -3.1565 -1.6633 -1.2775
  170SAPE   C1119187   1.670   6.062   6.274  0.2805 -0.4299 -0.3314
  170SAPE  H11A19188   1.560   6.072   6.264  0.1053 -3.2936 -2.0586
  170SAPE  H11B19189   1.681   6.038   6.381  1.9297  0.0088 -0.3929
  170SAPE     P19190   1.638   5.836   6.134  0.4201  0.2992 -0.2255
  170SAPE   O1319191   1.553   5.895   6.029 -0.3443 -0.1971  0.4603
  170SAPE   O1419192   1.729   5.724   6.098  0.5410  0.3516  0.2842
  170SAPE   O1219193   1.727   5.959   6.194  0.6635  0.2612 -0.1514
  170SAPE   O1119194   1.549   5.790   6.256 -0.2859  0.2642  0.2892
  170SAPE    C119195   1.414   5.830   6.267  0.7987  0.3180 -0.3816
  170SAPE    HA19196   1.397   5.929   6.221 -0.0164  1.7329  2.8202
  170SAPE    HB19197   1.359   5.753   6.209  1.4125 -0.6888  0.3271
  170SAPE    C219198   1.365   5.848   6.412 -0.5107  0.1167  0.4132
  170SAPE    HS19199   1.260   5.883   6.421 -1.4739 -2.5445  0.0061
  170SAPE   O2119200   1.468   5.925   6.483  0.1068 -0.3262 -0.3545
  170SAPE   C2119201   1.420   6.047   6.513  0.7240  0.4159  0.2581
  170SAPE   O2219202   1.316   6.096   6.477  0.4568 -0.0991 -0.1276
  170SAPE   C2219203   1.529   6.117   6.596 -0.3023 -0.8492  0.3642
  170SAPE   H2R19204   1.606   6.038   6.608 -2.4254 -3.2284 -1.3667
  170SAPE   H2S19205   1.575   6.199   6.537  1.7175 -0.2919  2.6019
  170SAPE    C319206   1.354   5.708   6.486 -0.1232 -0.4384 -0.3746
  170SAPE    HX19207   1.460   5.674   6.490  0.1880  0.5334 -0.1037
  170SAPE    HY19208   1.298   5.642   6.416 -0.7103  0.3306 -0.6332
  170SAPE   O3119209   1.292   5.729   6.616  0.2221  0.1677  0.4492
  170SAPE   C3119210   1.187   5.651   6.641 -0.2347 -0.2681 -0.2582
  170SAPE   O3219211   1.130   5.575   6.569  0.0919  0.1629 -0.8001
  170SAPE   C3219212   1.178   5.649   6.797 -0.2396 -0.0575  0.7839
  170SAPE   H2X19213   1.161   5.758   6.812  2.3378  0.4252  0.5401
  170SAPE   H2Y19214   1.283   5.630   6.828  1.1262  2.6242 -1.8446
  170SAPE   C2319215   1.484   6.174   6.734  0.3969  0.4482  0.5268
  170SAPE   H3R19216   1.391   6.228   6.708 -0.6971 -1.8893 -0.5187
  170SAPE   H3S19217   1.568   6.243   6.760  0.0644  2.1915 -2.7278
  170SAPE   C2419218   1.458   6.059   6.830 -0.3643 -0.9940 -0.5294
  170SAPE   H4R19219   1.543   5.988   6.834  1.0586  0.7148  0.8326
  170SAPE   H4S19220   1.374   6.003   6.783 -0.9929 -2.0223  1.7470
  170SAPE   C2519221   1.414   6.125   6.963 -0.1650  0.6837  0.2148
  170SAPE   H5R19222   1.305   6.140   6.968 -0.0262  1.4437  1.1162
  170SAPE   C2619223   1.484   6.154   7.073  0.2767 -0.0386  0.2660
  170SAPE   H6R19224   1.443   6.214   7.156  1.9689  0.5052  0.7278
  170SAPE   C2719225   1.634   6.123   7.073 -0.0680  0.0959 -0.2439
  170SAPE   H7R19226   1.677   6.090   6.976  1.6932 -0.2459  0.6339
  170SAPE   H7S19227   1.647   6.028   7.130 -0.6363  0.7103  0.9234
  170SAPE   C2819228   1.725   6.231   7.134  0.4451 -0.7225  0.4298
  170SAPE   H8R19229   1.765   6.289   7.049  2.1172  0.7397  2.1796
  170SAPE   C2919230   1.747   6.272   7.261  0.1908  0.7354 -0.2160
  170SAPE   H9R19231   1.814   6.355   7.288 -0.0716  0.6661  0.6822
  170SAPE  C21019232   1.682   6.195   7.378 -0.7022  0.2649  0.2024
  170SAPE  H10R19233   1.747   6.115   7.421 -0.3508  0.7959  0.6758
  170SAPE  H10S19234   1.595   6.141   7.335 -1.0359  0.3545  0.7488
  170SAPE  C21119235   1.639   6.289   7.490 -0.2836  0.3821  0.6671
  170SAPE  H11R19236   1.566   6.366   7.461  0.5457 -0.0448 -2.7998
  170SAPE  C21219237   1.681   6.287   7.616 -0.0140 -0.0892 -0.3840
  170SAPE  H12R19238   1.640   6.363   7.684 -0.6781 -0.7321 -0.0602
  170SAPE  C21319239   1.781   6.202   7.685  0.1880  0.6400 -0.5624
  170SAPE  H13R19240   1.864   6.262   7.729  0.6882 -0.6686  0.3283
  170SAPE  H13S19241   1.815   6.118   7.621  2.8759 -0.1239  1.7506
  170SAPE  C21419242   1.725   6.124   7.803  0.4747 -1.0635 -0.2429
  170SAPE  H14R19243   1.693   6.020   7.786  0.0234 -1.2414  1.5630
  170SAPE  C21519244   1.723   6.173   7.931 -0.4825  0.0941  0.6891
  170SAPE  H15R19245   1.694   6.102   8.010  0.6436 -2.3630 -1.0585
  170SAPE  C21619246   1.767   6.311   7.973  0.0448 -0.6491  0.4052
  170SAPE  H16R19247   1.679   6.350   8.027  0.1533  0.1857 -0.0196
  170SAPE  H16S19248   1.780   6.376   7.884  0.4672 -1.0787  0.1481
  170SAPE  C21719249   1.890   6.331   8.067  0.1523  0.7986 -0.3370
  170SAPE  H17R19250   1.910   6.435   8.101  1.4247  0.2225  0.7602
  170SAPE  H17S19251   1.970   6.282   8.007  0.4892 -1.1676  1.6211
  170SAPE  C21819252   1.893   6.242   8.195  1.0441 -0.1716 -0.5572
  170SAPE  H18R19253   1.882   6.133   8.175 -2.5585  0.3838 -1.9525
  170SAPE  H18S19254   1.814   6.281   8.262  0.2431 -0.9125 -1.0590
  170SAPE  C21919255   2.017   6.257   8.277  0.2643  0.4975  0.0473
  170SAPE  H19R19256   2.000   6.181   8.357 -1.7768  0.4847 -0.3541
  170SAPE  H19S19257   2.008   6.359   8.320 -0.6387 -0.2408  1.6810
  170SAPE  C22019258   2.142   6.244   8.200 -0.6420  0.3105  0.3889
  170SAPE  H20R19259   2.162   6.142   8.163 -0.8903  1.1848 -2.2803
  170SAPE  H20S19260   2.223   6.266   8.274 -0.2249 -0.6157  0.2159
  170SAPE  H20T19261   2.152   6.323   8.122  0.1559 -0.4178 -0.2524
  170SAPE   C3319262   1.063   5.565   6.842 -0.5682 -0.0532  0.3331
  170SAPE   H3X19263   1.086   5.464   6.802  1.7131 -0.4304  2.4674
  170SAPE   H3Y19264   0.960   5.596   6.813 -0.6273  1.6204  2.2619
  170SAPE   C3419265   1.057   5.556   6.990 -0.5745  0.4536  0.3923
  170SAPE   H4X19266   1.152   5.511   7.025 -0.2232  0.3767 -0.6317
  170SAPE   H4Y19267   0.987   5.478   7.026  0.8315 -0.0306  2.0996
  170SAPE   C3519268   1.029   5.699   7.044 -0.6161 -0.3134  0.5572
  170SAPE   H5X19269   0.960   5.748   6.972  1.2015  2.9208  0.9005
  170SAPE   H5Y19270   1.126   5.753   7.042  0.7990 -2.8159 -0.5908
  170SAPE   C3619271   0.952   5.721   7.175  0.5067  0.1870 -0.5506
  170SAPE   H6X19272   1.023   5.683   7.252 -1.0175 -0.5672  0.5187
  170SAPE   H6Y19273   0.870   5.646   7.165  0.6054 -0.1119  0.7516
  170SAPE   C3719274   0.897   5.866   7.199  0.3631  0.9334  0.1799
  170SAPE   H7X19275   0.849   5.908   7.108 -0.1573 -1.2050 -0.5476
  170SAPE   H7Y19276   0.992   5.922   7.217  1.4234  0.3205 -3.1111
  170SAPE   C3819277   0.803   5.890   7.320 -0.3923 -0.2560 -0.6893
  170SAPE   H8X19278   0.722   5.814   7.317 -1.7211  1.0006  1.6329
  170SAPE   H8Y19279   0.766   5.995   7.320  0.5787  0.1223  0.9818
  170SAPE   C3919280   0.875   5.880   7.464  0.3587 -0.9771 -0.1370
  170SAPE   H9X19281   0.963   5.946   7.457 -0.8437  0.5236 -1.4706
  170SAPE   H9Y19282   0.911   5.775   7.456  2.3189 -0.1951 -1.9292
  170SAPE  C31019283   0.781   5.894   7.591  0.2803  0.1250  0.0859
  170SAPE  H10X19284   0.740   5.998   7.593 -1.3878 -0.5182  2.4996
  170SAPE  H10Y19285   0.828   5.890   7.692  0.7096 -1.0101 -0.1510
  170SAPE  C31119286   0.662   5.806   7.594  0.0556  0.6623  0.1061
  170SAPE  H11X19287   0.703   5.703   7.610 -1.0516  0.4334  1.5984
  170SAPE  H11Y19288   0.612   5.799   7.494  2.9498  1.0178 -1.4124
  170SAPE  C31219289   0.547   5.845   7.699 -0.7268 -0.5791  0.3076
  170SAPE  H12X19290   0.455   5.783   7.691 -1.1158  0.2193 -1.7165
  170SAPE  H12Y19291   0.511   5.948   7.677  0.2599 -0.2123  0.4119
  170SAPE  C31319292   0.594   5.855   7.851 -0.1024  0.0489 -0.6160
  170SAPE  H13X19293   0.666   5.939   7.863  0.5183 -0.5949  0.2278
  170SAPE  H13Y19294   0.645   5.758   7.870  2.1068  1.5464  1.3485
  170SAPE  C31419295   0.484   5.889   7.944 -0.5471  0.1338  0.5283
  170SAPE  H14X19296   0.401   5.817   7.925 -2.0790  1.8556  0.5486
  170SAPE  H14Y19297   0.448   5.989   7.912 -2.9745 -1.1355 -0.8132
  170SAPE  C31519298   0.535   5.895   8.088 -0.0922  0.6884 -0.0589
  170SAPE  H15X19299   0.482   5.974   8.146 -0.7496 -1.2459  2.0602
  170SAPE  H15Y19300   0.644   5.918   8.084  0.2651 -0.9442  0.0377
  170SAPE  C31619301   0.519   5.765   8.171  0.1969  0.2548  0.0113
  170SAPE  H16X19302   0.608   5.704   8.143 -1.0715 -1.5054 -0.2302
  170SAPE  H16Y19303   0.426   5.725   8.126 -0.9302  2.3897  0.3495
  170SAPE  C31719304   0.514   5.789   8.319  0.0054  0.6970 -0.2756
  170SAPE  H17X19305   0.433   5.860   8.345 -0.0051  0.1473  1.2747
  170SAPE  H17Y19306   0.612   5.834   8.347  0.1960  0.7281 -0.9800
  170SAPE  C31819307   0.505   5.664   8.408 -0.2714 -0.0932  0.1714
  170SAPE  H18X19308   0.414   5.602   8.392  1.1816 -2.5410  1.0228
  170SAPE  H18Y19309   0.506   5.692   8.515  0.7237  1.1592 -0.1615
  170SAPE  H18Z19310   0.589   5.593   8.389  1.3558  1.8902 -0.1732
  171SAPE     N19311   2.982   0.475   6.246  0.4989  0.6926  0.2518
  171SAPE   HN119312   2.996   0.562   6.301  0.2479 -0.2926  1.9058
  171SAPE   HN219313   2.990   0.476   6.143  0.1551 -0.7223  0.1957
  171SAPE   HN319314   2.879   0.460   6.250  0.2981  2.1583  1.0806
  171SAPE   C1219315   3.043   0.349   6.307 -0.0051 -0.1621 -0.0910
  171SAPE  H12A19316   3.023   0.337   6.415  0.5973 -1.3904 -0.1047
  171SAPE  H12B19317   3.153   0.359   6.293  0.1612 -1.7227  0.0519
  171SAPE   C1119318   2.986   0.221   6.242  0.3306  0.2769  0.2994
  171SAPE  H11A19319   3.067   0.145   6.244 -0.1724 -0.2524  2.3219
  171SAPE  H11B19320   2.969   0.245   6.135 -1.2918 -0.3555  0.3953
  171SAPE     P19321   2.799   0.046   6.264 -0.3888  0.1947 -0.1337
  171SAPE   O1319322   2.676   0.031   6.341 -0.3064  0.7885 -0.0665
  171SAPE   O1419323   2.789   0.037   6.121  0.2548 -0.0128 -0.4553
  171SAPE   O1219324   2.860   0.183   6.305 -0.1590 -0.2377  0.4301
  171SAPE   O1119325   2.912  -0.046   6.311  0.4279 -0.8664  0.2120
  171SAPE    C119326   2.991  -0.037   6.436  0.5229  0.6445  1.0122
  171SAPE    HA19327   3.089   0.011   6.420  0.1119  1.0923 -0.1630
  171SAPE    HB19328   2.936   0.030   6.506 -1.5359 -1.2065  1.2331
  171SAPE    C219329   3.029  -0.180   6.486  0.2067  1.4175 -0.3263
  171SAPE    HS19330   3.086  -0.229   6.404  1.6131 -0.6420  1.7845
  171SAPE   O2119331   2.905  -0.254   6.513  0.3149 -1.0480 -0.4908
  171SAPE   C2119332   2.910  -0.382   6.513  0.0075 -0.1819 -0.0406
  171SAPE   O2219333   3.014  -0.450   6.499 -0.3350 -0.5892  0.0539
  171SAPE   C2219334   2.773  -0.450   6.554  0.3753 -0.8301 -0.0301
  171SAPE   H2R19335   2.687  -0.379   6.546 -0.3155 -1.5294  1.1140
  171SAPE   H2S19336   2.764  -0.537   6.486  0.1802 -1.8624  1.2945
  171SAPE    C319337   3.136  -0.173   6.601  0.2876 -0.3241 -0.1640
  171SAPE    HX19338   3.216  -0.102   6.574 -0.0958  0.4049  0.6039
  171SAPE    HY19339   3.172  -0.278   6.606 -2.6752 -1.4201 -0.5843
  171SAPE   O3119340   3.064  -0.129   6.718  0.2232  0.2126 -0.4238
  171SAPE   C3119341   3.121  -0.035   6.794  0.3105  0.1845  0.0456
  171SAPE   O3219342   3.225   0.015   6.766 -0.4033  0.4438  0.2056
  171SAPE   C3219343   3.040  -0.013   6.917  0.0680  0.1202 -0.4114
  171SAPE   H2X19344   2.935  -0.034   6.887 -0.5016  1.3937  0.6340
  171SAPE   H2Y19345   3.048   0.090   6.957  1.1438 -0.5107  1.0108
  171SAPE   C2319346   2.774  -0.495   6.705 -0.5990 -0.4807 -0.2755
  171SAPE   H3R19347   2.866  -0.553   6.725 -1.1357 -1.2332  0.0164
  171SAPE   H3S19348   2.691  -0.562   6.734 -1.0771  0.4631  0.5741
  171SAPE   C2419349   2.777  -0.366   6.783 -1.4640 -0.1706 -0.0422
  171SAPE   H4R19350   2.721  -0.286   6.729 -0.1575  0.3956 -0.5673
  171SAPE   H4S19351   2.882  -0.332   6.776 -0.8884 -0.6496  4.8933
  171SAPE   C2519352   2.736  -0.385   6.928  0.6753 -0.5941  0.4620
  171SAPE   H5R19353   2.785  -0.472   6.975 -0.2137 -1.6098 -0.4651
  171SAPE   C2619354   2.646  -0.316   7.002  0.4807  0.7192  0.4737
  171SAPE   H6R19355   2.642  -0.337   7.110  2.1660 -1.3458  0.1642
  171SAPE   C2719356   2.562  -0.198   6.946 -0.0240 -0.4146  0.0254
  171SAPE   H7R19357   2.455  -0.227   6.944  0.3177 -1.9259  1.8326
  171SAPE   H7S19358   2.591  -0.188   6.839 -1.9747 -0.9033 -0.5614
  171SAPE   C2819359   2.592  -0.072   7.013 -0.5694 -0.4951  0.0182
  171SAPE   H8R19360   2.645   0.001   6.951  0.1750  1.9432  3.3778
  171SAPE   C2919361   2.560  -0.041   7.138  0.0343  0.4287  0.2453
  171SAPE   H9R19362   2.588   0.061   7.171  0.0521  0.8395 -1.0125
  171SAPE  C21019363   2.480  -0.126   7.237  0.4671 -0.4215 -0.4973
  171SAPE  H10R19364   2.542  -0.210   7.275 -0.3724 -1.0030 -0.4142
  171SAPE  H10S19365   2.394  -0.169   7.182  0.9002 -1.6946 -0.1831
  171SAPE  C21119366   2.432  -0.039   7.351 -0.3686  0.6652  0.4392
  171SAPE  H11R19367   2.350   0.027   7.316 -0.4695  0.6989  0.7341
  171SAPE  C21219368   2.492  -0.026   7.472 -0.4851 -0.4289  0.2189
  171SAPE  H12R19369   2.439   0.036   7.546 -0.9555 -0.0695 -0.4066
  171SAPE  C21319370   2.613  -0.096   7.516 -0.4890  0.1827  0.0200
  171SAPE  H13R19371   2.650  -0.185   7.461 -2.5618 -1.3813  1.0722
  171SAPE  H13S19372   2.572  -0.146   7.607 -0.2687  2.7256  1.5762
  171SAPE  C21419373   2.723   0.010   7.548  0.5237 -0.2746 -0.1933
  171SAPE  H14R19374   2.770   0.050   7.457  1.8175 -0.5879  0.3225
  171SAPE  C21519375   2.776   0.043   7.670  0.5738 -0.4752 -0.2547
  171SAPE  H15R19376   2.860   0.114   7.666 -0.6072  0.9347 -0.4525
  171SAPE  C21619377   2.728  -0.018   7.800 -0.3072  0.1718 -0.4369
  171SAPE  H16R19378   2.643  -0.086   7.777 -1.3038  1.9652 -2.2041
  171SAPE  H16S19379   2.680   0.053   7.870 -0.6202  0.6488 -1.1367
  171SAPE  C21719380   2.848  -0.095   7.864  0.1420 -0.2613 -0.6186
  171SAPE  H17R19381   2.929  -0.029   7.902  0.3758 -0.6576 -0.4215
  171SAPE  H17S19382   2.890  -0.172   7.797  1.0407  0.4819 -0.9219
  171SAPE  C21819383   2.803  -0.175   7.981  1.0163  0.8467  0.6393
  171SAPE  H18R19384   2.881  -0.252   7.999  0.3419 -0.3236 -1.2755
  171SAPE  H18S19385   2.706  -0.227   7.964  1.2813 -0.0277  1.7845
  171SAPE  C21919386   2.770  -0.101   8.113 -0.4418 -0.3904  0.0479
  171SAPE  H19R19387   2.696  -0.020   8.102 -1.1841 -1.3380 -2.3285
  171SAPE  H19S19388   2.864  -0.052   8.145 -0.1598  0.4996 -2.0998
  171SAPE  C22019389   2.737  -0.201   8.225 -1.2462  0.1059 -0.3966
  171SAPE  H20R19390   2.658  -0.276   8.201 -0.1779 -0.8087 -1.1350
  171SAPE  H20S19391   2.695  -0.145   8.311  2.1372  0.1798  1.2490
  171SAPE  H20T19392   2.828  -0.262   8.245 -0.7910  1.1676  0.8181
  171SAPE   C3319393   3.057  -0.110   7.039  0.3319  0.1612 -0.3026
  171SAPE   H3X19394   3.155  -0.076   7.078  1.1003  0.2268 -2.2578
  171SAPE   H3Y19395   3.069  -0.210   6.993 -3.1607 -1.3729  1.8868
  171SAPE   C3419396   2.946  -0.100   7.146  0.1185 -0.4425  0.8811
  171SAPE   H4X19397   2.865  -0.157   7.096  0.2391 -0.0820  0.2672
  171SAPE   H4Y19398   2.917   0.005   7.164 -0.9252  0.0074 -2.9785
  171SAPE   C3519399   2.997  -0.165   7.268 -0.4901 -0.1035 -0.0871
  171SAPE   H5X19400   3.063  -0.249   7.239 -0.2885 -0.2220  0.7101
  171SAPE   H5Y19401   2.910  -0.213   7.317  0.6940 -0.3759  1.8016
  171SAPE   C3619402   3.059  -0.070   7.372 -0.6121  0.0959  0.5369
  171SAPE   H6X19403   2.983  -0.002   7.417 -2.1391 -1.5359  0.4889
  171SAPE   H6Y19404   3.148  -0.020   7.328  0.0020 -1.9742 -0.6346
  171SAPE   C3719405   3.110  -0.155   7.487 -0.1342 -0.1136 -0.4955
  171SAPE   H7X19406   3.205  -0.206   7.458 -1.3359 -2.6089 -0.2161
  171SAPE   H7Y19407   3.048  -0.240   7.522 -0.7575  0.6946  0.3843
  171SAPE   C3819408   3.145  -0.062   7.608 -0.1688  0.0499 -0.0719
  171SAPE   H8X19409   3.048  -0.008   7.620 -0.8341 -0.6984 -1.8547
  171SAPE   H8Y19410   3.223   0.008   7.571  1.1561 -1.4223 -0.1105
  171SAPE   C3919411   3.196  -0.133   7.730  0.2379  0.9618 -0.4141
  171SAPE   H9X19412   3.290  -0.186   7.705 -0.8479 -0.1218 -2.3217
  171SAPE   H9Y19413   3.117  -0.203   7.764  0.2114 -0.8125 -3.9205
  171SAPE  C31019414   3.219  -0.027   7.837 -0.3113 -0.3922 -0.2176
  171SAPE  H10X19415   3.129   0.039   7.844  1.2066  1.6922  0.3107
  171SAPE  H10Y19416   3.301   0.043   7.809  1.2098 -1.1687  2.1022
  171SAPE  C31119417   3.258  -0.071   7.978 -1.1632 -0.1910  0.2699
  171SAPE  H11X19418   3.365  -0.100   7.973 -0.8150  1.2849 -1.0045
  171SAPE  H11Y19419   3.189  -0.152   8.011 -0.1130 -0.3623  2.1137
  171SAPE  C31219420   3.255   0.050   8.071 -0.7085 -0.7487 -0.4327
  171SAPE  H12X19421   3.153   0.093   8.078 -0.5914 -0.4659 -0.4540
  171SAPE  H12Y19422   3.317   0.133   8.031 -0.6816 -0.2422  0.6304
  171SAPE  C31319423   3.305   0.018   8.212  0.0477 -0.1707 -1.1462
  171SAPE  H13X19424   3.292   0.112   8.269 -1.2866 -1.4248  0.6836
  171SAPE  H13Y19425   3.409  -0.022   8.204 -0.4845 -1.5858 -1.1798
  171SAPE  C31419426   3.222  -0.097   8.273 -0.6837  0.0431  0.5042
  171SAPE  H14X19427   3.216  -0.187   8.208 -0.8027  1.4804 -1.5055
  171SAPE  H14Y19428   3.115  -0.065   8.271 -0.1976  1.7391 -4.1804
  171SAPE  C31519429   3.262  -0.128   8.414 -0.1139 -0.2149  0.3726
  171SAPE  H15X19430   3.264  -0.040   8.482  2.2919 -1.0342  1.3975
  171SAPE  H15Y19431   3.366  -0.166   8.417  0.2545  0.8062  0.5507
  171SAPE  C31619432   3.191  -0.249   8.484 -0.4351 -0.3281 -0.2631
  171SAPE  H16X19433   3.186  -0.338   8.418 -2.1319 -2.2816  2.4230
  171SAPE  H16Y19434   3.087  -0.218   8.508  0.1281  1.8615 -0.5019
  171SAPE  C31719435   3.257  -0.299   8.616  0.9451  0.6557  0.0583
  171SAPE  H17X19436   3.229  -0.230   8.699 -0.5477  0.3432 -0.1663
  171SAPE  H17Y19437   3.367  -0.302   8.603  0.6796  0.4137 -2.4331
  171SAPE  C31819438   3.203  -0.436   8.665 -0.2043  0.7446 -0.7206
  171SAPE  H18X19439   3.094  -0.436   8.688 -0.2647 -1.3677 -0.9645
  171SAPE  H18Y19440   3.270  -0.476   8.743  0.9801 -0.4977 -2.3471
  171SAPE  H18Z19441   3.218  -0.505   8.579 -3.1712  1.2441 -1.7188
  172SAPE     N19442   1.943   5.581   6.083  0.3997 -0.5109  0.2745
  172SAPE   HN119443   2.022   5.647   6.100 -0.2241 -0.1091  1.6346
  172SAPE   HN219444   1.947   5.555   5.982  0.0026 -1.0634  0.3964
  172SAPE   HN319445   1.859   5.632   6.115 -0.2801 -1.1844 -0.4031
  172SAPE   C1219446   1.945   5.462   6.176  0.6285 -0.4107 -0.2341
  172SAPE  H12A19447   1.848   5.409   6.176  0.0584  0.6091  0.8649
  172SAPE  H12B19448   1.971   5.485   6.282 -1.0202 -3.1329  0.8294
  172SAPE   C1119449   2.057   5.363   6.140 -0.0968 -0.1271 -0.7392
  172SAPE  H11A19450   2.039   5.318   6.040 -0.1298 -0.2826 -0.6643
  172SAPE  H11B19451   2.063   5.288   6.222  2.2485  0.7074 -0.0994
  172SAPE     P19452   2.313   5.366   6.172 -0.3812  0.0852 -0.0762
  172SAPE   O1319453   2.308   5.218   6.142  0.0435  0.1660 -0.0926
  172SAPE   O1419454   2.425   5.448   6.119 -0.1882  0.1710 -1.0116
  172SAPE   O1219455   2.178   5.434   6.133  0.2960 -0.2016  0.2741
  172SAPE   O1119456   2.303   5.384   6.329  0.2626 -0.0897  0.1564
  172SAPE    C119457   2.246   5.496   6.407 -0.0133 -0.2593  0.3593
  172SAPE    HA19458   2.325   5.574   6.416 -0.4924  0.2727 -0.0211
  172SAPE    HB19459   2.164   5.555   6.362 -2.2737 -1.8496  2.2469
  172SAPE    C219460   2.192   5.455   6.542 -0.3472 -0.2266 -0.6270
  172SAPE    HS19461   2.137   5.537   6.593  2.0655  0.5183  0.8827
  172SAPE   O2119462   2.303   5.418   6.621 -0.2218 -0.0897  0.5239
  172SAPE   C2119463   2.376   5.523   6.670 -0.0903 -0.6812  0.3610
  172SAPE   O2219464   2.348   5.642   6.650 -0.2282 -0.2498  0.2393
  172SAPE   C2219465   2.496   5.471   6.758 -0.2544  0.9306  0.0813
  172SAPE   H2R19466   2.487   5.360   6.751  0.1166  1.0203 -2.0969
  172SAPE   H2S19467   2.583   5.507   6.699 -0.2475  1.1548  0.2301
  172SAPE    C319468   2.085   5.338   6.535  0.1016  0.9286 -0.3565
  172SAPE    HX19469   2.142   5.244   6.522 -1.2836  0.4507 -3.2928
  172SAPE    HY19470   2.015   5.360   6.452 -3.9199 -0.4328  2.5083
  172SAPE   O3119471   2.009   5.347   6.660  0.7154 -0.0854 -0.1728
  172SAPE   C3119472   1.890   5.284   6.651 -0.9224 -0.3048  0.1899
  172SAPE   O3219473   1.840   5.243   6.548 -0.1332  0.7445  0.1305
  172SAPE   C3219474   1.823   5.276   6.784  0.1723  0.4162  0.0928
  172SAPE   H2X19475   1.770   5.179   6.797  1.8671 -0.3157  1.9492
  172SAPE   H2Y19476   1.749   5.358   6.780  1.1754  1.4038  1.4241
  172SAPE   C2319477   2.488   5.525   6.898  0.6395  0.1669  0.2268
  172SAPE   H3R19478   2.397   5.504   6.958  0.4822  1.0312  0.2957
  172SAPE   H3S19479   2.495   5.635   6.893  1.2305  0.0401 -2.4381
  172SAPE   C2419480   2.606   5.469   6.987 -0.5801  0.0209 -0.3651
  172SAPE   H4R19481   2.601   5.359   6.991  0.9920 -0.0889 -1.2077
  172SAPE   H4S19482   2.567   5.494   7.089 -0.1797  0.6515 -0.3604
  172SAPE   C2519483   2.744   5.540   6.969  0.5024  0.4725 -0.0799
  172SAPE   H5R19484   2.794   5.519   6.873  2.2678 -0.0038  0.9168
  172SAPE   C2619485   2.819   5.614   7.060  0.3872 -0.1358 -0.3864
  172SAPE   H6R19486   2.909   5.665   7.022  1.7776 -1.8456  0.5577
  172SAPE   C2719487   2.791   5.661   7.206  0.1120  0.2385 -0.6300
  172SAPE   H7R19488   2.681   5.677   7.210  0.3017  1.4755 -0.1903
  172SAPE   H7S19489   2.834   5.762   7.216 -1.3275  0.7501  0.5288
  172SAPE   C2819490   2.835   5.586   7.330  0.1018 -0.0761  0.4049
  172SAPE   H8R19491   2.897   5.497   7.311  0.1959  0.0941 -0.0999
  172SAPE   C2919492   2.818   5.630   7.457  0.4156 -0.4985  0.3906
  172SAPE   H9R19493   2.863   5.590   7.549 -2.1857 -1.7034  1.2034
  172SAPE  C21019494   2.750   5.763   7.501  0.0486  0.4261  0.2558
  172SAPE  H10R19495   2.659   5.744   7.562  0.4709 -1.9193  0.2213
  172SAPE  H10S19496   2.723   5.834   7.421  0.9942  2.0333  1.3259
  172SAPE  C21119497   2.845   5.847   7.578 -0.2316 -0.5583 -0.1118
  172SAPE  H11R19498   2.893   5.931   7.526 -2.6945  1.9592  1.5469
  172SAPE  C21219499   2.857   5.847   7.713 -0.4368 -0.0293 -0.0484
  172SAPE  H12R19500   2.927   5.917   7.761 -0.3488 -0.2347  0.1234
  172SAPE  C21319501   2.787   5.749   7.803  0.2365 -0.2732 -0.5213
  172SAPE  H13R19502   2.863   5.674   7.833  0.1852  0.7455  2.3562
  172SAPE  H13S19503   2.706   5.689   7.757 -0.3813  0.6304 -0.6160
  172SAPE  C21419504   2.714   5.826   7.918 -0.6688  0.0215  0.1532
  172SAPE  H14R19505   2.641   5.900   7.879  0.8168  0.6478 -1.5162
  172SAPE  C21519506   2.755   5.828   8.051  0.2617 -0.4585 -0.3254
  172SAPE  H15R19507   2.688   5.873   8.126 -1.3332  0.0362 -2.0078
  172SAPE  C21619508   2.868   5.743   8.103  0.3053  0.0205  0.1616
  172SAPE  H16R19509   2.903   5.666   8.030  1.3544 -1.4041  2.1069
  172SAPE  H16S19510   2.822   5.689   8.189  0.1272  1.5490  1.0408
  172SAPE  C21719511   2.975   5.825   8.173 -0.2373 -0.4964  0.0496
  172SAPE  H17R19512   2.938   5.882   8.260 -0.2817  0.9441 -0.8928
  172SAPE  H17S19513   3.027   5.890   8.098  0.9973  0.5762  1.8112
  172SAPE  C21819514   3.084   5.733   8.221  0.0182  0.2404 -0.1333
  172SAPE  H18R19515   3.125   5.659   8.150  1.4236 -0.2736  1.1966
  172SAPE  H18S19516   3.043   5.674   8.305  3.4262 -4.0871 -1.3739
  172SAPE  C21919517   3.217   5.797   8.273  0.0252 -0.3525  0.1314
  172SAPE  H19R19518   3.204   5.882   8.344  1.8760 -1.3196  1.6650
  172SAPE  H19S19519   3.256   5.829   8.175  0.1294  1.4068  0.7172
  172SAPE  C22019520   3.315   5.695   8.339 -0.4527  0.4645  0.2293
  172SAPE  H20R19521   3.408   5.750   8.366 -0.9395  1.7498 -0.6295
  172SAPE  H20S19522   3.339   5.616   8.265  2.0786  1.1188  0.3057
  172SAPE  H20T19523   3.282   5.658   8.439 -2.3045 -0.6443 -0.7535
  172SAPE   C3319524   1.910   5.316   6.901 -0.2184  0.2406  0.0406
  172SAPE   H3X19525   1.976   5.402   6.873 -0.2518  1.2235  2.8299
  172SAPE   H3Y19526   1.983   5.234   6.919  1.6980  1.4041 -2.1049
  172SAPE   C3419527   1.817   5.356   7.015  0.4400 -0.1197 -0.4630
  172SAPE   H4X19528   1.743   5.276   7.037  2.1294 -1.3001  1.0899
  172SAPE   H4Y19529   1.756   5.442   6.980  1.2802  0.1823 -1.2129
  172SAPE   C3519530   1.900   5.399   7.141 -0.5252 -0.0198 -0.5184
  172SAPE   H5X19531   1.962   5.479   7.096  3.2804 -1.7527  1.4737
  172SAPE   H5Y19532   1.969   5.324   7.185  2.1902  0.7659 -3.3190
  172SAPE   C3619533   1.802   5.466   7.246  0.2299  0.0702 -0.2543
  172SAPE   H6X19534   1.726   5.387   7.260 -0.8437  1.1361 -0.0585
  172SAPE   H6Y19535   1.753   5.558   7.208 -0.7647 -0.0398  0.7384
  172SAPE   C3719536   1.862   5.505   7.372  0.0161 -0.6283 -0.2680
  172SAPE   H7X19537   1.944   5.580   7.359 -0.8572  0.2024 -1.0381
  172SAPE   H7Y19538   1.894   5.419   7.434 -1.4311  0.4814  2.0768
  172SAPE   C3819539   1.755   5.581   7.458 -0.2748  0.4783  0.0697
  172SAPE   H8X19540   1.680   5.505   7.489  1.3647 -2.5411 -2.9984
  172SAPE   H8Y19541   1.706   5.662   7.400  1.9580  1.2106 -0.8540
  172SAPE   C3919542   1.817   5.645   7.581  0.4033  0.1210  0.1990
  172SAPE   H9X19543   1.885   5.731   7.564  0.7415 -0.1997 -0.0838
  172SAPE   H9Y19544   1.872   5.573   7.646 -1.2614 -0.7755  0.6512
  172SAPE  C31019545   1.705   5.702   7.680  0.2368  0.3326  0.6712
  172SAPE  H10X19546   1.625   5.626   7.694  0.4102 -0.1349 -0.8059
  172SAPE  H10Y19547   1.663   5.789   7.624 -1.7741 -2.1217 -1.8296
  172SAPE  C31119548   1.770   5.727   7.811  0.0361  0.2226 -0.9930
  172SAPE  H11X19549   1.704   5.801   7.862  1.4568 -0.1804  1.4767
  172SAPE  H11Y19550   1.872   5.772   7.804 -0.1877  0.9766  0.3981
  172SAPE  C31219551   1.784   5.593   7.883  0.0544 -0.2971 -0.1287
  172SAPE  H12X19552   1.846   5.516   7.832  0.5845  0.0340  0.0133
  172SAPE  H12Y19553   1.679   5.555   7.890  0.3601 -1.0926  0.2063
  172SAPE  C31319554   1.840   5.607   8.030 -0.2990  0.3844 -0.0991
  172SAPE  H13X19555   1.911   5.692   8.044  0.9847 -0.6064 -0.4823
  172SAPE  H13Y19556   1.906   5.520   8.051 -0.3253  0.7075  1.3336
  172SAPE  C31419557   1.728   5.630   8.133  0.3387 -0.0037  0.3386
  172SAPE  H14X19558   1.646   5.691   8.090 -0.5247 -1.5010 -0.1823
  172SAPE  H14Y19559   1.768   5.674   8.227 -0.5121 -1.7956  1.5613
  172SAPE  C31519560   1.676   5.486   8.179  0.1611  0.1499 -0.0605
  172SAPE  H15X19561   1.759   5.420   8.212 -0.3612 -0.8359 -0.6872
  172SAPE  H15Y19562   1.644   5.430   8.088 -1.5638 -3.6524  2.7452
  172SAPE  C31619563   1.555   5.491   8.275  0.2707  0.3465 -0.9939
  172SAPE  H16X19564   1.491   5.400   8.274  0.4152  0.2250  0.2121
  172SAPE  H16Y19565   1.491   5.581   8.265  0.3436  0.7373  1.7617
  172SAPE  C31719566   1.602   5.496   8.414  0.2904 -0.3401  0.1269
  172SAPE  H17X19567   1.671   5.584   8.411  0.3288 -0.4231 -2.4246
  172SAPE  H17Y19568   1.665   5.412   8.450  1.1583 -0.8072 -2.3866
  172SAPE  C31819569   1.484   5.520   8.513  0.5912  0.2418 -0.3606
  172SAPE  H18X19570   1.414   5.434   8.517 -1.3603  1.7455 -1.2698
  172SAPE  H18Y19571   1.425   5.609   8.482  0.1723 -0.1810 -0.7789
  172SAPE  H18Z19572   1.526   5.535   8.614  1.6719  1.3662 -0.9544
  173SOPE     N19573   2.911   2.631  11.160  0.0149  0.3253  0.1164
  173SOPE   HN119574   2.831   2.572  11.131 -0.1209  0.8429 -0.5833
  173SOPE   HN219575   2.975   2.641  11.079  0.4876  2.0525  0.6778
  173SOPE   HN319576   2.968   2.583  11.232 -0.4794 -1.5807 -0.7280
  173SOPE   C1219577   2.862   2.766  11.215 -0.1545  0.4885  0.0368
  173SOPE  H12A19578   2.901   2.841  11.142 -1.7682 -0.5454 -1.9411
  173SOPE  H12B19579   2.899   2.795  11.316 -0.7882  1.4154  0.0031
  173SOPE   C1119580   2.712   2.767  11.214  0.6829 -0.1756  0.3372
  173SOPE  H11A19581   2.682   2.854  11.277 -1.4172  0.0870 -0.9493
  173SOPE  H11B19582   2.679   2.677  11.270  0.7171 -0.1284  0.4338
  173SOPE     P19583   2.516   2.843  11.057  0.3142  0.3036  0.1483
  173SOPE   O1319584   2.533   2.985  11.081  1.1258 -0.0147 -1.0337
  173SOPE   O1419585   2.412   2.770  11.136  0.6041  0.4460  0.9017
  173SOPE   O1219586   2.661   2.767  11.081  0.2714  0.0860  0.1466
  173SOPE   O1119587   2.486   2.833  10.895  0.1858  0.0664  0.2563
  173SOPE    C119588   2.516   2.708  10.830 -0.3221 -0.6649  0.4105
  173SOPE    HA19589   2.419   2.654  10.822  0.3066 -1.8396  0.6368
  173SOPE    HB19590   2.586   2.641  10.884  0.0595 -0.3812  0.2647
  173SOPE    C219591   2.570   2.721  10.680  0.1143 -0.3709 -0.5841
  173SOPE    HS19592   2.669   2.771  10.677  0.1288 -0.4262 -0.9747
  173SOPE   O2119593   2.477   2.776  10.592  0.1265  0.1251  0.4784
  173SOPE   C2119594   2.500   2.898  10.555  0.5810 -0.2004  0.1147
  173SOPE   O2219595   2.589   2.972  10.592  0.1010 -0.6473 -0.4632
  173SOPE   C2219596   2.385   2.936  10.464  0.3457 -0.8571  0.8835
  173SOPE   H2R19597   2.300   2.964  10.530 -0.5039 -2.3632  0.4313
  173SOPE   H2S19598   2.362   2.848  10.401 -0.4536 -0.3722  0.4973
  173SOPE    C319599   2.591   2.569  10.636  0.7553 -0.0474 -0.4231
  173SOPE    HX19600   2.495   2.527  10.675  0.1327  1.5264 -0.2088
  173SOPE    HY19601   2.677   2.531  10.694  2.2772  3.4660 -0.2614
  173SOPE   O3119602   2.604   2.539  10.494  0.0028  0.0364  0.0983
  173SOPE   C3119603   2.726   2.562  10.452  0.1530 -0.3168 -0.2430
  173SOPE   O3219604   2.823   2.592  10.521  0.3100  0.2750 -0.3911
  173SOPE   C3219605   2.723   2.537  10.307 -0.0229 -0.6295  0.5256
  173SOPE   H2X19606   2.683   2.631  10.262 -0.8045 -0.6031  1.2586
  173SOPE   H2Y19607   2.656   2.450  10.294 -0.9875 -0.1896  2.3854
  173SOPE   C2319608   2.429   3.054  10.368  0.2877 -0.0798  0.7451
  173SOPE   H3R19609   2.471   3.145  10.416 -0.5446  1.5727 -1.5225
  173SOPE   H3S19610   2.337   3.090  10.317  1.4113  0.1678 -1.1420
  173SOPE   C2419611   2.516   3.006  10.258 -0.1830 -0.9357  0.9916
  173SOPE   H4R19612   2.612   2.961  10.292 -0.1361 -2.4429 -1.0490
  173SOPE   H4S19613   2.468   2.926  10.197  0.8584  0.7542 -2.1145
  173SOPE   C2519614   2.539   3.114  10.152 -0.8324 -0.5638 -0.2553
  173SOPE   H5R19615   2.439   3.142  10.114  0.0945  2.3060 -0.7510
  173SOPE   H5S19616   2.587   3.202  10.200 -1.3545 -0.7808  0.6825
  173SOPE   C2619617   2.631   3.070  10.040  0.0853  0.1763  0.7952
  173SOPE   H6R19618   2.718   3.017  10.084  0.6216 -0.3237 -0.8351
  173SOPE   H6S19619   2.575   2.988   9.991  5.4475 -3.5216  0.4062
  173SOPE   C2719620   2.653   3.182   9.930  0.0212  0.3978  0.1775
  173SOPE   H7R19621   2.549   3.212   9.906 -0.3226 -1.9547 -1.3853
  173SOPE   H7S19622   2.715   3.255   9.987  0.8560 -0.6319  0.6198
  173SOPE   C2819623   2.715   3.129   9.802 -0.0522  0.9086  0.5080
  173SOPE   H8R19624   2.806   3.073   9.829  0.7432  1.2627 -1.3309
  173SOPE   H8S19625   2.657   3.043   9.761  0.1940  0.7128  0.5709
  173SOPE   C2919626   2.746   3.227   9.694 -0.8340  0.2178 -0.1525
  173SOPE   H9119627   2.840   3.283   9.706 -0.6919 -0.3799  1.7536
  173SOPE  C21019628   2.671   3.256   9.587  0.4443 -0.1984 -0.2454
  173SOPE  H10119629   2.715   3.331   9.520  0.5028  0.5151  0.5821
  173SOPE  C21119630   2.543   3.178   9.552  0.0721  0.0559 -0.0925
  173SOPE  H11R19631   2.465   3.252   9.524  0.1759  0.5725  0.9731
  173SOPE  H11S19632   2.501   3.123   9.639 -1.6201  0.9865 -0.2867
  173SOPE  C21219633   2.566   3.092   9.428  0.0127  0.0169 -0.3858
  173SOPE  H12R19634   2.515   2.996   9.450  0.0003 -0.1365 -1.0624
  173SOPE  H12S19635   2.671   3.059   9.412 -0.5282 -1.6875 -0.5023
  173SOPE  C21319636   2.505   3.147   9.303  0.2887 -0.2049  0.8565
  173SOPE  H13R19637   2.549   3.245   9.275 -1.2215 -0.1811 -1.4992
  173SOPE  H13S19638   2.401   3.166   9.335 -0.4558 -2.6033 -0.0632
  173SOPE  C21419639   2.535   3.046   9.192  0.5541  0.7200  0.2472
  173SOPE  H14R19640   2.488   2.952   9.228 -3.5724  2.2435 -0.9552
  173SOPE  H14S19641   2.646   3.033   9.188  0.0282 -4.9338  0.1187
  173SOPE  C21519642   2.497   3.090   9.055  0.5144  0.2704  0.1971
  173SOPE  H15R19643   2.532   3.027   8.970  2.1373  0.6429  0.5794
  173SOPE  H15S19644   2.531   3.195   9.049  1.3149  0.2409  3.5138
  173SOPE  C21619645   2.340   3.090   9.035  0.0565 -0.3885 -0.0679
  173SOPE  H16R19646   2.296   3.175   9.092  0.0124 -0.8441  0.5850
  173SOPE  H16S19647   2.297   2.991   9.062  1.0954 -0.9515 -0.4568
  173SOPE  C21719648   2.293   3.105   8.893 -0.6821  0.2443  0.3509
  173SOPE  H17R19649   2.334   3.015   8.842 -1.2819 -0.3587  0.9255
  173SOPE  H17S19650   2.345   3.193   8.847  0.3175  0.0158  1.0190
  173SOPE  C21819651   2.144   3.110   8.862  0.2782 -1.0126  0.4206
  173SOPE  H18R19652   2.135   3.122   8.752  0.3810  0.6632  0.5776
  173SOPE  H18S19653   2.100   3.202   8.905 -0.0724 -0.8028 -0.3704
  173SOPE  H18T19654   2.091   3.015   8.883  0.8454 -1.0082  1.9360
  173SOPE   C3319655   2.867   2.499  10.239 -0.1727  0.5803 -0.4987
  173SOPE   H3X19656   2.844   2.435  10.152 -0.8046 -1.0265  0.8223
  173SOPE   H3Y19657   2.917   2.429  10.310 -1.0219  0.7731  0.3115
  173SOPE   C3419658   2.960   2.619  10.208  0.0578 -0.1413 -0.7834
  173SOPE   H4X19659   3.051   2.571  10.166  0.0207 -0.4356 -0.5295
  173SOPE   H4Y19660   2.987   2.668  10.304 -0.9654  0.0199 -0.5669
  173SOPE   C3519661   2.900   2.718  10.101  0.0702  0.2502  0.9466
  173SOPE   H5X19662   2.981   2.784  10.065  1.5195 -1.2216  1.4556
  173SOPE   H5Y19663   2.820   2.787  10.137 -1.6038 -1.7125  1.1467
  173SOPE   C3619664   2.846   2.649   9.973 -0.4270 -0.1453  0.0773
  173SOPE   H6X19665   2.743   2.610   9.988 -0.6583 -0.1332 -1.3850
  173SOPE   H6Y19666   2.904   2.558   9.951  0.4913  0.5477 -0.4124
  173SOPE   C3719667   2.849   2.742   9.849 -0.0265  0.2881 -0.4458
  173SOPE   H7X19668   2.950   2.788   9.849 -0.3133  0.9421  0.6517
  173SOPE   H7Y19669   2.789   2.834   9.865  2.1226  1.1855  3.0157
  173SOPE   C3819670   2.833   2.670   9.717 -0.3745 -0.3677  0.3545
  173SOPE   H8X19671   2.737   2.615   9.715 -0.5924 -0.1676  2.8784
  173SOPE   H8Y19672   2.907   2.588   9.705  0.2569  0.3654 -0.8219
  173SOPE   C3919673   2.852   2.753   9.586  0.7319 -1.2474  0.7026
  173SOPE   H9X19674   2.950   2.797   9.558  0.0830 -0.5906 -0.5739
  173SOPE   H9Y19675   2.791   2.845   9.594 -2.4650 -3.2150 -0.2306
  173SOPE  C31019676   2.800   2.676   9.463  0.4996  0.0730  1.0015
  173SOPE  H10X19677   2.736   2.588   9.485  1.7354 -1.5045 -1.5170
  173SOPE  H10Y19678   2.890   2.637   9.411  0.8927  3.7737 -1.3261
  173SOPE  C31119679   2.720   2.769   9.374 -0.7103  0.6635 -0.0300
  173SOPE  H11X19680   2.774   2.866   9.361 -0.8835  0.9550  1.3237
  173SOPE  H11Y19681   2.634   2.786   9.443  1.4846  1.8100  2.4863
  173SOPE  C31219682   2.671   2.702   9.252 -1.0053  0.0508  0.9727
  173SOPE  H12X19683   2.602   2.767   9.193  1.3511 -0.3152 -2.3539
  173SOPE  H12Y19684   2.607   2.613   9.273 -0.8453 -0.8241 -1.8966
  173SOPE  C31319685   2.784   2.664   9.150 -0.4757  0.1298  0.5386
  173SOPE  H13X19686   2.821   2.569   9.194 -0.2332 -0.1393 -0.2309
  173SOPE  H13Y19687   2.866   2.738   9.149 -1.0176  0.7315 -0.0456
  173SOPE  C31419688   2.734   2.645   9.005  0.2116  0.3668  0.0599
  173SOPE  H14X19689   2.675   2.734   8.974 -0.4509 -0.3737 -0.8367
  173SOPE  H14Y19690   2.666   2.558   9.012  0.9431 -0.2682 -0.7207
  173SOPE  C31519691   2.852   2.612   8.910  0.5360  0.4920 -0.0283
  173SOPE  H15X19692   2.875   2.504   8.896  0.4250  0.7495 -2.4678
  173SOPE  H15Y19693   2.948   2.652   8.950 -0.6230  1.9691  1.3060
  173SOPE  C31619694   2.828   2.670   8.766 -0.2017 -0.9805  0.1793
  173SOPE  H16X19695   2.835   2.781   8.766 -1.0238 -0.9246 -0.8901
  173SOPE  H16Y19696   2.724   2.654   8.731 -0.9214  3.6388 -0.0291
  173SOPE  C31719697   2.926   2.608   8.662  0.8022  0.7846 -0.4934
  173SOPE  H17X19698   2.917   2.497   8.656 -1.9832  0.8921  0.8302
  173SOPE  H17Y19699   3.024   2.639   8.704  1.0016 -0.6972  0.2057
  173SOPE  C31819700   2.909   2.684   8.529  0.2578  0.2135 -0.6356
  173SOPE  H18X19701   3.000   2.682   8.465  1.4793 -1.9764  1.0866
  173SOPE  H18Y19702   2.905   2.793   8.549  0.9104  0.3760 -1.3676
  173SOPE  H18Z19703   2.808   2.664   8.486  0.5414 -3.7039  0.3259
  174SOPE     N19704   3.062   2.501  10.614  0.0853  0.1715  0.0334
  174SOPE   HN119705   2.968   2.542  10.593 -0.4305 -1.6279 -1.2991
  174SOPE   HN219706   3.123   2.573  10.657  1.4438 -0.2703 -1.1165
  174SOPE   HN319707   3.104   2.476  10.522  3.5902 -1.0105  1.8929
  174SOPE   C1219708   3.054   2.382  10.706 -0.8297  0.1761 -0.2395
  174SOPE  H12A19709   3.002   2.419  10.797  0.5293  1.5129  0.0146
  174SOPE  H12B19710   3.157   2.354  10.738 -1.1161 -0.3276  0.2673
  174SOPE   C1119711   2.998   2.258  10.642  0.3294  0.3300  0.2304
  174SOPE  H11A19712   3.037   2.162  10.683 -1.3334 -0.4044  0.1312
  174SOPE  H11B19713   3.020   2.256  10.533  1.7064  3.6833  0.3981
  174SOPE     P19714   2.772   2.211  10.759 -0.1121 -0.3221  0.1997
  174SOPE   O1319715   2.687   2.319  10.813  0.1953  0.1151  0.2219
  174SOPE   O1419716   2.863   2.140  10.853 -0.1009  0.3085  0.1535
  174SOPE   O1219717   2.853   2.257  10.635  0.4129 -0.2765  0.5460
  174SOPE   O1119718   2.666   2.106  10.692 -0.3698  0.6751 -0.7126
  174SOPE    C119719   2.697   1.968  10.665  0.0865 -0.0718  0.4966
  174SOPE    HA19720   2.607   1.903  10.660  1.6358 -2.3259  0.6642
  174SOPE    HB19721   2.771   1.927  10.738  2.0176  0.2218 -1.2510
  174SOPE    C219722   2.758   1.953  10.528  0.4775 -0.5270 -0.8602
  174SOPE    HS19723   2.865   1.971  10.548 -0.0060  0.4626  0.9564
  174SOPE   O2119724   2.695   2.035  10.437 -0.2227 -0.1188 -0.0888
  174SOPE   C2119725   2.763   2.078  10.335  0.4483 -0.2939  0.2239
  174SOPE   O2219726   2.886   2.075  10.330  0.7716  0.3265 -0.6639
  174SOPE   C2219727   2.669   2.151  10.229 -0.6956  0.2847  0.4081
  174SOPE   H2R19728   2.665   2.254  10.270  1.2737 -0.2121  1.9200
  174SOPE   H2S19729   2.570   2.102  10.214  0.1863 -1.0015 -1.4264
  174SOPE    C319730   2.746   1.804  10.481 -0.1715 -0.5532 -0.6254
  174SOPE    HX19731   2.636   1.790  10.475 -0.4777  1.0512  0.8996
  174SOPE    HY19732   2.785   1.745  10.566 -3.0827 -0.4320  0.8648
  174SOPE   O3119733   2.808   1.776  10.357  0.1927  0.4920  0.4772
  174SOPE   C3119734   2.939   1.780  10.348  0.0190 -0.4151  0.1784
  174SOPE   O3219735   3.017   1.809  10.436  0.2649  0.5476 -0.3671
  174SOPE   C3219736   2.976   1.724  10.216  0.0862  0.2041 -0.3630
  174SOPE   H2X19737   2.893   1.688  10.152 -0.6405  1.5968 -0.2109
  174SOPE   H2Y19738   3.053   1.644  10.229 -2.5323 -2.0034  2.2230
  174SOPE   C2319739   2.748   2.158  10.098 -0.4645  0.9997 -0.5636
  174SOPE   H3R19740   2.760   2.058  10.049  1.3163  1.5203 -1.2093
  174SOPE   H3S19741   2.850   2.200  10.105 -0.5165  0.5691  3.8462
  174SOPE   C2419742   2.666   2.259  10.014  0.2561  0.0448  0.3637
  174SOPE   H4R19743   2.566   2.220   9.989 -0.5819  1.8815  0.7669
  174SOPE   H4S19744   2.650   2.355  10.068 -0.8272  0.3439 -0.4835
  174SOPE   C2519745   2.733   2.309   9.885 -0.6856 -0.0125  0.0911
  174SOPE   H5R19746   2.686   2.401   9.843 -0.8759  0.6608  1.7260
  174SOPE   H5S19747   2.834   2.336   9.923  0.2149 -0.5629 -1.8576
  174SOPE   C2619748   2.756   2.200   9.778 -0.8728  0.2233 -0.1827
  174SOPE   H6R19749   2.815   2.113   9.815  2.5852  1.7380 -1.9636
  174SOPE   H6S19750   2.649   2.170   9.771 -1.0005  0.2173  1.4681
  174SOPE   C2719751   2.817   2.257   9.650 -0.4344 -0.2156  0.5834
  174SOPE   H7R19752   2.747   2.332   9.607  1.1127  1.5157  0.9900
  174SOPE   H7S19753   2.911   2.312   9.674 -1.1839  1.0421  0.7074
  174SOPE   C2819754   2.842   2.152   9.545  0.3821  0.0803 -0.2718
  174SOPE   H8R19755   2.912   2.196   9.471  1.6102 -1.1650  0.1238
  174SOPE   H8S19756   2.898   2.069   9.594 -1.2270 -0.0314  1.4380
  174SOPE   C2919757   2.720   2.096   9.478 -0.9569 -0.0326 -0.3259
  174SOPE   H9119758   2.662   2.019   9.531  2.9221 -1.8008  1.5569
  174SOPE  C21019759   2.663   2.151   9.365  0.2755  0.3505  0.0449
  174SOPE  H10119760   2.562   2.118   9.337 -0.6163  0.8414  2.5867
  174SOPE  C21119761   2.706   2.272   9.286 -0.5243  0.2165 -0.0311
  174SOPE  H11R19762   2.813   2.291   9.307 -1.0529  1.6600  1.5041
  174SOPE  H11S19763   2.654   2.357   9.336  2.4804  2.2902 -0.3441
  174SOPE  C21219764   2.658   2.266   9.143  0.0038  0.4186  0.0441
  174SOPE  H12R19765   2.654   2.369   9.101  0.7509  0.0042 -1.0790
  174SOPE  H12S19766   2.555   2.228   9.122  0.7224 -1.1599 -0.7067
  174SOPE  C21319767   2.750   2.192   9.042  0.0755 -0.1738 -0.0408
  174SOPE  H13R19768   2.776   2.089   9.073 -2.0016 -0.3326  1.2953
  174SOPE  H13S19769   2.839   2.254   9.022 -0.5047  0.3670 -1.0175
  174SOPE  C21419770   2.689   2.167   8.897  0.2123  0.6227 -0.1865
  174SOPE  H14R19771   2.773   2.129   8.834 -1.6297 -3.3921 -0.3650
  174SOPE  H14S19772   2.660   2.266   8.856 -1.5386  0.0969 -0.2701
  174SOPE  C21519773   2.574   2.056   8.893  0.0213 -0.6467  0.0765
  174SOPE  H15R19774   2.482   2.066   8.955 -0.4073  3.3481 -1.0875
  174SOPE  H15S19775   2.615   1.967   8.946  0.9496 -0.9279 -1.0908
  174SOPE  C21619776   2.514   2.016   8.754  0.1984 -0.0583 -0.3846
  174SOPE  H16R19777   2.430   1.952   8.788 -1.7491  0.6258 -3.6378
  174SOPE  H16S19778   2.583   1.956   8.691 -0.1783 -0.5817 -0.2983
  174SOPE  C21719779   2.468   2.138   8.682  0.7641  0.5416 -0.0203
  174SOPE  H17R19780   2.553   2.207   8.665  0.8618  0.3768 -0.2002
  174SOPE  H17S19781   2.399   2.187   8.754 -1.5169 -2.4873 -0.0646
  174SOPE  C21819782   2.383   2.108   8.553  0.6435  0.3016 -0.3636
  174SOPE  H18R19783   2.279   2.076   8.577  1.8725 -2.0322  2.1522
  174SOPE  H18S19784   2.424   2.028   8.488 -0.0924 -1.9216  1.8161
  174SOPE  H18T19785   2.383   2.199   8.490 -1.4405  0.6563  0.0826
  174SOPE   C3319786   3.048   1.839  10.145  0.0610  0.0429  0.3110
  174SOPE   H3X19787   3.142   1.872  10.192 -0.3208  0.3373  0.8764
  174SOPE   H3Y19788   2.988   1.932  10.137 -0.4719 -0.4640 -2.0779
  174SOPE   C3419789   3.098   1.809  10.007 -0.0518  0.0593  0.2279
  174SOPE   H4X19790   3.155   1.896   9.971  0.6980 -0.9215 -1.0015
  174SOPE   H4Y19791   3.006   1.791   9.946  1.2941 -1.8798 -1.2767
  174SOPE   C3519792   3.196   1.680   9.994  0.7223  0.7086  0.3089
  174SOPE   H5X19793   3.139   1.585  10.002  0.1852  1.1009  1.0803
  174SOPE   H5Y19794   3.266   1.678  10.080  2.0691  2.5904 -0.7056
  174SOPE   C3619795   3.280   1.680   9.867 -0.4380  0.6700  0.3003
  174SOPE   H6X19796   3.352   1.596   9.869 -1.2360  0.0038  0.9459
  174SOPE   H6Y19797   3.344   1.771   9.866 -0.8927  0.9929  0.6544
  174SOPE   C3719798   3.187   1.677   9.741 -0.1074 -0.9445  0.4687
  174SOPE   H7X19799   3.128   1.771   9.739 -0.1483 -0.9881 -0.7506
  174SOPE   H7Y19800   3.126   1.585   9.748  2.0587 -2.4992 -0.5637
  174SOPE   C3819801   3.269   1.646   9.611  0.9842 -1.0416 -0.0941
  174SOPE   H8X19802   3.292   1.537   9.601  0.0916 -1.3400  1.0313
  174SOPE   H8Y19803   3.369   1.694   9.611  1.0758 -1.2112 -1.0128
  174SOPE   C3919804   3.202   1.705   9.486 -0.2556 -0.4472 -0.1159
  174SOPE   H9X19805   3.265   1.677   9.399  2.0070  0.9977  0.9860
  174SOPE   H9Y19806   3.171   1.812   9.488  0.0891 -0.3259 -1.1571
  174SOPE  C31019807   3.068   1.634   9.467 -0.7810  0.0677  0.5755
  174SOPE  H10X19808   3.020   1.651   9.565 -1.1466 -0.7666  0.5394
  174SOPE  H10Y19809   3.081   1.526   9.446 -2.0642  0.6564 -3.9631
  174SOPE  C31119810   2.999   1.695   9.349  0.5388  0.0685  0.3291
  174SOPE  H11X19811   3.064   1.726   9.264 -1.6722 -0.8948 -1.7697
  174SOPE  H11Y19812   2.975   1.795   9.390 -0.0360  0.4284 -0.8686
  174SOPE  C31219813   2.891   1.600   9.292  0.4957 -0.1854 -0.1193
  174SOPE  H12X19814   2.823   1.568   9.374  0.8052 -4.3441 -1.3678
  174SOPE  H12Y19815   2.944   1.510   9.254  1.0436 -1.2799  3.0557
  174SOPE  C31319816   2.804   1.656   9.177 -0.8520 -0.1236  0.1665
  174SOPE  H13X19817   2.766   1.757   9.205  0.6705  0.2466  0.9287
  174SOPE  H13Y19818   2.714   1.593   9.157  0.3200 -2.0060  0.7527
  174SOPE  C31419819   2.886   1.674   9.049  0.2117 -0.2563 -0.1201
  174SOPE  H14X19820   2.923   1.572   9.024 -1.9061 -1.2336  0.6390
  174SOPE  H14Y19821   2.978   1.729   9.079  0.7000 -1.5324  0.8023
  174SOPE  C31519822   2.815   1.730   8.929  0.4272  0.3531 -0.7412
  174SOPE  H15X19823   2.771   1.829   8.951 -2.2976 -1.3903  2.0836
  174SOPE  H15Y19824   2.728   1.668   8.900 -1.8026  3.4898 -0.9077
  174SOPE  C31619825   2.910   1.725   8.804 -0.3334 -0.6623 -0.8028
  174SOPE  H16X19826   2.949   1.623   8.787  2.5651 -0.3207  2.9816
  174SOPE  H16Y19827   3.001   1.783   8.832 -0.1689 -0.3148 -2.0537
  174SOPE  C31719828   2.823   1.779   8.683  0.2304  0.0822  0.0980
  174SOPE  H17X19829   2.804   1.888   8.693  1.6348  0.3288  0.1413
  174SOPE  H17Y19830   2.730   1.718   8.686  0.4476 -0.2362  0.4926
  174SOPE  C31819831   2.881   1.751   8.546  0.0488  0.3003  0.1290
  174SOPE  H18X19832   2.805   1.767   8.467 -1.3318 -2.7012  0.7534
  174SOPE  H18Y19833   2.915   1.646   8.531  0.7481  0.4572  0.5821
  174SOPE  H18Z19834   2.965   1.817   8.517  0.2031  1.4006  2.9251
  175SOPE     N19835   3.945   3.935  10.565  0.6845 -0.1054 -0.1493
  175SOPE   HN119836   3.850   3.965  10.535  0.1351 -1.8831 -0.2362
  175SOPE   HN219837   3.957   3.945  10.668  0.6843 -0.6510 -0.0957
  175SOPE   HN319838   4.016   3.990  10.513  2.2427  1.2643  3.2337
  175SOPE   C1219839   3.954   3.787  10.542  0.3061 -0.5111 -0.9531
  175SOPE  H12A19840   3.900   3.763  10.449 -1.8057  0.0077  0.1183
  175SOPE  H12B19841   3.911   3.740  10.633  0.9477 -1.5647 -1.1934
  175SOPE   C1119842   4.106   3.735  10.532  0.2493  0.3492 -0.2479
  175SOPE  H11A19843   4.151   3.745  10.432 -0.7162  1.8742 -0.5556
  175SOPE  H11B19844   4.088   3.629  10.561 -0.7353  1.2255  2.5475
  175SOPE     P19845   4.296   3.759  10.716  0.1918 -0.2244 -0.1363
  175SOPE   O1319846   4.256   3.636  10.790 -0.0243  0.7750  0.0223
  175SOPE   O1419847   4.354   3.874  10.795 -0.8693 -0.2976 -0.1689
  175SOPE   O1219848   4.179   3.809  10.630  0.3141 -0.4731 -0.1609
  175SOPE   O1119849   4.407   3.723  10.607 -0.3486 -0.0635  0.2967
  175SOPE    C119850   4.444   3.582  10.583  0.1029 -0.3674  0.0203
  175SOPE    HA19851   4.353   3.519  10.578  0.0870 -0.2548 -1.1194
  175SOPE    HB19852   4.516   3.546  10.660 -0.8168  0.1791  1.1537
  175SOPE    C219853   4.515   3.581  10.440  0.2743 -0.6072 -0.2168
  175SOPE    HS19854   4.608   3.642  10.446 -0.4899  0.4168  1.9218
  175SOPE   O2119855   4.421   3.643  10.352 -0.0002 -0.0223  0.0594
  175SOPE   C2119856   4.461   3.745  10.275  0.3775  0.3636 -0.3549
  175SOPE   O2219857   4.576   3.786  10.277  0.2343  0.1211  0.0863
  175SOPE   C2219858   4.347   3.802  10.189 -0.1976  0.4440  0.3363
  175SOPE   H2R19859   4.254   3.815  10.248 -1.2102 -0.5697 -1.0045
  175SOPE   H2S19860   4.330   3.728  10.108  0.0958  0.0393  0.6447
  175SOPE    C319861   4.544   3.437  10.398  0.4387 -0.8068 -0.5946
  175SOPE    HX19862   4.456   3.374  10.425 -1.3110  0.7690 -2.4533
  175SOPE    HY19863   4.632   3.404  10.457  0.2482  0.5336  0.4777
  175SOPE   O3119864   4.571   3.431  10.258  0.0822  0.9430 -0.1359
  175SOPE   C3119865   4.692   3.463  10.218 -0.3059 -0.2805 -0.7432
  175SOPE   O3219866   4.790   3.501  10.287 -0.2101 -0.5026 -0.1606
  175SOPE   C3219867   4.695   3.450  10.059 -0.2268  1.1992 -0.8656
  175SOPE   H2X19868   4.682   3.341  10.045 -0.3291  1.4376 -2.6535
  175SOPE   H2Y19869   4.792   3.491  10.025  0.0115  1.8887  0.5686
  175SOPE   C2319870   4.393   3.939  10.145 -0.3671  0.3652  0.1735
  175SOPE   H3R19871   4.449   3.992  10.226 -1.7610 -0.1876  1.5066
  175SOPE   H3S19872   4.307   4.003  10.116 -0.3475 -0.2198 -1.2095
  175SOPE   C2419873   4.486   3.937  10.019  0.2590  0.1013  0.3245
  175SOPE   H4R19874   4.509   4.043   9.998  1.0338  0.0398  0.8289
  175SOPE   H4S19875   4.586   3.893  10.038  1.8493  2.2347 -2.8165
  175SOPE   C2519876   4.435   3.863   9.901 -0.3344 -0.8288 -0.2911
  175SOPE   H5R19877   4.411   3.758   9.929  0.0201 -0.4982  1.3245
  175SOPE   H5S19878   4.336   3.909   9.880  0.0200  0.4796  0.8155
  175SOPE   C2619879   4.514   3.864   9.776 -0.1505  0.2372  0.1866
  175SOPE   H6R19880   4.534   3.972   9.758 -2.5344  0.7038  0.0762
  175SOPE   H6S19881   4.608   3.807   9.789  0.4725  1.6206  1.8390
  175SOPE   C2719882   4.449   3.809   9.650 -0.4165  0.2752  0.1179
  175SOPE   H7R19883   4.398   3.714   9.675  1.1507 -0.2909  1.2640
  175SOPE   H7S19884   4.366   3.877   9.623 -2.4486 -1.7841  1.0352
  175SOPE   C2819885   4.531   3.780   9.529  0.1780  0.1732  0.4991
  175SOPE   H8R19886   4.611   3.705   9.549  0.6313  0.3502 -0.5990
  175SOPE   H8S19887   4.462   3.736   9.453  2.1434  0.9681 -1.7915
  175SOPE   C2919888   4.591   3.905   9.473 -0.1266 -0.0506 -0.6082
  175SOPE   H9119889   4.666   3.951   9.540 -1.7494  0.2180  1.0573
  175SOPE  C21019890   4.561   3.971   9.361  0.4184 -0.1909 -0.5533
  175SOPE  H10119891   4.612   4.064   9.334 -1.2129  0.9772  0.3262
  175SOPE  C21119892   4.452   3.924   9.268 -0.4541 -1.3728  0.0001
  175SOPE  H11R19893   4.412   4.006   9.205  2.9864 -0.7331 -1.5223
  175SOPE  H11S19894   4.361   3.891   9.321  0.7051 -1.3109  2.0767
  175SOPE  C21219895   4.491   3.806   9.175 -0.3260 -0.1400 -0.1416
  175SOPE  H12R19896   4.523   3.730   9.249 -0.1099  2.0305  2.0789
  175SOPE  H12S19897   4.588   3.821   9.124 -0.0274  0.1378  0.4987
  175SOPE  C21319898   4.387   3.753   9.081  0.3166 -0.3599 -0.2879
  175SOPE  H13R19899   4.289   3.745   9.134  0.7664  3.8274  1.3554
  175SOPE  H13S19900   4.414   3.655   9.039  1.6593 -0.0376 -0.1906
  175SOPE  C21419901   4.370   3.830   8.949  0.1365  0.8054 -0.2992
  175SOPE  H14R19902   4.463   3.864   8.899  1.3938 -3.2934 -0.9140
  175SOPE  H14S19903   4.329   3.932   8.965  0.3249  1.1586 -1.9661
  175SOPE  C21519904   4.272   3.766   8.852  0.0226 -0.3004  0.0443
  175SOPE  H15R19905   4.170   3.775   8.894 -0.5333  0.0244 -1.3578
  175SOPE  H15S19906   4.296   3.658   8.843  0.9291  0.0135 -1.5496
  175SOPE  C21619907   4.293   3.828   8.709 -0.0703 -0.1376  0.3794
  175SOPE  H16R19908   4.397   3.815   8.673 -0.6919  0.5126 -1.7109
  175SOPE  H16S19909   4.289   3.937   8.726  1.3851  0.3092 -1.9796
  175SOPE  C21719910   4.199   3.781   8.596  0.7569  0.0378  0.0851
  175SOPE  H17R19911   4.232   3.837   8.506 -1.4844 -0.1229 -0.8870
  175SOPE  H17S19912   4.095   3.813   8.619  1.0812 -0.5918  2.5688
  175SOPE  C21819913   4.194   3.628   8.577 -0.2204  0.3762  0.3503
  175SOPE  H18R19914   4.141   3.607   8.481  0.1443  0.0893  0.2124
  175SOPE  H18S19915   4.133   3.578   8.655 -0.4169  0.3415  0.1756
  175SOPE  H18T19916   4.296   3.584   8.579 -0.9689 -1.5309 -1.3784
  175SOPE   C3319917   4.584   3.518   9.978 -0.1696  0.2599  0.6343
  175SOPE   H3X19918   4.580   3.626   9.999  0.3354  0.4424 -0.1715
  175SOPE   H3Y19919   4.491   3.465  10.009 -1.2288  1.3715 -0.5945
  175SOPE   C3419920   4.601   3.503   9.821  0.4065  1.3303 -0.3971
  175SOPE   H4X19921   4.679   3.575   9.786  1.1135  1.5716  1.5995
  175SOPE   H4Y19922   4.507   3.544   9.778 -1.8109 -0.1296  2.9307
  175SOPE   C3519923   4.626   3.360   9.768 -0.1946 -0.5527  0.6651
  175SOPE   H5X19924   4.530   3.308   9.788 -0.4998  0.6345  2.3557
  175SOPE   H5Y19925   4.708   3.306   9.820  0.9605 -1.7414 -2.2607
  175SOPE   C3619926   4.651   3.355   9.622 -0.1776  0.8839  0.1500
  175SOPE   H6X19927   4.739   3.419   9.600  0.3796  0.2625  0.5714
  175SOPE   H6Y19928   4.557   3.386   9.571  0.3461  0.5970 -1.0004
  175SOPE   C3719929   4.698   3.219   9.564  0.8032  0.2842 -0.3366
  175SOPE   H7X19930   4.628   3.142   9.602  2.0607 -0.7259 -0.0068
  175SOPE   H7Y19931   4.798   3.204   9.610  1.1443  2.7251 -0.1904
  175SOPE   C3819932   4.705   3.209   9.408  0.0573 -0.5001 -0.3568
  175SOPE   H8X19933   4.778   3.125   9.401  1.5330  0.8067 -0.8533
  175SOPE   H8Y19934   4.761   3.294   9.364  1.9706 -1.2238  0.6101
  175SOPE   C3919935   4.580   3.175   9.332  0.6238 -0.4837 -0.1555
  175SOPE   H9X19936   4.492   3.193   9.398  0.2473  1.3080 -1.0968
  175SOPE   H9Y19937   4.585   3.066   9.310  1.4513 -0.4078 -0.3511
  175SOPE  C31019938   4.559   3.267   9.215 -0.1887  0.2867 -0.5852
  175SOPE  H10X19939   4.551   3.374   9.245 -0.8146  0.3006 -0.8011
  175SOPE  H10Y19940   4.459   3.246   9.172  0.7109  0.6190 -2.9277
  175SOPE  C31119941   4.659   3.249   9.102  0.0612  0.3270  0.5009
  175SOPE  H11X19942   4.759   3.291   9.128  1.2778 -2.5920  0.7758
  175SOPE  H11Y19943   4.614   3.310   9.021 -0.8411  0.9753  1.4923
  175SOPE  C31219944   4.663   3.113   9.045  0.1491 -0.6846  0.0528
  175SOPE  H12X19945   4.582   3.050   9.088 -2.2991  2.9133  0.9712
  175SOPE  H12Y19946   4.753   3.057   9.077 -0.3289 -2.0050 -0.9047
  175SOPE  C31319947   4.664   3.107   8.891 -0.2475 -0.2580 -0.1570
  175SOPE  H13X19948   4.703   3.009   8.858  0.7925  0.7716 -2.0513
  175SOPE  H13Y19949   4.736   3.186   8.861  0.7948 -0.7322  1.0476
  175SOPE  C31419950   4.527   3.134   8.827  0.2929 -0.1268  0.1884
  175SOPE  H14X19951   4.481   3.231   8.853  0.2529 -0.3614  0.9960
  175SOPE  H14Y19952   4.457   3.066   8.881 -2.6208  1.3061 -1.6284
  175SOPE  C31519953   4.503   3.098   8.678 -0.7673 -0.6852 -0.8269
  175SOPE  H15X19954   4.566   3.009   8.656 -2.3020 -2.4799  1.8427
  175SOPE  H15Y19955   4.536   3.188   8.621  0.9351  0.3658  1.7422
  175SOPE  C31619956   4.355   3.049   8.645 -0.3975 -0.8704 -0.1317
  175SOPE  H16X19957   4.286   3.128   8.681  1.4856 -0.1935  2.1365
  175SOPE  H16Y19958   4.339   2.951   8.695 -1.1953 -0.6273  0.0992
  175SOPE  C31719959   4.343   3.027   8.487  0.1967  0.6603 -0.1779
  175SOPE  H17X19960   4.257   2.957   8.483  1.1254 -0.6760  2.1501
  175SOPE  H17Y19961   4.432   2.976   8.446 -0.9089 -1.2189 -0.2751
  175SOPE  C31819962   4.314   3.150   8.401 -0.8263  0.3028 -0.0634
  175SOPE  H18X19963   4.337   3.118   8.297 -0.8791 -0.7297  0.2262
  175SOPE  H18Y19964   4.379   3.237   8.421 -0.5112  0.1404 -0.3691
  175SOPE  H18Z19965   4.205   3.173   8.404 -1.2959 -1.8670  0.9882
  176SOPE     N19966   4.329   3.530  11.021 -0.0345 -0.0017  0.2708
  176SOPE   HN119967   4.241   3.478  11.041  1.0355 -1.7338  0.5062
  176SOPE   HN219968   4.341   3.595  11.101  2.9115 -1.7958  1.3388
  176SOPE   HN319969   4.304   3.594  10.943  1.5148  0.7010  0.3398
  176SOPE   C1219970   4.446   3.447  10.996  0.3883 -1.3948 -0.1700
  176SOPE  H12A19971   4.486   3.399  11.088  2.0462  2.2341  1.1031
  176SOPE  H12B19972   4.525   3.522  10.973 -2.1031  1.9490  1.7695
  176SOPE   C1119973   4.421   3.347  10.885 -0.5669 -0.3533 -1.2173
  176SOPE  H11A19974   4.521   3.309  10.855  1.4864  2.9796  0.9791
  176SOPE  H11B19975   4.373   3.395  10.797 -0.4979  2.0804  0.0116
  176SOPE     P19976   4.199   3.200  10.944 -0.0384 -0.2666  0.5704
  176SOPE   O1319977   4.142   3.319  11.004 -0.1770  0.0192  0.2629
  176SOPE   O1419978   4.169   3.069  11.005 -0.5491  0.7196  0.1960
  176SOPE   O1219979   4.348   3.225  10.924  0.2671 -0.3583  0.0983
  176SOPE   O1119980   4.154   3.198  10.792 -0.2782  0.6465  0.0230
  176SOPE    C119981   4.136   3.305  10.704 -0.1401 -0.2154  0.0484
  176SOPE    HA19982   4.230   3.300  10.644 -0.0392  2.7909 -0.0996
  176SOPE    HB19983   4.129   3.405  10.751 -0.6572 -1.3288  2.4590
  176SOPE    C219984   4.018   3.282  10.609  0.3617  0.3727  0.5403
  176SOPE    HS19985   4.014   3.176  10.576 -0.4816  1.0883 -1.7547
  176SOPE   O2119986   4.042   3.363  10.489 -0.6575  0.5499 -0.2548
  176SOPE   C2119987   4.128   3.310  10.401 -0.1356  0.5947  0.2058
  176SOPE   O2219988   4.187   3.205  10.413 -0.1182  0.4041 -0.1666
  176SOPE   C2219989   4.150   3.403  10.283 -0.2940  0.0737 -0.1407
  176SOPE   H2R19990   4.195   3.335  10.207 -1.3163  0.4484 -1.0897
  176SOPE   H2S19991   4.214   3.487  10.316 -2.6546  1.7434  0.3150
  176SOPE    C319992   3.884   3.311  10.683 -0.2832 -0.8105 -0.2563
  176SOPE    HX19993   3.898   3.402  10.746  0.1020 -1.9310  1.3033
  176SOPE    HY19994   3.869   3.230  10.758  2.0939 -1.9736 -0.9913
  176SOPE   O3119995   3.769   3.335  10.601 -0.5862 -0.4862 -0.1516
  176SOPE   C3119996   3.702   3.225  10.568  0.1082 -0.2528  0.4605
  176SOPE   O3219997   3.727   3.111  10.595 -0.0979 -0.0448 -0.2128
  176SOPE   C3219998   3.574   3.248  10.479 -0.0308 -0.3890  0.0956
  176SOPE   H2X19999   3.606   3.297  10.385 -0.2936  1.8298  1.1329
  176SOPE   H2Y20000   3.524   3.329  10.536 -0.5149 -0.7142  0.1430
  176SOPE   C2320001   4.015   3.460  10.229 -1.1283  0.0355 -0.1218
  176SOPE   H3R20002   3.970   3.526  10.307  0.6551  0.7553  0.3233
  176SOPE   H3S20003   3.943   3.380  10.204  1.2668 -1.6398 -1.8259
  176SOPE   C2420004   4.046   3.557  10.111  0.4898  0.4159 -0.3532
  176SOPE   H4R20005   3.952   3.609  10.084  0.6083  0.9841  0.3189
  176SOPE   H4S20006   4.120   3.632  10.146 -1.4425  1.7461  1.0217
  176SOPE   C2520007   4.105   3.478   9.990  0.2159 -0.2654 -0.3791
  176SOPE   H5R20008   4.214   3.465  10.008  0.6674  0.9072 -2.1933
  176SOPE   H5S20009   4.059   3.377   9.987 -0.2517 -0.1703  2.0505
  176SOPE   C2620010   4.098   3.562   9.858 -0.2663 -0.0911 -0.1012
  176SOPE   H6R20011   3.989   3.570   9.836 -0.2304 -2.9782 -1.6570
  176SOPE   H6S20012   4.147   3.661   9.869 -0.3368 -0.3001  2.4259
  176SOPE   C2720013   4.160   3.502   9.732 -0.8232 -0.5701  0.4318
  176SOPE   H7R20014   4.268   3.493   9.756 -0.5244 -2.0662 -1.3985
  176SOPE   H7S20015   4.119   3.400   9.718  1.0044 -1.5313  1.9014
  176SOPE   C2820016   4.132   3.575   9.598  0.0594  0.2432  0.2195
  176SOPE   H8R20017   4.174   3.678   9.598 -1.2869  0.7990 -0.3125
  176SOPE   H8S20018   4.197   3.532   9.519  0.8966  1.4449  0.2313
  176SOPE   C2920019   3.991   3.582   9.546 -0.1637 -0.7312 -0.0093
  176SOPE   H9120020   3.936   3.651   9.612 -2.2138  1.3705 -3.7591
  176SOPE  C21020021   3.934   3.517   9.442  0.0691  0.1681  0.3332
  176SOPE  H10120022   3.833   3.556   9.422  0.3359  0.0075 -1.3897
  176SOPE  C21120023   3.998   3.412   9.351 -0.2936  0.1136 -0.0653
  176SOPE  H11R20024   3.940   3.318   9.363  0.3534 -0.2057  0.5791
  176SOPE  H11S20025   4.101   3.385   9.383  0.3472  1.2053 -1.1933
  176SOPE  C21220026   3.999   3.458   9.205 -0.4734 -0.4810 -0.9181
  176SOPE  H12R20027   4.064   3.548   9.192 -0.1759 -0.4962  0.4316
  176SOPE  H12S20028   3.901   3.472   9.155  0.0408  1.9481 -1.3098
  176SOPE  C21320029   4.076   3.356   9.114  0.6786 -0.4637  0.7497
  176SOPE  H13R20030   4.044   3.252   9.136 -5.1855  0.9678 -0.2052
  176SOPE  H13S20031   4.186   3.370   9.126  0.8868 -1.4496  0.0930
  176SOPE  C21420032   4.052   3.376   8.961 -0.4602 -0.5435  0.1505
  176SOPE  H14R20033   4.093   3.476   8.936 -1.4128  0.4437  2.4827
  176SOPE  H14S20034   3.943   3.366   8.944 -0.3973 -3.3476  1.1525
  176SOPE  C21520035   4.123   3.264   8.871  1.4710  0.4129  0.6209
  176SOPE  H15R20036   4.229   3.255   8.906  1.8674  1.2830 -0.3294
  176SOPE  H15S20037   4.125   3.289   8.763  0.1345 -2.3235 -0.0707
  176SOPE  C21620038   4.070   3.119   8.891  0.3240 -0.1710  0.0686
  176SOPE  H16R20039   4.109   3.058   8.975  0.5275 -1.7401 -1.1452
  176SOPE  H16S20040   4.114   3.058   8.810 -2.5104 -2.0536 -0.1102
  176SOPE  C21720041   3.918   3.103   8.870 -0.9093 -0.4933  0.3315
  176SOPE  H17R20042   3.885   3.152   8.776  1.6119 -2.6282 -1.6922
  176SOPE  H17S20043   3.857   3.155   8.947  0.4013 -0.8301  1.6252
  176SOPE  C21820044   3.865   2.954   8.876 -0.2674  0.3409 -0.3603
  176SOPE  H18R20045   3.913   2.903   8.963 -2.0997  3.0341  2.3141
  176SOPE  H18S20046   3.894   2.895   8.787 -0.1720  2.0927 -1.5059
  176SOPE  H18T20047   3.754   2.958   8.881 -0.3214 -0.6498 -0.6081
  176SOPE   C3320048   3.488   3.114  10.442  0.4078 -0.2825  0.5507
  176SOPE   H3X20049   3.462   3.054  10.533  0.0346  2.2642  2.1818
  176SOPE   H3Y20050   3.550   3.046  10.380  0.8224  2.8729 -2.6257
  176SOPE   C3420051   3.368   3.138  10.353 -0.8328 -0.2815 -0.1685
  176SOPE   H4X20052   3.340   3.238  10.392  2.3986  0.4610  0.3513
  176SOPE   H4Y20053   3.294   3.059  10.377  0.9893 -1.1940  2.6359
  176SOPE   C3520054   3.404   3.127  10.198  0.8299  0.2274 -0.5894
  176SOPE   H5X20055   3.454   3.030  10.179  0.8472  0.1525 -0.1581
  176SOPE   H5Y20056   3.462   3.219  10.173 -1.1522  2.2063  1.8433
  176SOPE   C3620057   3.283   3.124  10.112 -0.1908 -0.2652 -0.6504
  176SOPE   H6X20058   3.215   3.203  10.148 -0.0405 -0.4725  0.0874
  176SOPE   H6Y20059   3.225   3.030  10.124 -0.3193 -0.0326  0.6128
  176SOPE   C3720060   3.321   3.142   9.961  0.2934  0.1502  0.3056
  176SOPE   H7X20061   3.379   3.055   9.922  3.5244  1.5128  1.8607
  176SOPE   H7Y20062   3.400   3.219   9.951  1.4682 -0.7066  2.4924
  176SOPE   C3820063   3.196   3.184   9.872 -1.3448  0.0646 -0.9719
  176SOPE   H8X20064   3.130   3.250   9.932 -0.0792 -0.1199  0.6535
  176SOPE   H8Y20065   3.139   3.093   9.845  2.5208 -3.8917  3.3890
  176SOPE   C3920066   3.242   3.258   9.748 -0.3241 -0.5309 -0.2544
  176SOPE   H9X20067   3.301   3.186   9.688  1.1934 -0.8124  1.5295
  176SOPE   H9Y20068   3.303   3.349   9.766  0.5080 -0.9715 -0.7949
  176SOPE  C31020069   3.117   3.301   9.675  0.1975  1.2156  0.1821
  176SOPE  H10X20070   3.085   3.391   9.731 -3.1953 -0.2781  0.7935
  176SOPE  H10Y20071   3.049   3.214   9.692 -0.9675  1.9580 -0.6233
  176SOPE  C31120072   3.135   3.330   9.526  0.4264  0.6536 -0.7096
  176SOPE  H11X20073   3.188   3.249   9.471 -1.5573 -0.1143 -1.5449
  176SOPE  H11Y20074   3.209   3.412   9.527 -1.2793  2.2279 -2.0168
  176SOPE  C31220075   3.005   3.370   9.446 -0.3600 -0.1120 -0.2475
  176SOPE  H12X20076   2.968   3.471   9.474 -2.2926 -0.9229  0.2049
  176SOPE  H12Y20077   2.925   3.302   9.481 -2.0553  1.5535 -0.8045
  176SOPE  C31320078   3.032   3.349   9.302 -0.1813  0.3878 -0.3149
  176SOPE  H13X20079   3.043   3.242   9.275  3.4245  0.4088  0.8235
  176SOPE  H13Y20080   3.127   3.395   9.269  0.5978 -0.7351  0.3358
  176SOPE  C31420081   2.925   3.410   9.212  1.1070  0.5127  0.3715
  176SOPE  H14X20082   2.925   3.521   9.212  1.1748  0.5159  0.9476
  176SOPE  H14Y20083   2.824   3.374   9.242  0.4779  1.9741  0.0433
  176SOPE  C31520084   2.942   3.365   9.063 -0.2708 -1.3508 -0.5970
  176SOPE  H15X20085   3.033   3.424   9.035 -1.3200  0.4644 -0.2941
  176SOPE  H15Y20086   2.868   3.428   9.008  0.5659 -1.0435 -1.3838
  176SOPE  C31620087   2.932   3.221   9.021 -0.0516 -0.4648 -0.2426
  176SOPE  H16X20088   2.833   3.178   9.048  0.2656 -1.8124 -1.1678
  176SOPE  H16Y20089   2.995   3.150   9.078 -0.6977  0.2499  1.3879
  176SOPE  C31720090   2.975   3.189   8.879  0.1478  0.2057 -0.5785
  176SOPE  H17X20091   3.082   3.212   8.856  0.4502  0.3057  0.8814
  176SOPE  H17Y20092   2.915   3.253   8.811  1.7854  1.5545 -0.8098
  176SOPE  C31820093   2.955   3.039   8.855 -0.2421  0.3065  0.4270
  176SOPE  H18X20094   2.852   3.007   8.883 -0.4874 -0.1421 -0.9171
  176SOPE  H18Y20095   3.021   2.985   8.925  1.2060  3.2122  1.3888
  176SOPE  H18Z20096   2.986   2.996   8.757  0.4415  0.6777  0.4799
  177SOPE     N20097   3.536   1.249  10.989  0.0854 -0.2384 -0.1212
  177SOPE   HN120098   3.521   1.340  11.038  1.5046  0.1890 -0.4696
  177SOPE   HN220099   3.453   1.235  10.927  0.4657 -0.4667 -0.5771
  177SOPE   HN320100   3.541   1.166  11.051 -2.7451 -1.6364 -1.6490
  177SOPE   C1220101   3.664   1.259  10.903  0.6088  0.7509  0.0775
  177SOPE  H12A20102   3.659   1.341  10.828 -5.5134 -0.2114 -0.8396
  177SOPE  H12B20103   3.677   1.159  10.857 -2.8406  1.0429 -1.7179
  177SOPE   C1120104   3.786   1.288  10.987 -0.1884 -0.3704 -0.1408
  177SOPE  H11A20105   3.759   1.380  11.042  1.5754  1.4629 -2.2094
  177SOPE  H11B20106   3.858   1.319  10.908  0.3324  1.0470  0.8775
  177SOPE     P20107   3.894   1.057  11.032  0.3425  0.0982 -0.2857
  177SOPE   O1320108   3.800   0.944  11.020  0.0309 -0.6630  0.6025
  177SOPE   O1420109   4.013   1.042  11.123 -0.0787 -0.0025  0.6518
  177SOPE   O1220110   3.815   1.177  11.082 -0.1744  0.7515  0.4019
  177SOPE   O1120111   3.942   1.101  10.884 -0.1777  0.5849 -0.3464
  177SOPE    C120112   3.981   1.001  10.785 -0.4203 -0.8233 -0.0798
  177SOPE    HA20113   4.011   0.902  10.825 -1.0109 -1.0519 -0.1994
  177SOPE    HB20114   4.076   1.036  10.738  0.6531 -3.3287  0.1418
  177SOPE    C220115   3.874   0.990  10.684  0.1815 -0.1707 -0.1723
  177SOPE    HS20116   3.914   0.941  10.592 -0.0857  2.0720 -1.5399
  177SOPE   O2120117   3.820   1.120  10.646 -0.6944 -0.2200  0.1408
  177SOPE   C2120118   3.897   1.182  10.559 -0.0006 -0.5937  0.5034
  177SOPE   O2220119   3.993   1.131  10.499  0.1298  0.0301  0.5381
  177SOPE   C2220120   3.864   1.334  10.558 -0.1490  0.2304  0.7270
  177SOPE   H2R20121   3.951   1.390  10.518  0.6316  0.4469  2.6661
  177SOPE   H2S20122   3.847   1.367  10.663  0.8195  1.3101  0.5514
  177SOPE    C320123   3.757   0.901  10.730 -0.0238 -0.7230 -0.2486
  177SOPE    HX20124   3.715   0.962  10.813  1.7581 -0.1149  0.2179
  177SOPE    HY20125   3.790   0.809  10.783  1.1727  0.7776  1.6461
  177SOPE   O3120126   3.658   0.882  10.621 -0.1220 -0.0504  0.1857
  177SOPE   C3120127   3.690   0.796  10.528 -0.2004 -0.3832  0.0462
  177SOPE   O3220128   3.797   0.730  10.530 -0.0154 -0.0819  0.2277
  177SOPE   C3220129   3.574   0.783  10.438 -0.2813  0.1349 -0.4647
  177SOPE   H2X20130   3.482   0.820  10.488 -0.8511 -0.3370 -1.1563
  177SOPE   H2Y20131   3.551   0.677  10.411 -0.5391  0.9717 -3.7363
  177SOPE   C2320132   3.732   1.372  10.485 -0.3755  0.9229  0.4605
  177SOPE   H3R20133   3.699   1.478  10.498 -3.5606 -0.0307  0.7250
  177SOPE   H3S20134   3.648   1.308  10.519 -0.7540  1.4762  0.5824
  177SOPE   C2420135   3.750   1.356  10.331 -0.0952  0.5932  0.1626
  177SOPE   H4R20136   3.729   1.250  10.306 -0.3965  0.9045 -0.9306
  177SOPE   H4S20137   3.660   1.410  10.294 -1.0398 -0.4219  0.9169
  177SOPE   C2520138   3.881   1.411  10.258  0.6194 -0.6025  0.3874
  177SOPE   H5R20139   3.915   1.510  10.296 -3.0265  0.4969  0.9256
  177SOPE   H5S20140   3.961   1.342  10.293  0.4383 -1.1999 -0.3574
  177SOPE   C2620141   3.864   1.409  10.111 -0.0987 -0.6845 -0.0957
  177SOPE   H6R20142   3.841   1.305  10.081  2.3616 -0.7343 -1.9533
  177SOPE   H6S20143   3.777   1.469  10.077  1.1642  1.0999 -0.2796
  177SOPE   C2720144   3.988   1.461  10.024 -1.2552  0.4158 -0.0362
  177SOPE   H7R20145   4.024   1.551  10.077 -0.5778 -0.8331  1.6595
  177SOPE   H7S20146   4.066   1.383  10.017 -1.8334 -0.2833  1.2086
  177SOPE   C2820147   3.937   1.490   9.881 -0.1850  0.0747  0.2155
  177SOPE   H8R20148   3.927   1.387   9.841  2.3549 -0.2273  0.2572
  177SOPE   H8S20149   3.840   1.543   9.868  0.1467  0.5026 -0.5043
  177SOPE   C2920150   4.052   1.568   9.813 -0.1891  0.1370 -0.4563
  177SOPE   H9120151   4.103   1.640   9.878  2.2576 -2.3660  0.5060
  177SOPE  C21020152   4.092   1.558   9.684 -0.5617 -0.1951  0.2491
  177SOPE  H10120153   4.176   1.619   9.646 -0.6240 -0.6860 -0.6952
  177SOPE  C21120154   4.042   1.457   9.586 -0.0091 -0.5156 -0.2311
  177SOPE  H11R20155   3.932   1.467   9.590  0.1898  1.5614  0.9731
  177SOPE  H11S20156   4.074   1.353   9.606  2.3612  0.1851 -0.1277
  177SOPE  C21220157   4.086   1.493   9.441  0.1987  0.1331 -0.4774
  177SOPE  H12R20158   4.197   1.488   9.437  0.1837 -0.1806 -0.5272
  177SOPE  H12S20159   4.067   1.600   9.419 -0.2271  0.2110  0.2737
  177SOPE  C21320160   4.037   1.403   9.323 -0.4051 -0.4908  0.2533
  177SOPE  H13R20161   3.928   1.425   9.320 -0.1910  0.4375 -2.5076
  177SOPE  H13S20162   4.059   1.297   9.346 -0.1868 -0.8994 -1.7192
  177SOPE  C21420163   4.084   1.425   9.184  0.3061 -0.5346  0.4631
  177SOPE  H14R20164   4.194   1.411   9.184  0.6120  1.5912  0.5509
  177SOPE  H14S20165   4.079   1.535   9.170  1.4415 -0.1499  2.7070
  177SOPE  C21520166   4.008   1.356   9.071 -0.5998 -0.6026 -0.1392
  177SOPE  H15R20167   3.897   1.366   9.075 -0.6159 -0.6369 -0.5458
  177SOPE  H15S20168   4.036   1.249   9.061  3.0145  0.2561  0.2383
  177SOPE  C21620169   4.059   1.421   8.937 -0.3566  0.1458  0.0158
  177SOPE  H16R20170   4.167   1.421   8.912 -0.4844 -1.7699 -0.6233
  177SOPE  H16S20171   4.028   1.528   8.944 -3.1853 -0.6287  0.0700
  177SOPE  C21720172   3.992   1.363   8.813  0.1141 -0.8432  0.2430
  177SOPE  H17R20173   3.999   1.433   8.727  1.4551  0.8748  1.7274
  177SOPE  H17S20174   3.884   1.352   8.836  0.5165  0.6985  3.1106
  177SOPE  C21820175   4.054   1.233   8.772  0.5301 -0.7044  0.2304
  177SOPE  H18R20176   3.988   1.186   8.696 -0.0058 -0.3426  0.4691
  177SOPE  H18S20177   4.065   1.166   8.860  0.7324 -1.5840 -0.4544
  177SOPE  H18T20178   4.154   1.242   8.724 -0.0135  2.4323 -0.3890
  177SOPE   C3320179   3.588   0.857  10.307  0.0982  0.5391 -0.2919
  177SOPE   H3X20180   3.625   0.962  10.316  0.9753  0.0861  1.6347
  177SOPE   H3Y20181   3.489   0.868  10.257 -0.6221  0.3293  1.0634
  177SOPE   C3420182   3.673   0.788  10.203 -0.0981 -0.1970 -0.6431
  177SOPE   H4X20183   3.627   0.690  10.177  0.0070 -0.6445  0.8044
  177SOPE   H4Y20184   3.775   0.784  10.247  0.0971  2.2824 -0.7751
  177SOPE   C3520185   3.676   0.863  10.067  0.3860 -0.4228  0.0882
  177SOPE   H5X20186   3.719   0.965  10.077  1.9919 -1.1039  0.2887
  177SOPE   H5Y20187   3.570   0.877  10.036  0.1678 -2.4040 -0.1277
  177SOPE   C3620188   3.738   0.784   9.956 -0.1804  0.1386 -0.3824
  177SOPE   H6X20189   3.669   0.700   9.931  0.2938 -0.3713  0.0169
  177SOPE   H6Y20190   3.832   0.732   9.985 -0.4746  0.5908  1.4743
  177SOPE   C3720191   3.758   0.867   9.828  0.4094  0.1742 -0.0542
  177SOPE   H7X20192   3.834   0.945   9.851  0.8890  0.1371 -1.4446
  177SOPE   H7Y20193   3.672   0.928   9.793 -0.7570 -0.9239  0.8438
  177SOPE   C3820194   3.807   0.782   9.709 -0.3213 -0.1830 -0.4361
  177SOPE   H8X20195   3.739   0.696   9.696 -1.8735  0.7000  1.5485
  177SOPE   H8Y20196   3.912   0.746   9.724 -0.5427  0.2765  2.4068
  177SOPE   C3920197   3.813   0.864   9.579 -0.0673 -0.5693 -0.2559
  177SOPE   H9X20198   3.902   0.928   9.563 -0.0260  0.2379  2.9477
  177SOPE   H9Y20199   3.730   0.932   9.549 -0.5621 -0.9785  0.1780
  177SOPE  C31020200   3.833   0.763   9.463 -0.1563  0.2245 -0.5085
  177SOPE  H10X20201   3.754   0.685   9.473 -1.2528  1.3168 -0.6265
  177SOPE  H10Y20202   3.939   0.730   9.468 -0.2518  0.0826  0.7259
  177SOPE  C31120203   3.814   0.829   9.327 -0.6628 -0.2284 -0.3872
  177SOPE  H11X20204   3.894   0.906   9.316  1.4959 -2.4821 -0.9323
  177SOPE  H11Y20205   3.722   0.890   9.321  0.0065  0.7251 -1.3679
  177SOPE  C31220206   3.828   0.733   9.211 -0.3184  0.5197 -0.2024
  177SOPE  H12X20207   3.754   0.650   9.218  0.5826 -0.4480 -1.8265
  177SOPE  H12Y20208   3.929   0.688   9.224 -0.5255  0.2173  0.4238
  177SOPE  C31320209   3.814   0.785   9.068  0.0469 -0.2784  0.6313
  177SOPE  H13X20210   3.840   0.892   9.075  2.7056 -0.8084 -0.6332
  177SOPE  H13Y20211   3.714   0.778   9.019 -0.5508  0.5286  1.7131
  177SOPE  C31420212   3.919   0.719   8.974  0.4196  0.0430 -0.3957
  177SOPE  H14X20213   3.900   0.611   8.996  2.0766 -0.3025 -0.6025
  177SOPE  H14Y20214   4.021   0.723   9.017 -0.6069 -0.7393  2.2176
  177SOPE  C31520215   3.910   0.764   8.829  0.5681 -0.1554 -0.3227
  177SOPE  H15X20216   3.940   0.870   8.820  2.0247 -0.6485 -1.5574
  177SOPE  H15Y20217   3.802   0.758   8.803  0.0796 -0.7625  1.7297
  177SOPE  C31620218   4.004   0.685   8.732  0.1167  1.0937  0.2562
  177SOPE  H16X20219   4.018   0.752   8.644 -0.6091  0.6064 -0.2362
  177SOPE  H16Y20220   3.966   0.586   8.700 -0.1242  0.7901  1.4570
  177SOPE  C31720221   4.139   0.662   8.800  0.6268  0.0610  0.1804
  177SOPE  H17X20222   4.137   0.600   8.892  0.6543 -0.7455 -0.3566
  177SOPE  H17Y20223   4.163   0.764   8.837 -2.4942  1.6086 -1.8004
  177SOPE  C31820224   4.243   0.622   8.693 -0.1590 -0.0351 -1.2565
  177SOPE  H18X20225   4.232   0.699   8.614  0.8537 -0.0666 -1.4387
  177SOPE  H18Y20226   4.214   0.522   8.656  0.7990 -0.4520 -0.8918
  177SOPE  H18Z20227   4.346   0.625   8.734 -1.0086  0.4929  0.9317
  178SOPE     N20228   0.883   6.026  10.761 -0.4818  0.1389  0.5420
  178SOPE   HN120229   0.916   6.050  10.665 -0.1058 -2.5714 -0.0469
  178SOPE   HN220230   0.903   5.927  10.786 -2.1102 -0.1726  0.6824
  178SOPE   HN320231   0.781   6.042  10.756 -0.6057 -0.6829  0.2223
  178SOPE   C1220232   0.951   6.118  10.858  0.1232 -0.0374 -0.2313
  178SOPE  H12A20233   1.048   6.074  10.888 -0.8081 -2.0924 -0.1714
  178SOPE  H12B20234   0.889   6.116  10.950 -1.7194 -1.9868 -1.4573
  178SOPE   C1120235   0.965   6.256  10.806  0.0165 -0.1624 -0.1724
  178SOPE  H11A20236   1.044   6.258  10.728 -0.1700  0.9457 -0.3419
  178SOPE  H11B20237   0.997   6.325  10.887  1.0129 -1.4583  0.5467
  178SOPE     P20238   0.833   6.462  10.705  0.5944  0.3158  0.5002
  178SOPE   O1320239   0.805   6.544  10.828 -0.1663 -0.1861 -0.4052
  178SOPE   O1420240   0.738   6.476  10.592 -0.6373 -0.2111 -0.0254
  178SOPE   O1220241   0.843   6.307  10.745 -0.3262 -0.0931  0.1200
  178SOPE   O1120242   0.984   6.496  10.659 -0.3014  0.3461 -0.4619
  178SOPE    C120243   1.033   6.430  10.538 -0.1035 -0.0162 -0.1269
  178SOPE    HA20244   0.980   6.334  10.522  2.5744 -1.3805 -1.2942
  178SOPE    HB20245   1.143   6.410  10.540  0.1823  1.5437  1.3566
  178SOPE    C220246   1.008   6.517  10.408 -0.1259 -0.5619  0.1894
  178SOPE    HS20247   0.908   6.487  10.372  0.2672 -0.5768 -0.9015
  178SOPE   O2120248   1.110   6.484  10.306  0.2892 -0.0934  0.7358
  178SOPE   C2120249   1.090   6.373  10.244  0.7114 -0.0149  0.0120
  178SOPE   O2220250   1.009   6.282  10.267 -0.3100 -0.8097 -0.7920
  178SOPE   C2220251   1.180   6.361  10.126 -0.1438  0.6574  0.2980
  178SOPE   H2R20252   1.192   6.251  10.122 -1.0286  0.5785 -0.3913
  178SOPE   H2S20253   1.274   6.415  10.152  0.4167  0.9748 -2.2289
  178SOPE    C320254   1.015   6.668  10.439  0.7753  0.1057  0.0108
  178SOPE    HX20255   1.104   6.676  10.506  0.5618 -0.0479  0.3151
  178SOPE    HY20256   0.926   6.694  10.501  0.4204 -1.3206  0.1158
  178SOPE   O3120257   1.035   6.754  10.326  0.4144 -0.0408 -0.3608
  178SOPE   C3120258   0.925   6.769  10.241 -0.1613 -0.5777 -0.2095
  178SOPE   O3220259   0.823   6.704  10.244 -0.1795 -0.3747 -0.3676
  178SOPE   C3220260   0.957   6.896  10.153  0.4321  0.7531 -0.5774
  178SOPE   H2X20261   1.064   6.886  10.126  0.0663 -1.1439 -1.4116
  178SOPE   H2Y20262   0.956   6.981  10.225  0.2551 -1.2609  1.8938
  178SOPE   C2320263   1.120   6.403   9.990  0.5811  0.2205  0.0982
  178SOPE   H3R20264   1.029   6.339   9.981  2.2847 -2.8129  3.1637
  178SOPE   H3S20265   1.188   6.369   9.909 -0.7718  0.1098 -1.0152
  178SOPE   C2420266   1.099   6.559   9.969  0.0540 -0.2677  0.3077
  178SOPE   H4R20267   1.013   6.582  10.036  0.4226 -1.1852  1.1024
  178SOPE   H4S20268   1.187   6.620   9.998 -0.1506  0.1166  0.1096
  178SOPE   C2520269   1.065   6.593   9.819  0.4078  0.1498 -0.3498
  178SOPE   H5R20270   0.976   6.531   9.794 -1.2501  3.2075 -2.3795
  178SOPE   H5S20271   1.032   6.699   9.824  0.4020  0.0880  1.0438
  178SOPE   C2620272   1.171   6.561   9.713 -0.4350  0.0413 -1.0679
  178SOPE   H6R20273   1.273   6.601   9.736 -0.2462  0.1296 -2.0385
  178SOPE   H6S20274   1.184   6.451   9.708  0.4545  0.1200 -0.6257
  178SOPE   C2720275   1.125   6.616   9.579  1.0929  0.4940 -0.4888
  178SOPE   H7R20276   1.053   6.540   9.542  0.2482 -0.5242  3.0317
  178SOPE   H7S20277   1.068   6.711   9.586 -1.0030 -0.8490  1.5892
  178SOPE   C2820278   1.229   6.619   9.469 -0.6762 -0.0195  0.5074
  178SOPE   H8R20279   1.184   6.667   9.379 -0.9837 -1.7836 -0.2841
  178SOPE   H8S20280   1.300   6.691   9.517  0.1855 -0.7022  0.2682
  178SOPE   C2920281   1.299   6.488   9.433 -0.0131 -0.3474  0.5839
  178SOPE   H9120282   1.362   6.441   9.510  1.5788  1.1400  0.2281
  178SOPE  C21020283   1.289   6.426   9.314  0.0109  0.4832 -0.8821
  178SOPE  H10120284   1.358   6.342   9.291 -0.1422  0.5448 -1.5833
  178SOPE  C21120285   1.210   6.454   9.190 -0.0274 -0.0803  0.0238
  178SOPE  H11R20286   1.194   6.563   9.199  0.3072 -0.2059  2.6359
  178SOPE  H11S20287   1.114   6.398   9.188  0.0524 -0.1869 -0.8368
  178SOPE  C21220288   1.290   6.416   9.068  0.1721 -0.6233  0.2221
  178SOPE  H12R20289   1.345   6.320   9.080  0.2898 -1.0741 -3.4240
  178SOPE  H12S20290   1.371   6.491   9.053  1.2166 -1.7761  0.0347
  178SOPE  C21320291   1.206   6.406   8.929 -0.1695  0.2253  0.5823
  178SOPE  H13R20292   1.110   6.351   8.933  0.3222 -0.7786 -0.8613
  178SOPE  H13S20293   1.269   6.368   8.845  0.0349  1.2990  0.2433
  178SOPE  C21420294   1.149   6.542   8.878 -0.0639  0.5434 -0.2205
  178SOPE  H14R20295   1.234   6.606   8.849 -0.1569  1.3737  1.2666
  178SOPE  H14S20296   1.103   6.592   8.966 -0.8381  1.1253 -0.9557
  178SOPE  C21520297   1.057   6.522   8.760 -0.4773 -0.0765 -0.5028
  178SOPE  H15R20298   1.009   6.618   8.732  0.4468  1.0966  1.7341
  178SOPE  H15S20299   0.977   6.449   8.786 -0.3993 -0.3598 -1.0604
  178SOPE  C21620300   1.136   6.485   8.636 -0.6420  0.3231  0.2400
  178SOPE  H16R20301   1.173   6.380   8.631  2.4246  1.3760 -0.3383
  178SOPE  H16S20302   1.230   6.545   8.631  0.3911 -1.1927  0.8354
  178SOPE  C21720303   1.067   6.513   8.500 -0.2004  1.0861  0.2618
  178SOPE  H17R20304   1.141   6.504   8.418  1.0288  1.3730  1.3217
  178SOPE  H17S20305   1.030   6.617   8.511 -3.6570  0.0643 -0.8124
  178SOPE  C21820306   0.950   6.418   8.472  0.2688 -0.2713 -0.6757
  178SOPE  H18R20307   0.992   6.318   8.447 -2.4617 -1.5206 -0.4587
  178SOPE  H18S20308   0.893   6.442   8.379  1.7793  1.3812 -1.1861
  178SOPE  H18T20309   0.882   6.399   8.557 -1.1670 -0.0125 -1.7389
  178SOPE   C3320310   0.863   6.921  10.034  0.5229  0.1079 -0.1330
  178SOPE   H3X20311   0.771   6.966  10.075  0.7075 -0.0474  0.4688
  178SOPE   H3Y20312   0.830   6.822   9.995 -0.5182 -0.8849  3.0640
  178SOPE   C3420313   0.925   7.002   9.918  0.8042 -0.6643 -0.9262
  178SOPE   H4X20314   1.032   6.975   9.906  1.2138  1.0884 -1.2820
  178SOPE   H4Y20315   0.934   7.109   9.946 -0.9038 -0.6330 -0.4322
  178SOPE   C3520316   0.848   6.990   9.789  0.5441  0.5033 -0.1708
  178SOPE   H5X20317   0.743   6.973   9.821  1.1721 -0.7312  1.3027
  178SOPE   H5Y20318   0.895   6.909   9.729  0.7407 -0.9211  1.8236
  178SOPE   C3620319   0.845   7.122   9.703 -0.6441  0.7135 -1.2176
  178SOPE   H6X20320   0.936   7.186   9.715  0.6778 -1.4220  0.5692
  178SOPE   H6Y20321   0.760   7.186   9.734  0.3987  0.8021  1.5740
  178SOPE   C3720322   0.821   7.100   9.556  0.8811 -0.2245 -0.1994
  178SOPE   H7X20323   0.840   6.995   9.526 -1.5956 -0.3864 -1.3325
  178SOPE   H7Y20324   0.889   7.165   9.496  0.1618 -0.6502 -1.4906
  178SOPE   C3820325   0.680   7.132   9.513  0.2789  0.4147  0.2147
  178SOPE   H8X20326   0.670   7.241   9.531  0.4268  0.1425  2.0343
  178SOPE   H8Y20327   0.607   7.074   9.574  1.2003 -1.2630 -0.2199
  178SOPE   C3920328   0.657   7.093   9.371 -0.0273  0.1030  1.5962
  178SOPE   H9X20329   0.628   6.986   9.360  0.8568 -0.2084  2.2689
  178SOPE   H9Y20330   0.746   7.103   9.306 -0.9441 -0.0006  0.3210
  178SOPE  C31020331   0.548   7.177   9.305  0.0197  0.0627 -0.3409
  178SOPE  H10X20332   0.559   7.287   9.294 -1.3124  0.0413 -2.2108
  178SOPE  H10Y20333   0.453   7.146   9.355  0.3645  1.6010  1.3138
  178SOPE  C31120334   0.532   7.130   9.160  0.1345  0.7993 -0.4832
  178SOPE  H11X20335   0.534   7.019   9.164  0.8389  0.8821  2.0115
  178SOPE  H11Y20336   0.623   7.167   9.108  1.1416  0.9292  1.3422
  178SOPE  C31220337   0.409   7.193   9.084  0.3730  0.8761  0.2196
  178SOPE  H12X20338   0.413   7.302   9.065 -0.1674  0.5548 -1.7712
  178SOPE  H12Y20339   0.323   7.155   9.143  0.0403  1.4043  0.0727
  178SOPE  C31320340   0.401   7.135   8.938  0.6050  0.1273  0.4338
  178SOPE  H13X20341   0.363   7.031   8.930  0.4319  0.2687 -0.5387
  178SOPE  H13Y20342   0.503   7.143   8.894  0.7357 -0.7987  0.5721
  178SOPE  C31420343   0.312   7.228   8.845 -0.3516 -0.1853  0.0801
  178SOPE  H14X20344   0.328   7.338   8.853 -2.4865  0.4626 -3.4342
  178SOPE  H14Y20345   0.206   7.225   8.875 -0.0235  1.2091  1.4288
  178SOPE  C31520346   0.331   7.172   8.703 -0.1089  0.3326  1.6089
  178SOPE  H15X20347   0.436   7.136   8.694  0.0723  0.7748  1.9088
  178SOPE  H15Y20348   0.330   7.252   8.626 -0.2118  0.0226  1.2893
  178SOPE  C31620349   0.233   7.055   8.654  0.2979 -0.0955 -0.0949
  178SOPE  H16X20350   0.217   7.086   8.548 -4.1815  0.2857  0.6219
  178SOPE  H16Y20351   0.139   7.079   8.706 -0.5084 -2.3750 -0.4457
  178SOPE  C31720352   0.266   6.914   8.698 -0.4936 -0.2986  0.1134
  178SOPE  H17X20353   0.217   6.914   8.797  0.9885  0.7099  0.8668
  178SOPE  H17Y20354   0.376   6.903   8.712 -0.9669 -3.3820  1.8995
  178SOPE  C31820355   0.207   6.806   8.604  0.0573  0.1624  0.6416
  178SOPE  H18X20356   0.233   6.705   8.641  1.5169  1.1482  2.4143
  178SOPE  H18Y20357   0.251   6.814   8.502 -0.7728  1.5455  0.3797
  178SOPE  H18Z20358   0.096   6.804   8.602  0.0697 -1.3437  0.7537
  179SOPE     N20359   6.260   1.042   6.404 -0.2574  0.2042 -0.2103
  179SOPE   HN120360   6.194   1.062   6.327 -0.7454 -0.3070  0.0661
  179SOPE   HN220361   6.344   1.103   6.403 -0.4913  0.5748  0.9679
  179SOPE   HN320362   6.301   0.947   6.393 -2.4127 -0.4169 -3.5853
  179SOPE   C1220363   6.199   1.052   6.549  0.2878  0.1320  0.5393
  179SOPE  H12A20364   6.283   1.026   6.617  1.0619 -1.0250 -0.8398
  179SOPE  H12B20365   6.112   0.985   6.562  1.0955 -0.5280  2.7701
  179SOPE   C1120366   6.162   1.197   6.579  0.3850  0.1056  0.0405
  179SOPE  H11A20367   6.140   1.205   6.688  1.2243 -3.0968  0.5025
  179SOPE  H11B20368   6.064   1.220   6.534  0.5125 -1.3870 -1.0209
  179SOPE     P20369   6.214   1.443   6.494  0.1573  0.3294  0.2416
  179SOPE   O1320370   6.107   1.431   6.393 -0.1152 -0.1269 -0.1417
  179SOPE   O1420371   6.335   1.523   6.453 -0.8799  0.1502  0.4333
  179SOPE   O1220372   6.251   1.297   6.553 -0.4802 -0.2361  0.6198
  179SOPE   O1120373   6.145   1.513   6.615  0.6177  0.1741 -0.3978
  179SOPE    C120374   6.201   1.557   6.737 -1.1355  0.0615 -0.0575
  179SOPE    HA20375   6.149   1.650   6.769  1.9268  0.8640  2.7741
  179SOPE    HB20376   6.306   1.588   6.720 -1.8092  1.0636 -2.6037
  179SOPE    C220377   6.193   1.456   6.857 -0.0639  0.0348  0.1332
  179SOPE    HS20378   6.213   1.350   6.830 -1.6773 -0.1109 -0.5515
  179SOPE   O2120379   6.061   1.469   6.913  0.6483  0.5370  0.6035
  179SOPE   C2120380   6.007   1.356   6.967  0.1026 -0.3514 -0.2979
  179SOPE   O2220381   6.067   1.248   6.968 -0.1793 -0.5656  0.3764
  179SOPE   C2220382   5.868   1.406   7.018  0.8766  0.1750  0.2651
  179SOPE   H2R20383   5.797   1.423   6.934 -0.7792 -2.5395  1.0412
  179SOPE   H2S20384   5.886   1.504   7.066  0.3809  0.2004  0.3963
  179SOPE    C320385   6.297   1.494   6.962  0.2619  0.0744 -0.3601
  179SOPE    HX20386   6.290   1.604   6.973  0.2716  0.2441 -1.9001
  179SOPE    HY20387   6.402   1.467   6.935 -0.3593 -1.1957 -1.5615
  179SOPE   O3120388   6.276   1.439   7.094  0.3760 -0.2529  0.3860
  179SOPE   C3120389   6.331   1.325   7.122  0.2152 -0.4138  0.3755
  179SOPE   O3220390   6.413   1.263   7.054  0.0574  0.1357  0.8226
  179SOPE   C3220391   6.283   1.295   7.265  0.1546 -0.2443  0.2921
  179SOPE   H2X20392   6.234   1.195   7.254  2.2431 -1.0916 -1.6234
  179SOPE   H2Y20393   6.196   1.361   7.288 -0.0163 -0.7595  1.1538
  179SOPE   C2320394   5.787   1.297   7.101  0.1728 -0.1175 -1.0329
  179SOPE   H3R20395   5.782   1.208   7.035  0.2591  0.3095 -1.6224
  179SOPE   H3S20396   5.685   1.336   7.117 -0.0209 -0.6379 -0.9909
  179SOPE   C2420397   5.851   1.256   7.233  0.4041  0.1037 -0.6367
  179SOPE   H4R20398   5.940   1.201   7.196 -0.2164 -1.4905  0.1635
  179SOPE   H4S20399   5.888   1.346   7.287  1.3177 -0.3398 -0.5087
  179SOPE   C2520400   5.773   1.151   7.318 -0.4561 -0.2748 -0.2702
  179SOPE   H5R20401   5.678   1.199   7.349 -2.0764 -2.8526 -1.1105
  179SOPE   H5S20402   5.757   1.055   7.264  0.3808  0.3117 -1.5806
  179SOPE   C2620403   5.862   1.131   7.446 -0.1672  0.2570 -0.0570
  179SOPE   H6R20404   5.954   1.080   7.411 -0.5141  0.4075 -1.2197
  179SOPE   H6S20405   5.886   1.231   7.488 -0.9267  0.4916 -0.1624
  179SOPE   C2720406   5.793   1.035   7.539  0.3623 -0.1504 -0.5168
  179SOPE   H7R20407   5.745   0.960   7.472 -0.3476  0.5222 -0.7748
  179SOPE   H7S20408   5.869   0.987   7.603 -0.4359  0.3695  0.8488
  179SOPE   C2820409   5.701   1.108   7.635  0.7434  0.0233  0.3622
  179SOPE   H8R20410   5.743   1.210   7.647  1.6666 -0.2667 -0.4152
  179SOPE   H8S20411   5.599   1.114   7.591  0.6011  2.7663  0.9740
  179SOPE   C2920412   5.680   1.048   7.778 -0.8489  0.1942 -0.5590
  179SOPE   H9120413   5.603   0.969   7.778  0.0998 -0.7940 -2.7675
  179SOPE  C21020414   5.747   1.071   7.889 -0.7030  0.3764 -0.4650
  179SOPE  H10120415   5.715   1.017   7.979  0.1978 -0.6165 -0.7254
  179SOPE  C21120416   5.864   1.164   7.900  0.5213  0.2350  0.0505
  179SOPE  H11R20417   5.904   1.200   7.803  2.2263  1.3739  1.1534
  179SOPE  H11S20418   5.936   1.109   7.965  0.6690  1.6356  1.0905
  179SOPE  C21220419   5.815   1.293   7.973 -0.0063  0.7814  0.3261
  179SOPE  H12R20420   5.750   1.355   7.908 -0.0519 -0.2224 -0.5871
  179SOPE  H12S20421   5.911   1.349   7.987 -1.7315  3.4729  1.8553
  179SOPE  C21320422   5.752   1.275   8.111 -0.9475  0.4518 -0.0369
  179SOPE  H13R20423   5.664   1.207   8.109 -0.1383 -0.6094  0.2635
  179SOPE  H13S20424   5.724   1.380   8.138  1.4284  1.0524  0.1812
  179SOPE  C21420425   5.842   1.219   8.221 -0.1297  0.4845 -0.0785
  179SOPE  H14R20426   5.942   1.265   8.233  0.0781 -0.0017  0.0859
  179SOPE  H14S20427   5.855   1.111   8.197 -0.0422  0.3275  0.6692
  179SOPE  C21520428   5.776   1.222   8.361 -0.4379  0.4592  0.3900
  179SOPE  H15R20429   5.673   1.181   8.364  0.4417 -1.7104  3.1189
  179SOPE  H15S20430   5.763   1.327   8.392  0.4050  1.1343 -1.4392
  179SOPE  C21620431   5.853   1.139   8.469  0.2323 -0.1132  0.3292
  179SOPE  H16R20432   5.955   1.184   8.467  0.2526 -0.1634  0.2300
  179SOPE  H16S20433   5.856   1.033   8.438  0.3473 -0.1062  0.3151
  179SOPE  C21720434   5.809   1.167   8.616 -0.5887  0.2890 -0.3460
  179SOPE  H17R20435   5.774   1.272   8.623 -2.7641 -0.3707 -1.0525
  179SOPE  H17S20436   5.896   1.162   8.685 -0.0396 -0.5170 -1.0891
  179SOPE  C21820437   5.699   1.074   8.667  0.1931  0.0367  0.1393
  179SOPE  H18R20438   5.722   0.969   8.641 -1.0733  0.3023 -2.1729
  179SOPE  H18S20439   5.600   1.100   8.624  0.8312  0.8635 -0.8504
  179SOPE  H18T20440   5.695   1.090   8.777  0.8353  1.7760 -0.0703
  179SOPE   C3320441   6.392   1.287   7.364 -0.0116 -0.4169 -0.2673
  179SOPE   H3X20442   6.439   1.387   7.371 -1.2054  0.1236  0.1119
  179SOPE   H3Y20443   6.476   1.218   7.338  1.2408  0.7472  0.5977
  179SOPE   C3420444   6.347   1.256   7.507  0.3878  0.3966  0.0117
  179SOPE   H4X20445   6.303   1.154   7.512 -3.3223  1.9648  1.1884
  179SOPE   H4Y20446   6.265   1.330   7.518 -0.5476 -0.5134 -0.7046
  179SOPE   C3520447   6.449   1.289   7.616  0.4072 -0.6826 -0.0293
  179SOPE   H5X20448   6.485   1.390   7.585 -1.4179 -0.0523 -0.1754
  179SOPE   H5Y20449   6.542   1.229   7.609  2.4201  2.2989  0.3862
  179SOPE   C3620450   6.388   1.294   7.754 -0.7046  0.8971  0.0912
  179SOPE   H6X20451   6.355   1.190   7.775  0.4130  0.6018  0.4232
  179SOPE   H6Y20452   6.296   1.355   7.758 -2.1181 -1.2489  1.8231
  179SOPE   C3720453   6.480   1.341   7.864  0.6378 -0.6758 -0.3835
  179SOPE   H7X20454   6.520   1.435   7.820 -0.1737  1.0482  2.4335
  179SOPE   H7Y20455   6.562   1.266   7.873 -1.0878 -2.5997 -0.2669
  179SOPE   C3820456   6.404   1.353   7.996 -0.1324 -0.2673 -0.1035
  179SOPE   H8X20457   6.316   1.287   7.986  0.8395 -1.5104 -0.6500
  179SOPE   H8Y20458   6.374   1.457   8.020  0.0041 -0.5126  1.1277
  179SOPE   C3920459   6.475   1.292   8.121  0.9583 -0.1300  0.1976
  179SOPE   H9X20460   6.566   1.355   8.118 -1.1224  2.9731  0.3734
  179SOPE   H9Y20461   6.509   1.189   8.097  2.5577 -0.4779  3.6986
  179SOPE  C31020462   6.412   1.317   8.261  0.9028 -0.0185 -0.8435
  179SOPE  H10X20463   6.308   1.277   8.254  0.0328  2.2471 -1.3834
  179SOPE  H10Y20464   6.394   1.426   8.277 -0.3140 -0.3771  0.3630
  179SOPE  C31120465   6.490   1.254   8.380  0.3001  0.0141  0.2092
  179SOPE  H11X20466   6.527   1.156   8.342  1.5520  0.1185  1.1421
  179SOPE  H11Y20467   6.413   1.254   8.460  1.5328  2.1846  1.4140
  179SOPE  C31220468   6.609   1.356   8.424 -0.6183 -0.1287  1.1345
  179SOPE  H12X20469   6.555   1.451   8.442 -1.2243  0.8189 -4.6938
  179SOPE  H12Y20470   6.676   1.374   8.337  1.1980  0.5313  2.6362
  179SOPE  C31320471   6.698   1.287   8.528 -0.1811  0.1675 -0.2714
  179SOPE  H13X20472   6.676   1.179   8.509 -0.4326  0.1276  0.2310
  179SOPE  H13Y20473   6.662   1.323   8.626 -0.2395 -0.2211 -0.1474
  179SOPE  C31420474   6.843   1.315   8.529 -0.1111 -0.9015  0.1133
  179SOPE  H14X20475   6.852   1.420   8.564 -0.7633 -0.5811 -0.6529
  179SOPE  H14Y20476   6.887   1.307   8.427 -1.4988  1.9495 -0.7465
  179SOPE  C31520477   6.941   1.231   8.608  0.0580  0.4980 -0.3187
  179SOPE  H15X20478   6.947   1.126   8.572 -0.6879  0.3616 -0.0598
  179SOPE  H15Y20479   6.916   1.236   8.716 -2.6583  3.3128 -0.9781
  179SOPE  C31620480   7.083   1.283   8.594  0.0451 -0.5079  0.0636
  179SOPE  H16X20481   7.087   1.388   8.630  0.7427 -0.5608  0.1624
  179SOPE  H16Y20482   7.105   1.271   8.486 -0.7490 -0.5098 -0.0982
  179SOPE  C31720483   7.187   1.194   8.668  0.0883 -0.4095  0.2998
  179SOPE  H17X20484   7.148   1.158   8.765  1.6043 -3.6696 -0.2419
  179SOPE  H17Y20485   7.272   1.258   8.701  0.2388 -0.4585  0.0109
  179SOPE  C31820486   7.249   1.084   8.583 -0.0526 -0.6823  0.0850
  179SOPE  H18X20487   7.317   1.133   8.511  0.7064 -2.9500 -0.7828
  179SOPE  H18Y20488   7.177   1.022   8.525  0.0378 -0.3540 -0.3796
  179SOPE  H18Z20489   7.312   1.015   8.643  2.9954  0.5295 -1.6142
  180SOPE     N20490   5.084   1.606   6.197  0.5356  0.0106 -0.0042
  180SOPE   HN120491   5.041   1.646   6.111 -1.7798  0.2494  1.2288
  180SOPE   HN220492   5.059   1.505   6.202  2.8924 -0.5233  1.8859
  180SOPE   HN320493   5.040   1.660   6.275 -0.4234 -1.8575  0.7790
  180SOPE   C1220494   5.240   1.609   6.219  0.7071 -0.0266  0.1510
  180SOPE  H12A20495   5.249   1.712   6.259 -0.2219 -0.0912  0.5535
  180SOPE  H12B20496   5.279   1.593   6.116 -1.6555 -0.6793 -0.6826
  180SOPE   C1120497   5.295   1.504   6.314  0.0763  0.8931 -0.5229
  180SOPE  H11A20498   5.247   1.518   6.413 -0.0494  0.1191 -0.4687
  180SOPE  H11B20499   5.405   1.510   6.329 -0.3886  0.2215  3.8858
  180SOPE     P20500   5.342   1.253   6.243 -0.4357  0.4271  0.4548
  180SOPE   O1320501   5.476   1.274   6.178  0.0665 -0.2643 -0.0938
  180SOPE   O1420502   5.257   1.149   6.175  0.1209  0.0830 -0.3645
  180SOPE   O1220503   5.253   1.381   6.266 -0.3530 -0.0511  0.1596
  180SOPE   O1120504   5.351   1.207   6.387 -0.1960 -0.2470  0.6999
  180SOPE    C120505   5.230   1.211   6.468  0.0421 -0.5715 -0.1995
  180SOPE    HA20506   5.135   1.193   6.414 -1.9957  1.4677  2.6125
  180SOPE    HB20507   5.230   1.308   6.523  0.1601 -0.1936 -0.8497
  180SOPE    C220508   5.221   1.100   6.578  0.3587  0.7032  0.1731
  180SOPE    HS20509   5.121   1.116   6.624 -0.2834  0.9233 -1.2809
  180SOPE   O2120510   5.325   1.138   6.665 -0.1040  0.0767  0.6965
  180SOPE   C2120511   5.334   1.075   6.777 -0.1063  0.3287 -0.6262
  180SOPE   O2220512   5.246   1.008   6.828  0.0263  0.4014 -0.1319
  180SOPE   C2220513   5.469   1.107   6.842 -0.1191  0.0175 -0.2067
  180SOPE   H2R20514   5.445   1.197   6.902  0.6286 -1.0473  1.7629
  180SOPE   H2S20515   5.538   1.129   6.758 -0.5161 -0.7001 -0.7253
  180SOPE    C320516   5.222   0.954   6.514  0.2518  0.5446  0.2688
  180SOPE    HX20517   5.297   0.962   6.432 -2.1289  0.8882 -1.9262
  180SOPE    HY20518   5.124   0.936   6.466 -0.1396  1.1999  0.8109
  180SOPE   O3120519   5.268   0.853   6.605  0.3685  0.5276 -0.1694
  180SOPE   C3120520   5.169   0.776   6.657  1.5440 -0.1090 -0.7175
  180SOPE   O3220521   5.049   0.786   6.627 -0.0338 -0.0699 -0.0464
  180SOPE   C3220522   5.230   0.667   6.747 -0.0629 -0.4689 -0.0608
  180SOPE   H2X20523   5.340   0.670   6.757  0.0667 -2.3679 -0.7005
  180SOPE   H2Y20524   5.188   0.572   6.707 -4.0761  1.6886 -1.2682
  180SOPE   C2320525   5.513   0.982   6.928  0.2719 -0.4517  0.2109
  180SOPE   H3R20526   5.621   0.957   6.935  0.7191  0.9120 -1.3070
  180SOPE   H3S20527   5.460   0.895   6.885  0.9760 -0.1871 -1.2276
  180SOPE   C2420528   5.475   0.991   7.072  0.4037 -0.3900 -0.7467
  180SOPE   H4R20529   5.543   1.068   7.115 -2.0586  0.3031  2.1564
  180SOPE   H4S20530   5.370   1.023   7.090  1.0126  1.3223 -0.1153
  180SOPE   C2520531   5.500   0.864   7.147  0.1029 -0.4772 -0.1244
  180SOPE   H5R20532   5.433   0.784   7.107  1.4389 -1.6395 -0.0590
  180SOPE   H5S20533   5.603   0.828   7.128  0.5221  2.0115 -2.7910
  180SOPE   C2620534   5.477   0.871   7.295 -0.4898 -0.1394 -0.6119
  180SOPE   H6R20535   5.532   0.961   7.330 -2.4636  0.1551  1.8404
  180SOPE   H6S20536   5.370   0.901   7.306 -0.8006 -1.5690  0.4091
  180SOPE   C2720537   5.529   0.753   7.376 -0.1046 -0.5492 -0.0570
  180SOPE   H7R20538   5.481   0.659   7.342  0.3824 -1.2594  1.1999
  180SOPE   H7S20539   5.639   0.747   7.358  0.1355  1.3329  0.6582
  180SOPE   C2820540   5.502   0.782   7.523  0.2006 -0.0263 -0.1915
  180SOPE   H8R20541   5.555   0.876   7.547 -0.3362  0.0139  0.8414
  180SOPE   H8S20542   5.392   0.785   7.538  0.2616 -0.6066  0.4112
  180SOPE   C2920543   5.564   0.667   7.604 -0.4512 -0.5276  0.8415
  180SOPE   H9120544   5.663   0.631   7.573 -0.2290  0.0469  0.8887
  180SOPE  C21020545   5.525   0.607   7.715 -0.6140 -0.4761  0.2804
  180SOPE  H10120546   5.586   0.524   7.752  0.4714  0.8518  1.5536
  180SOPE  C21120547   5.397   0.645   7.796  0.0889  0.1106  0.2137
  180SOPE  H11R20548   5.321   0.565   7.794 -0.1664  0.3219  1.3325
  180SOPE  H11S20549   5.342   0.734   7.758 -3.1272 -1.2837  1.4310
  180SOPE  C21220550   5.437   0.670   7.947 -0.1234 -0.5295  0.5327
  180SOPE  H12R20551   5.453   0.780   7.956  0.5980 -0.7758  2.5093
  180SOPE  H12S20552   5.529   0.611   7.968 -1.4955 -2.3325  1.6125
  180SOPE  C21320553   5.318   0.638   8.045 -0.4418  0.5926 -0.3705
  180SOPE  H13R20554   5.304   0.528   8.051 -1.3210  0.7589  0.8298
  180SOPE  H13S20555   5.224   0.684   8.009 -0.6539  0.0493 -0.5116
  180SOPE  C21420556   5.344   0.696   8.188  0.1526 -0.1833 -0.1136
  180SOPE  H14R20557   5.378   0.799   8.166  1.3852 -0.7695 -1.0076
  180SOPE  H14S20558   5.417   0.631   8.242 -0.9082 -0.9032  0.4752
  180SOPE  C21520559   5.205   0.693   8.255  0.2087  0.1696 -0.2558
  180SOPE  H15R20560   5.126   0.714   8.181 -1.0194  0.4184  1.0962
  180SOPE  H15S20561   5.205   0.756   8.347  1.1955  0.0134 -0.1515
  180SOPE  C21620562   5.172   0.552   8.312 -0.3320 -0.6524 -0.8633
  180SOPE  H16R20563   5.250   0.522   8.385 -2.5672  1.3380  2.4355
  180SOPE  H16S20564   5.178   0.479   8.228  0.6092 -0.7191 -0.7500
  180SOPE  C21720565   5.038   0.545   8.382 -0.2542  0.0425  0.1725
  180SOPE  H17R20566   5.032   0.437   8.409  1.0171  0.3538  1.8119
  180SOPE  H17S20567   4.949   0.567   8.320 -0.8437 -0.2396  0.9153
  180SOPE  C21820568   5.038   0.620   8.517 -1.2161 -0.1231 -0.2238
  180SOPE  H18R20569   5.035   0.729   8.498 -1.1307  0.0243  0.5775
  180SOPE  H18S20570   5.120   0.589   8.586 -1.2186 -0.6877 -0.4698
  180SOPE  H18T20571   4.950   0.593   8.578 -0.1185 -1.8744  0.6324
  180SOPE   C3320572   5.179   0.693   6.897  0.3863  0.8148  0.9813
  180SOPE   H3X20573   5.073   0.728   6.901 -0.0474 -0.4850  0.9494
  180SOPE   H3Y20574   5.233   0.784   6.933  2.2071  1.1605 -2.4114
  180SOPE   C3420575   5.190   0.580   7.004  0.2318  0.1506  0.6509
  180SOPE   H4X20576   5.294   0.540   6.998 -0.7746 -2.1811 -2.6345
  180SOPE   H4Y20577   5.128   0.490   6.985  0.8505 -0.7260  2.6234
  180SOPE   C3520578   5.159   0.623   7.149  0.2007 -0.3582 -0.1332
  180SOPE   H5X20579   5.051   0.648   7.155  0.1428 -1.0141  2.7197
  180SOPE   H5Y20580   5.209   0.720   7.167  0.4063 -0.8279  2.0670
  180SOPE   C3620581   5.178   0.513   7.250  0.0026 -0.5469 -0.4240
  180SOPE   H6X20582   5.281   0.473   7.241 -0.1474 -0.5452 -2.4472
  180SOPE   H6Y20583   5.110   0.427   7.233 -1.7493  0.8039 -0.3960
  180SOPE   C3720584   5.176   0.563   7.396 -0.3234 -0.1099 -0.1181
  180SOPE   H7X20585   5.082   0.617   7.421 -1.4574 -1.1230 -2.0880
  180SOPE   H7Y20586   5.263   0.626   7.422  0.7838 -2.4880  2.1736
  180SOPE   C3820587   5.183   0.454   7.503  0.4446  0.4780 -0.4673
  180SOPE   H8X20588   5.204   0.509   7.597  1.1188 -1.2299  0.4058
  180SOPE   H8Y20589   5.272   0.389   7.488  1.4295  2.1735 -2.3472
  180SOPE   C3920590   5.065   0.353   7.515 -0.5100  0.6034 -0.1390
  180SOPE   H9X20591   5.098   0.262   7.570 -3.0745  0.9093  2.0087
  180SOPE   H9Y20592   5.029   0.324   7.414  0.5596  2.6602 -1.1404
  180SOPE  C31020593   4.928   0.405   7.577 -0.4116  0.2386 -0.0990
  180SOPE  H10X20594   4.856   0.322   7.558 -0.5895  0.4120 -0.1909
  180SOPE  H10Y20595   4.891   0.491   7.517 -0.2633  0.6767  0.4387
  180SOPE  C31120596   4.944   0.433   7.725 -0.5584  0.2759 -0.0239
  180SOPE  H11X20597   5.004   0.525   7.741 -0.8905  0.4230  0.3968
  180SOPE  H11Y20598   4.993   0.344   7.771 -2.3350 -0.4272  0.5861
  180SOPE  C31220599   4.811   0.455   7.793  0.3187  0.0501 -0.8045
  180SOPE  H12X20600   4.750   0.365   7.774 -2.4757  1.4781  0.9812
  180SOPE  H12Y20601   4.746   0.527   7.739 -0.0331  0.4306  0.1158
  180SOPE  C31320602   4.822   0.506   7.933  0.0072  0.3560  0.3055
  180SOPE  H13X20603   4.902   0.583   7.944  1.3413 -1.2575  2.3783
  180SOPE  H13Y20604   4.850   0.427   8.005 -0.2799  0.5788  0.6574
  180SOPE  C31420605   4.694   0.568   7.974 -0.4063 -0.0185  0.1634
  180SOPE  H14X20606   4.622   0.484   7.966 -1.0001  0.4496  0.5834
  180SOPE  H14Y20607   4.668   0.652   7.905  1.2741  2.1938  2.1635
  180SOPE  C31520608   4.704   0.628   8.114  0.3053  0.2461 -0.4901
  180SOPE  H15X20609   4.751   0.728   8.106  0.3498  0.0694 -3.0473
  180SOPE  H15Y20610   4.768   0.558   8.171  0.9799  0.3701 -1.0890
  180SOPE  C31620611   4.574   0.647   8.200 -0.2816  0.3649 -0.2558
  180SOPE  H16X20612   4.510   0.556   8.199  0.0227  0.1375  0.7748
  180SOPE  H16Y20613   4.523   0.736   8.157  2.9272  1.1660 -2.5559
  180SOPE  C31720614   4.617   0.681   8.349 -0.3785  0.2246 -0.3783
  180SOPE  H17X20615   4.688   0.767   8.349  0.4703 -0.4533  1.1917
  180SOPE  H17Y20616   4.671   0.592   8.387 -0.5838  0.7018  1.0606
  180SOPE  C31820617   4.504   0.710   8.444 -0.0740 -0.1097  1.0456
  180SOPE  H18X20618   4.551   0.745   8.538  0.4469 -0.1410  0.7977
  180SOPE  H18Y20619   4.445   0.618   8.463  0.7882 -0.9013 -0.0883
  180SOPE  H18Z20620   4.442   0.795   8.408 -1.3008 -0.2317  2.7913
  181SOPE     N20621   5.054   5.286   5.905  0.6592 -0.5160  0.0078
  181SOPE   HN120622   4.952   5.281   5.923  0.8558 -1.6116  0.8155
  181SOPE   HN220623   5.078   5.191   5.870  2.9116  0.1033 -0.2480
  181SOPE   HN320624   5.102   5.299   5.996  0.2605 -0.6404  0.2357
  181SOPE   C1220625   5.077   5.389   5.801 -0.0503  0.2867 -0.4753
  181SOPE  H12A20626   4.993   5.393   5.729  0.3406  1.1216 -0.8888
  181SOPE  H12B20627   5.169   5.353   5.749  2.1551  1.2232  2.6314
  181SOPE   C1120628   5.107   5.525   5.868 -0.6042  0.7499 -0.9817
  181SOPE  H11A20629   5.102   5.597   5.783  0.7378 -1.7465 -3.2629
  181SOPE  H11B20630   5.210   5.533   5.909 -0.8721 -0.1430 -0.1268
  181SOPE     P20631   5.027   5.675   6.061  0.3039 -0.5395  0.2764
  181SOPE   O1320632   4.912   5.689   6.152 -0.5100  0.0208  0.5870
  181SOPE   O1420633   5.074   5.791   5.987 -0.4286  0.1866 -0.3199
  181SOPE   O1220634   5.000   5.558   5.960 -0.4051 -0.4615 -0.0792
  181SOPE   O1120635   5.138   5.613   6.154  0.3679  0.4669 -0.1065
  181SOPE    C120636   5.239   5.694   6.220  0.6647  0.1869  0.1059
  181SOPE    HA20637   5.204   5.798   6.237 -1.4125 -0.3457 -0.7247
  181SOPE    HB20638   5.330   5.689   6.157  0.1904  0.6267 -0.6292
  181SOPE    C220639   5.256   5.643   6.364 -0.1657 -0.4590  0.2508
  181SOPE    HS20640   5.255   5.532   6.369 -1.3199 -0.4296  0.8248
  181SOPE   O2120641   5.152   5.700   6.440 -0.0622 -0.1054  0.2241
  181SOPE   C2120642   5.042   5.633   6.450  0.0482  0.4345  0.0229
  181SOPE   O2220643   5.017   5.525   6.395  0.1484 -0.3591  0.5357
  181SOPE   C2220644   4.942   5.714   6.544 -1.3590  0.6307 -0.6276
  181SOPE   H2R20645   4.841   5.708   6.499 -0.0116 -0.6194 -3.6631
  181SOPE   H2S20646   4.970   5.820   6.558  0.0595  0.2319 -0.3491
  181SOPE    C320647   5.397   5.677   6.418  0.1604 -0.4099 -0.3561
  181SOPE    HX20648   5.393   5.788   6.418  1.1113 -0.3750 -0.9615
  181SOPE    HY20649   5.473   5.635   6.348  0.0586 -2.0141  0.4727
  181SOPE   O3120650   5.416   5.617   6.542  0.3412  0.9284 -0.4115
  181SOPE   C3120651   5.500   5.682   6.617  0.0043  0.1476 -0.0209
  181SOPE   O3220652   5.575   5.771   6.587 -0.4615  0.0338  0.2695
  181SOPE   C3220653   5.486   5.626   6.761  0.2990 -0.3396  0.1312
  181SOPE   H2X20654   5.485   5.515   6.764  0.1114 -0.3209  0.8070
  181SOPE   H2Y20655   5.393   5.665   6.806  0.6514 -0.5811  1.0742
  181SOPE   C2320656   4.921   5.644   6.682 -0.4250 -0.8661  0.5230
  181SOPE   H3R20657   4.866   5.549   6.669 -1.7422 -0.0281 -0.2111
  181SOPE   H3S20658   4.857   5.711   6.744 -1.0355  0.4871 -1.5062
  181SOPE   C2420659   5.052   5.624   6.765  1.0945  0.1202  0.6470
  181SOPE   H4R20660   5.106   5.540   6.716 -1.1764 -0.7963 -0.3793
  181SOPE   H4S20661   5.107   5.720   6.761 -0.1220  0.7862 -1.0850
  181SOPE   C2520662   5.032   5.589   6.907  0.2447  0.1677 -0.1280
  181SOPE   H5R20663   4.986   5.675   6.959  0.5173  1.6776 -2.3459
  181SOPE   H5S20664   4.971   5.496   6.913 -0.3218  0.4470 -1.4155
  181SOPE   C2620665   5.161   5.554   6.981  0.0616 -0.1145  0.2418
  181SOPE   H6R20666   5.254   5.538   6.921  0.1100 -2.7807  0.9840
  181SOPE   H6S20667   5.199   5.646   7.031  0.3536 -0.1728  0.1276
  181SOPE   C2720668   5.155   5.436   7.071  0.2941 -0.1023  0.1834
  181SOPE   H7R20669   5.057   5.411   7.118  0.0017 -0.5194 -0.6411
  181SOPE   H7S20670   5.172   5.342   7.014  2.4975 -0.5115  1.4522
  181SOPE   C2820671   5.266   5.439   7.185 -0.3584  0.2935  0.0832
  181SOPE   H8R20672   5.269   5.336   7.226 -1.4007  0.6146  0.9851
  181SOPE   H8S20673   5.365   5.458   7.138 -0.6126  1.7481  0.1172
  181SOPE   C2920674   5.244   5.540   7.290 -0.4299  0.1174 -0.4692
  181SOPE   H9120675   5.270   5.643   7.262  0.5613  0.5153  1.8346
  181SOPE  C21020676   5.190   5.512   7.414  0.6927 -0.1116 -0.3192
  181SOPE  H10120677   5.164   5.596   7.480 -1.0171 -0.2576 -0.7894
  181SOPE  C21120678   5.151   5.384   7.481  0.2143  0.2196  0.2453
  181SOPE  H11R20679   5.160   5.287   7.427  0.7077 -0.0432  0.7977
  181SOPE  H11S20680   5.041   5.392   7.495  0.0864  0.0894 -0.6020
  181SOPE  C21220681   5.208   5.365   7.617 -0.1313 -0.7555 -0.1353
  181SOPE  H12R20682   5.208   5.450   7.688 -1.9368 -0.0813 -0.9083
  181SOPE  H12S20683   5.316   5.340   7.609  0.1364  0.9035 -2.0435
  181SOPE  C21320684   5.137   5.246   7.682  0.0925 -0.4915 -0.4556
  181SOPE  H13R20685   5.148   5.156   7.618  0.8482  1.2151 -2.7909
  181SOPE  H13S20686   5.027   5.262   7.678  0.2575  0.2399 -2.4845
  181SOPE  C21420687   5.181   5.224   7.824  0.2745 -0.2077  0.4228
  181SOPE  H14R20688   5.165   5.317   7.882  0.4040 -0.0682  0.2321
  181SOPE  H14S20689   5.290   5.201   7.828  0.7893  2.2991  1.3342
  181SOPE  C21520690   5.112   5.108   7.892  0.2395  0.1665 -0.1014
  181SOPE  H15R20691   5.103   5.024   7.820 -0.5967  2.3769 -2.6582
  181SOPE  H15S20692   5.008   5.144   7.908 -0.0445  0.0068 -1.5396
  181SOPE  C21620693   5.174   5.061   8.021  0.3107  0.1358  0.1553
  181SOPE  H16R20694   5.224   5.148   8.070 -0.3443  0.4861  0.2000
  181SOPE  H16S20695   5.264   4.998   8.005  0.2628 -0.8276  3.3788
  181SOPE  C21720696   5.072   5.008   8.122 -0.7400  0.4742  0.1049
  181SOPE  H17R20697   5.000   4.934   8.080 -1.2727  0.1196  1.5976
  181SOPE  H17S20698   5.013   5.093   8.163 -3.0307 -1.1135  0.2081
  181SOPE  C21820699   5.138   4.937   8.243  0.4116 -0.0835  0.2631
  181SOPE  H18R20700   5.062   4.907   8.318  0.0965 -0.6103 -0.2615
  181SOPE  H18S20701   5.209   5.002   8.298  2.0087  0.4318 -2.2922
  181SOPE  H18T20702   5.201   4.852   8.209  1.7691  0.1492  2.1066
  181SOPE   C3320703   5.584   5.680   6.872  0.2187 -0.5075  0.5490
  181SOPE   H3X20704   5.610   5.787   6.858  0.1167 -0.5527  0.0026
  181SOPE   H3Y20705   5.677   5.620   6.866 -0.1487 -1.2731  2.2576
  181SOPE   C3420706   5.535   5.672   7.013 -0.8806 -0.0706 -0.1311
  181SOPE   H4X20707   5.488   5.572   7.025 -1.2336  0.1657  0.4980
  181SOPE   H4Y20708   5.459   5.751   7.032  1.2226  1.6326  1.5162
  181SOPE   C3520709   5.654   5.698   7.106 -0.2742  0.1983 -0.3536
  181SOPE   H5X20710   5.717   5.779   7.064  0.0436  0.2322  0.1856
  181SOPE   H5Y20711   5.722   5.610   7.108 -1.6107 -0.8360  1.1264
  181SOPE   C3620712   5.618   5.717   7.259 -0.8293  0.2701  0.6485
  181SOPE   H6X20713   5.522   5.667   7.282 -1.0358  0.1924 -0.3578
  181SOPE   H6Y20714   5.586   5.823   7.269 -0.4158  0.5489 -0.8603
  181SOPE   C3720715   5.732   5.677   7.359  0.4483 -0.7286  0.3048
  181SOPE   H7X20716   5.819   5.736   7.321 -0.3579 -0.1491 -0.6711
  181SOPE   H7Y20717   5.758   5.569   7.367  3.2072 -0.0938  0.4608
  181SOPE   C3820718   5.697   5.736   7.495  0.1975 -0.4076 -0.8140
  181SOPE   H8X20719   5.668   5.844   7.491  1.3543 -0.0420  0.2528
  181SOPE   H8Y20720   5.785   5.736   7.563 -0.1253 -1.6514 -0.3945
  181SOPE   C3920721   5.601   5.646   7.558 -0.2518 -0.3125  0.2642
  181SOPE   H9X20722   5.630   5.540   7.541 -0.4313  0.0561 -2.7407
  181SOPE   H9Y20723   5.504   5.676   7.511 -0.7914 -0.6401  1.1713
  181SOPE  C31020724   5.597   5.682   7.710 -0.7190  0.2556 -0.5358
  181SOPE  H10X20725   5.571   5.789   7.720  1.0452  0.4308  2.9035
  181SOPE  H10Y20726   5.695   5.668   7.761 -0.8033  2.1068  0.1770
  181SOPE  C31120727   5.489   5.595   7.775  0.3706  0.1848 -0.1022
  181SOPE  H11X20728   5.499   5.488   7.748  4.0322  0.3909  0.1308
  181SOPE  H11Y20729   5.397   5.631   7.725  0.6224  1.2934  0.2042
  181SOPE  C31220730   5.473   5.614   7.925  0.9418 -0.7115 -0.5847
  181SOPE  H12X20731   5.457   5.721   7.947 -1.5867 -1.2733  0.5672
  181SOPE  H12Y20732   5.564   5.571   7.973 -0.8294 -3.1177  0.7211
  181SOPE  C31320733   5.345   5.538   7.981  0.0867 -0.1316  0.5193
  181SOPE  H13X20734   5.354   5.430   7.959  2.2609 -0.0040  0.7092
  181SOPE  H13Y20735   5.257   5.572   7.921 -0.3115 -1.7808  0.1473
  181SOPE  C31420736   5.311   5.565   8.134 -0.2280  0.5827  0.0290
  181SOPE  H14X20737   5.324   5.675   8.139  1.3225  0.7276 -4.7962
  181SOPE  H14Y20738   5.385   5.511   8.198  0.5452  1.0716 -0.4501
  181SOPE  C31520739   5.169   5.534   8.169  0.1289 -0.0315 -0.6036
  181SOPE  H15X20740   5.151   5.425   8.184 -0.3658 -0.0521 -1.3257
  181SOPE  H15Y20741   5.108   5.569   8.083 -2.4124 -0.6706  0.9035
  181SOPE  C31620742   5.126   5.604   8.291 -0.0145 -0.0687 -0.4357
  181SOPE  H16X20743   5.016   5.614   8.289 -0.0970 -0.9252 -0.3970
  181SOPE  H16Y20744   5.182   5.700   8.293  1.7130 -1.0179 -1.5679
  181SOPE  C31720745   5.149   5.529   8.421 -0.1116 -0.4942 -0.3704
  181SOPE  H17X20746   5.141   5.609   8.498 -0.5485 -2.1477  1.3519
  181SOPE  H17Y20747   5.252   5.487   8.422  0.0701 -0.0431 -0.5246
  181SOPE  C31820748   5.044   5.418   8.458  0.0042 -0.0563 -0.3998
  181SOPE  H18X20749   5.094   5.354   8.533 -2.3026 -1.8247 -0.2990
  181SOPE  H18Y20750   5.027   5.366   8.362 -2.1293 -0.8614  0.3896
  181SOPE  H18Z20751   4.944   5.457   8.487  0.6285  1.6377 -0.4545
  182SOPE     N20752   5.838   1.430   6.387 -0.0559  0.0303 -0.2052
  182SOPE   HN120753   5.819   1.413   6.487 -2.1138 -0.9185 -0.7308
  182SOPE   HN220754   5.931   1.400   6.352 -0.4772 -0.7534 -0.6894
  182SOPE   HN320755   5.855   1.528   6.357 -0.2233 -0.3179 -1.4711
  182SOPE   C1220756   5.729   1.357   6.314  0.2731  0.4138  0.4214
  182SOPE  H12A20757   5.724   1.394   6.209  1.5220  0.0647  0.2430
  182SOPE  H12B20758   5.635   1.386   6.367 -0.3922  0.3731 -0.7079
  182SOPE   C1120759   5.748   1.206   6.315 -0.0573  0.1869  0.7626
  182SOPE  H11A20760   5.655   1.171   6.267  0.3013  1.8843 -1.2823
  182SOPE  H11B20761   5.759   1.169   6.419  0.0005 -2.6785 -0.2343
  182SOPE     P20762   5.922   1.033   6.245  0.2137 -0.1742 -0.2642
  182SOPE   O1320763   6.067   1.042   6.223  0.2968 -0.2116  0.2175
  182SOPE   O1420764   5.850   0.944   6.152 -0.0583 -0.6656 -0.0638
  182SOPE   O1220765   5.862   1.177   6.243  1.1290  0.2978 -0.1624
  182SOPE   O1120766   5.881   0.988   6.393  0.2825  0.0579 -0.1887
  182SOPE    C120767   5.766   0.899   6.411  0.2851 -0.4982 -0.3085
  182SOPE    HA20768   5.796   0.796   6.382 -1.2877 -1.9042  2.7798
  182SOPE    HB20769   5.679   0.938   6.354  0.0170 -0.9278 -0.1985
  182SOPE    C220770   5.726   0.890   6.562  0.3135 -0.1257 -0.0182
  182SOPE    HS20771   5.667   0.980   6.587 -1.0908 -1.1561  0.4616
  182SOPE   O2120772   5.837   0.880   6.650  0.2757 -0.2073 -0.4364
  182SOPE   C2120773   5.864   0.996   6.716  0.7195 -0.2225  0.9788
  182SOPE   O2220774   5.804   1.098   6.712  0.3067 -0.7996 -0.7401
  182SOPE   C2220775   5.981   0.973   6.809 -0.2521 -0.9118 -0.0580
  182SOPE   H2R20776   6.015   1.077   6.829 -1.7409 -0.6637  1.3409
  182SOPE   H2S20777   6.061   0.915   6.759  1.8420  0.6942  1.3500
  182SOPE    C320778   5.619   0.769   6.582  1.2413 -0.1444  0.6277
  182SOPE    HX20779   5.651   0.680   6.523  2.2879  0.2952  0.5039
  182SOPE    HY20780   5.522   0.802   6.539  1.4274  2.3636  2.0396
  182SOPE   O3120781   5.589   0.739   6.717  0.8214  0.0843  0.1984
  182SOPE   C3120782   5.623   0.617   6.760 -0.1633  0.1186 -0.5797
  182SOPE   O3220783   5.666   0.526   6.695 -0.4149  0.0137  0.0253
  182SOPE   C3220784   5.603   0.613   6.903 -0.2200 -0.3450 -0.4585
  182SOPE   H2X20785   5.495   0.634   6.920  0.3642  1.8853  0.6521
  182SOPE   H2Y20786   5.668   0.691   6.949 -0.9573  0.8095 -1.3572
  182SOPE   C2320787   5.951   0.901   6.946 -0.7884 -0.1610  0.0712
  182SOPE   H3R20788   5.860   0.945   6.993 -0.8922 -0.4791  0.1688
  182SOPE   H3S20789   6.037   0.930   7.010 -0.5660  1.3934 -0.9093
  182SOPE   C2420790   5.938   0.744   6.929 -0.4765  0.0100  0.2264
  182SOPE   H4R20791   5.849   0.717   6.868 -0.0553  0.2301 -0.5029
  182SOPE   H4S20792   6.023   0.710   6.865  0.3150 -1.2693  1.9330
  182SOPE   C2520793   5.944   0.662   7.064  0.0248 -0.8793  0.7431
  182SOPE   H5R20794   5.884   0.703   7.147 -0.6830 -0.7830  0.1882
  182SOPE   H5S20795   5.908   0.560   7.041  0.4998 -0.3646 -2.5374
  182SOPE   C2620796   6.088   0.663   7.128 -0.9527 -0.6237  0.8542
  182SOPE   H6R20797   6.153   0.612   7.054  1.1037  2.1250  0.6676
  182SOPE   H6S20798   6.132   0.762   7.152 -1.5634 -0.4515  1.2839
  182SOPE   C2720799   6.094   0.570   7.253 -0.3356  0.0361 -0.0810
  182SOPE   H7R20800   6.055   0.472   7.217 -0.8007 -0.1314  0.8503
  182SOPE   H7S20801   6.203   0.568   7.273 -0.5380  0.3438  1.1083
  182SOPE   C2820802   6.017   0.615   7.378  0.1132  0.1473 -0.8149
  182SOPE   H8R20803   6.038   0.722   7.399  0.6322  0.2055 -1.5939
  182SOPE   H8S20804   5.908   0.614   7.356 -0.3380 -0.1861  1.3531
  182SOPE   C2920805   6.055   0.528   7.493  0.4594 -0.2111  0.5858
  182SOPE   H9120806   6.113   0.443   7.453  0.7823 -0.2607  1.1574
  182SOPE  C21020807   6.032   0.557   7.623  0.1329 -0.2009  0.4901
  182SOPE  H10120808   6.067   0.488   7.701  0.5544  0.5518  0.9642
  182SOPE  C21120809   5.971   0.680   7.671 -0.2278  0.7305 -0.5583
  182SOPE  H11R20810   5.897   0.718   7.597  0.3338  0.5268 -1.2290
  182SOPE  H11S20811   6.045   0.761   7.685  2.3073 -1.5285 -0.5254
  182SOPE  C21220812   5.884   0.660   7.798  0.6090 -0.3102  0.7651
  182SOPE  H12R20813   5.809   0.583   7.767  2.5794 -1.3617 -1.5575
  182SOPE  H12S20814   5.835   0.752   7.834 -1.3647 -1.7630  1.9213
  182SOPE  C21320815   5.949   0.593   7.920 -0.3172 -0.4099 -0.0263
  182SOPE  H13R20816   6.029   0.652   7.970 -0.3603 -2.2966  2.3471
  182SOPE  H13S20817   5.996   0.501   7.880  0.1417  0.0884 -0.6469
  182SOPE  C21420818   5.846   0.553   8.028 -0.0596 -0.0953  0.2238
  182SOPE  H14R20819   5.798   0.456   8.004  1.7463 -0.7077 -0.9911
  182SOPE  H14S20820   5.759   0.622   8.025  0.6624  0.7919 -0.8469
  182SOPE  C21520821   5.903   0.552   8.177 -0.6151 -0.7707  0.6070
  182SOPE  H15R20822   5.955   0.647   8.198 -1.5516 -0.0486 -0.2982
  182SOPE  H15S20823   5.982   0.475   8.182  0.3557  0.2474  1.0603
  182SOPE  C21620824   5.798   0.518   8.280  0.0061  0.8363 -0.5264
  182SOPE  H16R20825   5.844   0.489   8.377  0.9472  0.3598 -1.1143
  182SOPE  H16S20826   5.754   0.421   8.249 -0.9718  1.3426 -0.7503
  182SOPE  C21720827   5.681   0.617   8.287 -0.3982 -0.6817 -0.1350
  182SOPE  H17R20828   5.605   0.576   8.357  0.9889 -1.9307  0.6848
  182SOPE  H17S20829   5.620   0.624   8.195 -1.2943 -1.7182  0.3629
  182SOPE  C21820830   5.718   0.762   8.324 -0.0368  0.2321 -0.3925
  182SOPE  H18R20831   5.628   0.827   8.317  0.0732  0.3665 -0.5858
  182SOPE  H18S20832   5.783   0.805   8.245  0.9312  0.6894  0.6285
  182SOPE  H18T20833   5.769   0.764   8.423  0.3872 -3.0557 -0.5065
  182SOPE   C3320834   5.653   0.479   6.965  0.3693 -0.6110 -0.2291
  182SOPE   H3X20835   5.754   0.458   6.922 -0.3350 -0.5413 -1.9594
  182SOPE   H3Y20836   5.594   0.400   6.914  1.2045 -0.3087 -1.7151
  182SOPE   C3420837   5.634   0.483   7.109 -0.3428  0.2605 -0.5640
  182SOPE   H4X20838   5.533   0.515   7.144  0.4301  1.2261  0.8028
  182SOPE   H4Y20839   5.702   0.565   7.140  0.8303 -0.6761 -0.6229
  182SOPE   C3520840   5.680   0.357   7.180 -0.2909 -0.0156  0.0645
  182SOPE   H5X20841   5.788   0.355   7.156 -0.5808  0.4555 -1.2802
  182SOPE   H5Y20842   5.625   0.268   7.142  0.3370  0.3695 -1.7699
  182SOPE   C3620843   5.673   0.373   7.326 -0.5349 -0.3246 -0.3913
  182SOPE   H6X20844   5.567   0.357   7.356 -0.0966  0.4728  1.6675
  182SOPE   H6Y20845   5.704   0.478   7.342 -0.1925 -0.5079  0.1724
  182SOPE   C3720846   5.766   0.282   7.416 -0.7977  0.3990 -0.0819
  182SOPE   H7X20847   5.871   0.292   7.381 -0.9018  1.5138 -0.0842
  182SOPE   H7Y20848   5.731   0.176   7.417 -1.3584  0.5730  2.4069
  182SOPE   C3820849   5.769   0.326   7.572  0.4092 -0.8160  0.0610
  182SOPE   H8X20850   5.665   0.316   7.608  0.0099  1.2722 -0.4465
  182SOPE   H8Y20851   5.814   0.428   7.577 -0.1952 -0.5943  1.1215
  182SOPE   C3920852   5.859   0.230   7.652 -0.1189 -0.0965  0.1055
  182SOPE   H9X20853   5.969   0.237   7.638  0.0751  0.4407  1.7964
  182SOPE   H9Y20854   5.831   0.128   7.619 -2.7362  0.8451 -0.6731
  182SOPE  C31020855   5.819   0.238   7.806 -0.2309 -0.6571 -0.2307
  182SOPE  H10X20856   5.713   0.204   7.812 -1.0196  1.6120 -0.8301
  182SOPE  H10Y20857   5.836   0.338   7.851  1.5479 -0.1801 -1.8912
  182SOPE  C31120858   5.911   0.130   7.871  0.1924 -0.0885 -0.8019
  182SOPE  H11X20859   6.013   0.128   7.827  0.4072 -0.0349 -0.2976
  182SOPE  H11Y20860   5.877   0.035   7.824  1.3601  0.2573 -2.4114
  182SOPE  C31220861   5.893   0.132   8.022  0.2049  0.4196  0.1120
  182SOPE  H12X20862   5.787   0.114   8.049  0.7360 -2.0458  0.6209
  182SOPE  H12Y20863   5.926   0.229   8.065  0.7871  1.1153 -1.8549
  182SOPE  C31320864   5.960   0.015   8.096 -0.4436 -0.1674  0.5640
  182SOPE  H13X20865   6.068   0.035   8.076 -0.6381  0.3120 -0.0238
  182SOPE  H13Y20866   5.931  -0.080   8.048 -0.9521  0.3235 -0.1015
  182SOPE  C31420867   5.941   0.031   8.252 -0.1516  0.0479 -0.4566
  182SOPE  H14X20868   5.832   0.031   8.273 -0.3015 -0.5503 -1.2210
  182SOPE  H14Y20869   5.988   0.124   8.291  1.1256 -0.6613 -0.2697
  182SOPE  C31520870   5.996  -0.091   8.324  0.5989  0.0282 -0.2734
  182SOPE  H15X20871   6.017  -0.062   8.429 -0.9761  0.8142 -0.1541
  182SOPE  H15Y20872   6.094  -0.118   8.280  0.7650 -0.0603  0.1510
  182SOPE  C31620873   5.902  -0.214   8.327  0.2745  0.1738 -0.0865
  182SOPE  H16X20874   5.873  -0.243   8.223  1.6360  0.3762 -0.5397
  182SOPE  H16Y20875   5.805  -0.191   8.375  1.0338  0.2227  1.4651
  182SOPE  C31720876   5.976  -0.334   8.394  0.0854 -0.1433  0.1004
  182SOPE  H17X20877   5.989  -0.292   8.496  0.1498  1.4348 -0.5368
  182SOPE  H17Y20878   6.072  -0.356   8.342 -0.3356  1.7259 -1.5218
  182SOPE  C31820879   5.874  -0.455   8.397 -0.0353 -0.8581  0.5305
  182SOPE  H18X20880   5.777  -0.420   8.439  0.5260  1.7634 -0.3158
  182SOPE  H18Y20881   5.920  -0.531   8.464  0.9478 -1.6184 -0.9774
  182SOPE  H18Z20882   5.855  -0.489   8.293  1.9687  0.4940 -0.2825
  183SOPE     N20883   1.233   4.094   6.629 -0.1010 -0.3524 -0.3023
  183SOPE   HN120884   1.337   4.095   6.626  0.0349  0.6216  3.1850
  183SOPE   HN220885   1.215   4.076   6.730  2.8781 -0.4181  0.2778
  183SOPE   HN320886   1.208   4.014   6.568  0.8972 -0.2919 -0.8090
  183SOPE   C1220887   1.151   4.202   6.558  0.2064 -0.0758 -0.0741
  183SOPE  H12A20888   1.138   4.286   6.629 -0.8779 -0.4214  0.1551
  183SOPE  H12B20889   1.056   4.146   6.541  1.5402 -1.6127 -2.7764
  183SOPE   C1120890   1.212   4.230   6.421 -0.1749  0.0104  0.9937
  183SOPE  H11A20891   1.161   4.307   6.360 -2.5238 -0.6277  2.0932
  183SOPE  H11B20892   1.201   4.134   6.365  0.4388  0.1387  0.6496
  183SOPE     P20893   1.449   4.322   6.325  0.1086 -0.1745 -0.0863
  183SOPE   O1320894   1.383   4.428   6.243  0.4900  0.6944  0.6759
  183SOPE   O1420895   1.523   4.216   6.256 -0.0022 -0.4370 -0.2824
  183SOPE   O1220896   1.358   4.260   6.437  0.1762  0.3836  0.1910
  183SOPE   O1120897   1.557   4.401   6.413  0.0734 -0.1790  0.4524
  183SOPE    C120898   1.605   4.364   6.544  0.2090  0.4267  0.4468
  183SOPE    HA20899   1.715   4.351   6.538 -0.2571 -3.2619 -1.4352
  183SOPE    HB20900   1.559   4.265   6.566  1.2409  0.1137  1.2252
  183SOPE    C220901   1.554   4.453   6.658  0.3420 -0.0218  0.1751
  183SOPE    HS20902   1.445   4.451   6.638  0.1115  3.7244  0.6196
  183SOPE   O2120903   1.614   4.584   6.653 -0.1572  0.0316 -0.3291
  183SOPE   C2120904   1.543   4.682   6.680 -0.4306  0.0998 -0.5842
  183SOPE   O2220905   1.421   4.688   6.695  1.0352  0.1841  0.0636
  183SOPE   C2220906   1.636   4.801   6.725  0.3303 -1.4370  0.0073
  183SOPE   H2R20907   1.583   4.897   6.736 -0.5311 -2.0584  1.3578
  183SOPE   H2S20908   1.705   4.812   6.638  0.7983  0.6734  0.6312
  183SOPE    C320909   1.578   4.384   6.791 -0.7417  0.3307  0.6205
  183SOPE    HX20910   1.686   4.369   6.809 -0.9203 -2.4768 -0.3971
  183SOPE    HY20911   1.531   4.284   6.799  1.8983 -1.1759 -1.7566
  183SOPE   O3120912   1.530   4.476   6.894  0.0887 -0.2232  0.7327
  183SOPE   C3120913   1.391   4.475   6.908 -0.0938  0.0810 -0.2359
  183SOPE   O3220914   1.314   4.406   6.846 -0.2926  0.1409 -0.0040
  183SOPE   C3220915   1.344   4.570   7.010 -0.7633  0.6556 -0.2510
  183SOPE   H2X20916   1.292   4.659   6.968  0.3922  1.4520 -0.0062
  183SOPE   H2Y20917   1.433   4.607   7.064 -0.0772  2.0009 -2.2271
  183SOPE   C2320918   1.702   4.778   6.858 -0.7794 -0.1001 -0.0953
  183SOPE   H3R20919   1.779   4.701   6.837  0.5448  0.1126  3.4819
  183SOPE   H3S20920   1.618   4.740   6.921  0.2334 -1.5578  0.3924
  183SOPE   C2420921   1.762   4.900   6.935  0.1226 -0.3498 -0.4482
  183SOPE   H4R20922   1.859   4.940   6.898 -0.0073  3.5023  3.1220
  183SOPE   H4S20923   1.686   4.979   6.923  1.0521  0.7957  1.0659
  183SOPE   C2520924   1.776   4.868   7.083  0.1100  0.9029  0.8014
  183SOPE   H5R20925   1.689   4.809   7.118 -1.7174 -0.3854 -5.3325
  183SOPE   H5S20926   1.862   4.798   7.083 -1.2810 -0.8552 -0.8809
  183SOPE   C2620927   1.802   4.995   7.172  0.4207  0.6537 -0.1218
  183SOPE   H6R20928   1.896   5.048   7.146  0.4997  0.6180  0.0862
  183SOPE   H6S20929   1.737   5.080   7.146  1.1164  1.1754 -0.1787
  183SOPE   C2720930   1.802   4.960   7.323 -0.0874  0.1074  0.6468
  183SOPE   H7R20931   1.704   4.911   7.342  1.2643 -1.9685  2.5335
  183SOPE   H7S20932   1.883   4.886   7.344  0.0598 -0.2848 -1.1851
  183SOPE   C2820933   1.822   5.088   7.410  0.1091  0.2122  0.2053
  183SOPE   H8R20934   1.914   5.137   7.374  0.1899 -0.3104 -0.2979
  183SOPE   H8S20935   1.743   5.158   7.376  0.4105 -0.3104 -1.5863
  183SOPE   C2920936   1.815   5.057   7.559  0.5898  0.5037 -0.5463
  183SOPE   H9120937   1.740   4.983   7.590  1.7736 -0.3934  0.2421
  183SOPE  C21020938   1.878   5.131   7.655 -0.8107  0.2342 -0.4059
  183SOPE  H10120939   1.861   5.096   7.758  2.9706 -2.3516 -0.5592
  183SOPE  C21120940   1.971   5.247   7.640  0.2256 -0.1510  0.2479
  183SOPE  H11R20941   1.918   5.342   7.662 -0.3107 -0.8154  1.8552
  183SOPE  H11S20942   2.014   5.255   7.538  1.7727 -0.6630  0.8484
  183SOPE  C21220943   2.095   5.244   7.738 -0.1346 -0.0127  0.1917
  183SOPE  H12R20944   2.182   5.306   7.707  2.6449 -2.7542  2.1643
  183SOPE  H12S20945   2.140   5.144   7.757  0.1232 -0.2480 -1.5779
  183SOPE  C21320946   2.060   5.290   7.883 -0.3151  0.5005 -0.6590
  183SOPE  H13R20947   2.000   5.209   7.929 -2.3332  0.2580 -3.5758
  183SOPE  H13S20948   2.008   5.388   7.879 -0.3735  0.5998  1.6789
  183SOPE  C21420949   2.179   5.312   7.977  0.3021  0.3370  0.5173
  183SOPE  H14R20950   2.239   5.402   7.950  0.5005  0.5053  1.5117
  183SOPE  H14S20951   2.254   5.232   7.991 -0.3660 -0.3909 -0.0220
  183SOPE  C21520952   2.134   5.345   8.121  0.1842 -0.2953  0.5971
  183SOPE  H15R20953   2.062   5.264   8.147  0.7347 -0.8962  0.2435
  183SOPE  H15S20954   2.078   5.441   8.122 -2.0967 -1.5847  0.5946
  183SOPE  C21620955   2.245   5.330   8.224  0.6118  0.2602  0.0210
  183SOPE  H16R20956   2.319   5.404   8.187 -0.1442  0.3925 -1.2711
  183SOPE  H16S20957   2.301   5.234   8.232  3.1280  1.5593 -1.4673
  183SOPE  C21720958   2.193   5.373   8.364  0.2997 -0.4528  0.2056
  183SOPE  H17R20959   2.114   5.304   8.401 -0.1044 -0.2423 -0.2546
  183SOPE  H17S20960   2.143   5.472   8.351  1.0931 -0.3029 -2.0019
  183SOPE  C21820961   2.301   5.390   8.474  0.0231 -0.2417 -0.4999
  183SOPE  H18R20962   2.253   5.426   8.567 -0.6905 -0.0375 -0.9368
  183SOPE  H18S20963   2.383   5.458   8.441 -0.7747  0.1291 -1.7751
  183SOPE  H18T20964   2.357   5.296   8.487  1.6901  0.7638 -0.2566
  183SOPE   C3320965   1.245   4.509   7.115 -0.2578 -0.3866 -0.0316
  183SOPE   H3X20966   1.273   4.407   7.147  0.2519 -0.6660 -1.3637
  183SOPE   H3Y20967   1.145   4.503   7.066  0.8051 -2.1339 -2.0493
  183SOPE   C3420968   1.249   4.588   7.252 -0.3339 -0.4909  0.8184
  183SOPE   H4X20969   1.156   4.562   7.307 -0.5459  0.4539  0.9136
  183SOPE   H4Y20970   1.245   4.697   7.232  2.8900 -0.6421 -0.9403
  183SOPE   C3520971   1.370   4.551   7.342 -0.8738 -0.1872  0.0344
  183SOPE   H5X20972   1.457   4.617   7.325 -2.2730  1.7810  0.3426
  183SOPE   H5Y20973   1.411   4.452   7.312  2.4159  0.5719  1.7435
  183SOPE   C3620974   1.331   4.566   7.488  0.1189 -0.3513 -0.2424
  183SOPE   H6X20975   1.233   4.521   7.515  0.0519 -0.0911 -0.0466
  183SOPE   H6Y20976   1.308   4.672   7.514  0.0657 -0.2953 -0.5198
  183SOPE   C3720977   1.435   4.511   7.583 -0.8191 -0.2023 -0.1199
  183SOPE   H7X20978   1.536   4.533   7.543 -0.1558  0.8566  2.0760
  183SOPE   H7Y20979   1.434   4.399   7.582  1.0861 -0.2457  0.4917
  183SOPE   C3820980   1.418   4.558   7.729 -0.0026 -0.5664  0.2032
  183SOPE   H8X20981   1.325   4.520   7.775  0.5452 -0.8676  1.0809
  183SOPE   H8Y20982   1.415   4.669   7.726  0.7916 -0.5566 -0.6409
  183SOPE   C3920983   1.519   4.502   7.827 -0.1905  0.2066  0.2817
  183SOPE   H9X20984   1.618   4.532   7.785  0.0469  1.7849  1.8746
  183SOPE   H9Y20985   1.517   4.391   7.819  0.8347  0.3779 -3.6989
  183SOPE  C31020986   1.505   4.551   7.975  0.1059  0.4496  0.3000
  183SOPE  H10X20987   1.405   4.599   7.975 -0.1635 -0.0832 -1.2096
  183SOPE  H10Y20988   1.571   4.637   8.000  0.8800 -0.5488  1.7512
  183SOPE  C31120989   1.540   4.438   8.073 -0.9244  0.3396  0.2422
  183SOPE  H11X20990   1.627   4.377   8.039 -1.4666  0.9204 -2.3087
  183SOPE  H11Y20991   1.461   4.360   8.068  1.9519 -2.6707 -0.7556
  183SOPE  C31220992   1.562   4.477   8.225  1.0966 -0.1954  0.8821
  183SOPE  H12X20993   1.658   4.532   8.223  0.9837 -0.0638 -1.0311
  183SOPE  H12Y20994   1.582   4.382   8.279  0.7899  0.4636  2.1893
  183SOPE  C31320995   1.450   4.559   8.283 -0.1463  0.0055 -0.3536
  183SOPE  H13X20996   1.361   4.494   8.276  0.0008 -0.1721 -0.5890
  183SOPE  H13Y20997   1.426   4.656   8.236  0.4291 -0.0149 -0.6968
  183SOPE  C31420998   1.468   4.579   8.432 -0.0914 -0.2881  0.3556
  183SOPE  H14X20999   1.474   4.479   8.478 -0.9917 -0.5862 -0.1588
  183SOPE  H14Y21000   1.372   4.625   8.466 -0.2377 -0.3350  0.0055
  183SOPE  C31521001   1.587   4.667   8.481  0.2556  0.4418 -0.1617
  183SOPE  H15X21002   1.560   4.768   8.445 -1.7590 -0.3716 -1.0125
  183SOPE  H15Y21003   1.675   4.627   8.425 -0.8247 -1.4553 -0.5579
  183SOPE  C31621004   1.622   4.665   8.632  0.7162 -0.3174 -0.9185
  183SOPE  H16X21005   1.534   4.703   8.690  0.3008  1.7046 -2.8218
  183SOPE  H16Y21006   1.697   4.747   8.627  0.3665  0.4443  3.6464
  183SOPE  C31721007   1.704   4.546   8.688 -1.0293 -0.0557  0.6216
  183SOPE  H17X21008   1.798   4.536   8.630 -0.8622  0.9597  0.7211
  183SOPE  H17Y21009   1.644   4.453   8.679 -0.7333 -0.4002  2.1157
  183SOPE  C31821010   1.746   4.565   8.834 -0.1093 -0.1398  0.4210
  183SOPE  H18X21011   1.657   4.564   8.900 -1.0411 -2.3309 -0.8218
  183SOPE  H18Y21012   1.793   4.665   8.847  1.7894 -1.1107  1.2404
  183SOPE  H18Z21013   1.813   4.478   8.853  0.7531  0.8445  2.0207
  184SOPE     N21014   1.375   4.686   6.303 -0.0743 -0.0086 -0.1455
  184SOPE   HN121015   1.397   4.585   6.292 -2.5974 -0.4525 -1.7311
  184SOPE   HN221016   1.337   4.715   6.210 -0.2892  1.9343  0.5271
  184SOPE   HN321017   1.463   4.730   6.336 -1.7505  3.2243  0.2269
  184SOPE   C1221018   1.264   4.724   6.397 -0.0333  0.6861 -0.1840
  184SOPE  H12A21019   1.242   4.833   6.393 -0.7127  0.5223 -0.9454
  184SOPE  H12B21020   1.303   4.706   6.500 -2.0330  1.5688  0.7565
  184SOPE   C1121021   1.130   4.652   6.365  0.6170 -1.1152 -0.5168
  184SOPE  H11A21022   1.056   4.675   6.445  1.0058 -2.3118  0.1982
  184SOPE  H11B21023   1.139   4.545   6.394 -0.8116 -0.5436  2.2076
  184SOPE     P21024   0.989   4.803   6.210 -0.0509  0.0984  0.6377
  184SOPE   O1321025   0.879   4.749   6.129 -0.5735  0.4017 -0.1675
  184SOPE   O1421026   1.077   4.905   6.144 -0.2489 -0.2401  0.1115
  184SOPE   O1221027   1.077   4.683   6.237  0.1928 -0.2150  0.2601
  184SOPE   O1121028   0.926   4.838   6.349  0.5050  0.5055  0.1800
  184SOPE    C121029   0.938   4.984   6.379  0.0972  0.6557 -0.0028
  184SOPE    HA21030   0.914   5.052   6.294  4.7486  0.4840 -1.6471
  184SOPE    HB21031   1.044   5.010   6.402  0.1538  0.9914 -0.5985
  184SOPE    C221032   0.860   5.029   6.504  0.3681 -1.0387 -0.0618
  184SOPE    HS21033   0.893   5.131   6.535 -2.9363  0.1873 -0.3446
  184SOPE   O2121034   0.884   4.932   6.609  0.3013 -0.6798 -0.2048
  184SOPE   C2121035   1.001   4.914   6.660 -0.0588  0.2499 -0.5240
  184SOPE   O2221036   1.107   4.971   6.637  0.0050 -0.3163  0.1477
  184SOPE   C2221037   0.985   4.803   6.761 -0.5416  0.1592 -0.8468
  184SOPE   H2R21038   1.086   4.755   6.764 -0.9302 -0.6294 -0.4714
  184SOPE   H2S21039   0.907   4.735   6.722 -1.9130  1.5704 -0.6253
  184SOPE    C321040   0.706   5.018   6.468  0.5125  0.4680 -0.2474
  184SOPE    HX21041   0.680   4.923   6.417 -0.4325  0.8514 -0.4900
  184SOPE    HY21042   0.686   5.092   6.387 -0.5645 -0.5667 -0.9555
  184SOPE   O3121043   0.631   5.058   6.582 -0.0747  0.2707 -0.1575
  184SOPE   C3121044   0.587   4.951   6.654 -0.8638 -0.0170 -0.2934
  184SOPE   O3221045   0.631   4.839   6.636  0.3919  0.3032 -0.5896
  184SOPE   C3221046   0.490   4.998   6.752  0.4003 -0.5363 -0.7662
  184SOPE   H2X21047   0.399   4.937   6.772 -0.6495  1.7959  1.8873
  184SOPE   H2Y21048   0.446   5.097   6.729 -0.4014 -0.4512  1.0263
  184SOPE   C2321049   0.944   4.862   6.895 -0.4158  0.6588  0.1067
  184SOPE   H3R21050   0.845   4.907   6.876 -0.5669  0.0924 -0.4875
  184SOPE   H3S21051   1.018   4.940   6.921  1.1191  1.4667 -5.9390
  184SOPE   C2421052   0.948   4.765   7.016  0.4834 -1.9019 -0.2738
  184SOPE   H4R21053   0.875   4.684   6.996 -1.4783 -0.8490  2.4916
  184SOPE   H4S21054   1.052   4.726   7.007  0.6657 -1.1277 -1.7764
  184SOPE   C2521055   0.915   4.809   7.158 -0.6923 -0.2529 -0.0289
  184SOPE   H5R21056   0.814   4.857   7.157 -1.1592 -1.2079 -0.8672
  184SOPE   H5S21057   0.905   4.722   7.226 -0.4513 -2.8443 -3.1526
  184SOPE   C2621058   1.015   4.914   7.225 -0.1767  0.1116 -0.2299
  184SOPE   H6R21059   1.102   4.851   7.255 -0.0714  0.3314 -0.0712
  184SOPE   H6S21060   1.040   4.980   7.140 -2.4395  0.3186 -0.7679
  184SOPE   C2721061   0.954   4.977   7.339  0.0400 -0.4803 -0.1778
  184SOPE   H7R21062   1.015   5.066   7.368 -1.1173  0.5460 -0.8304
  184SOPE   H7S21063   0.871   5.043   7.307  0.5843  1.2091  1.7822
  184SOPE   C2821064   0.921   4.896   7.466 -1.0065 -0.7381 -0.5620
  184SOPE   H8R21065   0.821   4.855   7.440 -1.8494 -0.7788  2.5525
  184SOPE   H8S21066   0.987   4.806   7.471 -1.8721 -1.3804 -0.5577
  184SOPE   C2921067   0.906   4.972   7.594  0.2412 -0.1056  0.0607
  184SOPE   H9121068   0.859   5.071   7.584  0.1278 -0.2591 -0.9354
  184SOPE  C21021069   0.973   4.942   7.709  0.3014 -0.4174  0.8500
  184SOPE  H10121070   0.989   5.018   7.787 -2.7482 -0.7930  1.9068
  184SOPE  C21121071   1.064   4.821   7.722  0.5287 -0.9705  0.0437
  184SOPE  H11R21072   1.171   4.842   7.703  0.9247 -1.0258  2.0595
  184SOPE  H11S21073   1.031   4.734   7.662 -0.3010 -1.4060  1.1138
  184SOPE  C21221074   1.055   4.769   7.868 -0.4353 -0.2351 -0.1782
  184SOPE  H12R21075   1.085   4.850   7.938 -0.2265 -0.2870 -0.2079
  184SOPE  H12S21076   1.136   4.694   7.881  0.7876  1.1598  0.3415
  184SOPE  C21321077   0.922   4.713   7.905 -0.2479 -0.1037  0.3286
  184SOPE  H13R21078   0.880   4.648   7.825  0.4336 -0.1281 -0.0075
  184SOPE  H13S21079   0.852   4.798   7.914  0.4534  0.4065  1.0494
  184SOPE  C21421080   0.910   4.630   8.036 -0.0279  0.1903  0.1412
  184SOPE  H14R21081   0.984   4.547   8.027 -0.0679  0.3868 -2.1954
  184SOPE  H14S21082   0.814   4.576   8.024 -1.0059  2.1471 -1.0022
  184SOPE  C21521083   0.925   4.713   8.162 -1.0985  0.8721 -0.2652
  184SOPE  H15R21084   0.870   4.808   8.142 -1.4410 -0.0317 -3.7831
  184SOPE  H15S21085   1.031   4.744   8.175 -0.5050 -1.2139  0.0307
  184SOPE  C21621086   0.859   4.648   8.281  0.2221  0.0314 -0.1323
  184SOPE  H16R21087   0.918   4.555   8.296  0.7206  0.2387 -0.8048
  184SOPE  H16S21088   0.755   4.618   8.255  0.6674 -1.7683  0.1120
  184SOPE  C21721089   0.848   4.723   8.416 -0.6051 -0.9092 -0.0621
  184SOPE  H17R21090   0.838   4.832   8.395  2.6284 -1.1069 -3.0858
  184SOPE  H17S21091   0.938   4.717   8.480 -0.8515  0.2103  0.4085
  184SOPE  C21821092   0.730   4.658   8.488  0.0553  0.2463 -0.1202
  184SOPE  H18R21093   0.633   4.685   8.441 -0.3917  0.6836  1.0597
  184SOPE  H18S21094   0.736   4.711   8.585 -3.7639  0.6540 -0.0074
  184SOPE  H18T21095   0.740   4.549   8.508 -1.7430 -0.4376 -2.5572
  184SOPE   C3321096   0.557   5.002   6.889  0.3934  0.4789  0.1574
  184SOPE   H3X21097   0.614   4.910   6.913  1.8878  1.4619  0.4545
  184SOPE   H3Y21098   0.476   5.006   6.964 -1.8242  0.7628 -2.1876
  184SOPE   C3421099   0.637   5.133   6.917  0.0940  0.0059 -0.5702
  184SOPE   H4X21100   0.572   5.222   6.900 -1.1100 -1.3784 -3.6618
  184SOPE   H4Y21101   0.709   5.132   6.832  0.9047  0.5371  0.1032
  184SOPE   C3521102   0.719   5.137   7.047  0.1666  0.8619 -0.0715
  184SOPE   H5X21103   0.810   5.073   7.041 -0.8028 -0.8161  2.6975
  184SOPE   H5Y21104   0.668   5.105   7.140 -0.2876  1.8003  0.0127
  184SOPE   C3621105   0.786   5.281   7.069 -1.0448 -0.3128 -0.2342
  184SOPE   H6X21106   0.824   5.312   6.970 -0.9382  2.0409  0.5003
  184SOPE   H6Y21107   0.862   5.263   7.149 -1.1352  3.3786  0.8086
  184SOPE   C3721108   0.684   5.380   7.121  0.2497  0.6242  0.8072
  184SOPE   H7X21109   0.587   5.364   7.069 -0.4429  0.7752  2.0323
  184SOPE   H7Y21110   0.719   5.484   7.104 -1.4533  1.4699  2.3095
  184SOPE   C3821111   0.664   5.382   7.277 -0.0592  0.1158 -0.0212
  184SOPE   H8X21112   0.657   5.276   7.307 -0.0529  0.3091  0.6616
  184SOPE   H8Y21113   0.570   5.440   7.288 -1.1981 -1.5203 -0.8701
  184SOPE   C3921114   0.776   5.434   7.365 -0.0816 -0.5715 -0.1599
  184SOPE   H9X21115   0.783   5.544   7.350 -0.0004 -0.8284 -2.1343
  184SOPE   H9Y21116   0.869   5.383   7.331  0.7762  0.4770  0.5914
  184SOPE  C31021117   0.758   5.387   7.509  0.5180  0.2348 -0.4907
  184SOPE  H10X21118   0.759   5.276   7.504  1.5240  0.1816  0.6867
  184SOPE  H10Y21119   0.662   5.431   7.543  0.5901 -0.4607  0.6123
  184SOPE  C31121120   0.877   5.436   7.591  0.3250  0.4602  0.6649
  184SOPE  H11X21121   0.870   5.547   7.583  0.6891  0.5667  1.7484
  184SOPE  H11Y21122   0.976   5.407   7.552  0.2142  0.4671  0.3792
  184SOPE  C31221123   0.860   5.400   7.736 -0.5138  0.5466  0.0894
  184SOPE  H12X21124   0.809   5.302   7.752  0.0329 -0.3877 -3.4103
  184SOPE  H12Y21125   0.799   5.476   7.788 -0.6034  0.8738 -0.5023
  184SOPE  C31321126   0.994   5.392   7.819 -0.2124 -0.4605 -0.5996
  184SOPE  H13X21127   1.060   5.464   7.768  2.1800 -1.8895  0.4148
  184SOPE  H13Y21128   1.043   5.293   7.813 -1.3560 -1.0171 -1.0575
  184SOPE  C31421129   0.968   5.445   7.963  0.3638  0.7005 -0.6106
  184SOPE  H14X21130   0.902   5.372   8.014  0.5355 -0.1975 -1.6747
  184SOPE  H14Y21131   0.938   5.552   7.957  4.2730  1.9625  1.0127
  184SOPE  C31521132   1.094   5.435   8.057  0.3674 -0.5996 -0.0331
  184SOPE  H15X21133   1.181   5.486   8.011 -0.0033 -1.9279 -2.2556
  184SOPE  H15Y21134   1.118   5.327   8.064 -2.7718 -1.3099  0.8034
  184SOPE  C31621135   1.061   5.480   8.196  0.3818  0.2883  0.2398
  184SOPE  H16X21136   1.138   5.433   8.261  0.3466 -0.7741 -0.4739
  184SOPE  H16Y21137   0.966   5.432   8.228  0.5025 -0.5176 -0.5668
  184SOPE  C31721138   1.084   5.631   8.224  0.0951  0.6688  1.3034
  184SOPE  H17X21139   0.995   5.682   8.180  0.8806 -0.1823 -1.3795
  184SOPE  H17Y21140   1.178   5.663   8.174  0.7890 -0.0547  2.1423
  184SOPE  C31821141   1.101   5.667   8.374  0.1341  0.1798  0.1663
  184SOPE  H18X21142   1.128   5.773   8.387 -1.7183  0.7217 -0.1969
  184SOPE  H18Y21143   1.195   5.617   8.407 -0.7730 -1.4484  0.3722
  184SOPE  H18Z21144   1.015   5.642   8.440 -0.3986 -0.1601 -0.6297
  185SAPI   C1221145   3.844   1.830  11.350 -0.1300  0.1724 -0.4267
  185SAPI    H221146   3.905   1.922  11.359 -0.3026  0.0473  2.6527
  185SAPI    O221147   3.914   1.706  11.318  0.0921  0.3819  0.8207
  185SAPI   HO221148   3.949   1.723  11.231  0.1813 -2.3252  0.3040
  185SAPI   C1321149   3.772   1.822  11.489  0.1491 -0.7765 -0.3649
  185SAPI    H321150   3.710   1.913  11.501 -0.2553 -0.6998 -2.6604
  185SAPI    O321151   3.859   1.829  11.606 -0.6112 -0.2820 -0.0660
  185SAPI   HO321152   3.897   1.743  11.625  2.0829  0.4231 -1.8980
  185SAPI   C1421153   3.670   1.712  11.502 -0.2129 -0.5234  0.5703
  185SAPI    H421154   3.711   1.610  11.486 -0.1243 -0.1817 -1.5473
  185SAPI    O421155   3.599   1.728  11.627  0.3307  0.0856 -0.0013
  185SAPI   HO421156   3.594   1.643  11.672  0.4887  0.8805  1.5191
  185SAPI   C1521157   3.569   1.723  11.381  0.4792 -0.5305 -0.7706
  185SAPI    H521158   3.512   1.817  11.399  1.3150  0.1970 -1.8408
  185SAPI    O521159   3.470   1.620  11.380  0.5143  0.3023  0.3199
  185SAPI   HO521160   3.393   1.636  11.434 -1.1108 -0.8600 -1.5904
  185SAPI   C1621161   3.641   1.726  11.248 -0.4472 -0.2231  0.0975
  185SAPI    H621162   3.691   1.627  11.233  1.5952  0.5467  1.5355
  185SAPI    O621163   3.546   1.752  11.151  0.5142 -0.1859 -0.5237
  185SAPI   HO621164   3.595   1.781  11.073 -0.8997 -1.1700 -1.7897
  185SAPI   C1121165   3.732   1.846  11.250  0.1577 -0.3662  0.0652
  185SAPI    H121166   3.670   1.933  11.279  1.0554  0.4089 -0.3300
  185SAPI     P21167   3.856   2.004  11.064 -0.2706  0.3297 -0.2300
  185SAPI   O1321168   3.966   1.966  10.972 -1.2313 -0.1499  0.0961
  185SAPI   O1421169   3.895   2.101  11.172  0.0614 -0.0778 -0.5767
  185SAPI   O1221170   3.789   1.862  11.122  0.1749  0.0112 -0.5983
  185SAPI   O1121171   3.737   2.069  10.985 -0.8327  0.2945  0.5869
  185SAPI    C121172   3.665   1.994  10.882 -0.9191 -0.2733 -0.2848
  185SAPI    HA21173   3.639   1.891  10.913  1.8492 -0.4835  1.5434
  185SAPI    HB21174   3.570   2.047  10.858 -1.1395  0.0754  1.3406
  185SAPI    C221175   3.745   1.984  10.743  0.3952 -0.2554 -0.0969
  185SAPI    HS21176   3.824   1.909  10.766  0.6363  0.0606  0.1082
  185SAPI   O2121177   3.789   2.104  10.689  0.5599  0.5369  0.1409
  185SAPI   C2121178   3.905   2.117  10.636  0.4098 -0.5215 -0.5967
  185SAPI   O2221179   3.985   2.032  10.619 -0.2008  0.4313 -0.0944
  185SAPI   C2221180   3.938   2.269  10.605  0.1518  0.1355 -0.2145
  185SAPI   H2R21181   3.834   2.307  10.618 -0.0899 -1.0740  1.4474
  185SAPI   H2S21182   3.995   2.309  10.692  1.6503 -0.5726 -0.8492
  185SAPI    C321183   3.650   1.932  10.641  0.4433  0.5434  0.3667
  185SAPI    HX21184   3.573   2.013  10.635  0.5245  0.5706 -0.2757
  185SAPI    HY21185   3.597   1.840  10.674  2.2232 -0.0754  1.5538
  185SAPI   O3121186   3.712   1.925  10.509 -0.1745 -0.8829  0.0967
  185SAPI   C3121187   3.770   1.808  10.483  0.4960  0.6538 -0.9087
  185SAPI   O3221188   3.791   1.715  10.557 -0.2801 -0.3606  0.2521
  185SAPI   C3221189   3.812   1.814  10.335 -0.2317  0.1502 -0.1121
  185SAPI   H2X21190   3.903   1.753  10.319 -0.2754  0.3626 -1.1945
  185SAPI   H2Y21191   3.826   1.915  10.292  0.0438  0.1837  0.0624
  185SAPI   C2321192   4.013   2.298  10.474 -0.5578  0.2011  1.0613
  185SAPI   H3R21193   4.122   2.278  10.486 -0.4021 -0.5494 -1.2664
  185SAPI   H3S21194   3.999   2.406  10.451 -0.5249 -0.0995 -0.4283
  185SAPI   C2421195   3.950   2.225  10.359 -0.2768 -0.6360 -0.3629
  185SAPI   H4R21196   3.841   2.239  10.346 -0.2151 -0.5469 -0.8127
  185SAPI   H4S21197   3.945   2.115  10.373  0.4404 -0.4651  1.3690
  185SAPI   C2521198   4.009   2.245  10.225 -0.1543 -0.6972 -0.2551
  185SAPI   H5R21199   4.103   2.188  10.221  0.4310  0.2139  0.4289
  185SAPI   C2621200   3.966   2.313  10.113  0.4060  0.8730  0.2980
  185SAPI   H6R21201   4.029   2.307  10.023  0.1262 -0.9177  0.2097
  185SAPI   C2721202   3.842   2.405  10.102 -0.1653 -0.1621 -0.4767
  185SAPI   H7R21203   3.871   2.479  10.025  1.5185  1.0208  1.2538
  185SAPI   H7S21204   3.833   2.454  10.201  0.5033 -0.4435 -0.2750
  185SAPI   C2821205   3.721   2.332  10.044  0.1812 -0.0791  0.4076
  185SAPI   H8R21206   3.655   2.278  10.114  0.8107 -1.3484  0.0230
  185SAPI   C2921207   3.689   2.328   9.913 -0.0135  0.1325  0.1290
  185SAPI   H9R21208   3.589   2.287   9.893  0.2484 -0.4428 -0.0289
  185SAPI  C21021209   3.764   2.393   9.802  0.3172 -0.3882  0.2536
  185SAPI  H10R21210   3.860   2.342   9.782 -0.1844 -0.6478 -1.5698
  185SAPI  H10S21211   3.800   2.494   9.831 -0.6436  0.2534 -0.7183
  185SAPI  C21121212   3.695   2.427   9.669 -0.2278  0.6689 -0.2053
  185SAPI  H11R21213   3.624   2.510   9.660 -2.3668 -1.1284 -0.0697
  185SAPI  C21221214   3.713   2.358   9.553 -0.0624  0.8317 -0.5774
  185SAPI  H12R21215   3.657   2.395   9.466 -1.9889 -0.6420  0.0065
  185SAPI  C21321216   3.801   2.233   9.536 -0.3620  0.5381  0.2877
  185SAPI  H13R21217   3.817   2.196   9.639  0.1412  2.8680  1.0601
  185SAPI  H13S21218   3.900   2.257   9.491 -0.5580 -2.0126 -1.6528
  185SAPI  C21421219   3.730   2.128   9.443  0.5695  0.2469 -0.0887
  185SAPI  H14R21220   3.646   2.083   9.498  1.6943 -1.8244  0.0199
  185SAPI  C21521221   3.751   2.091   9.316 -0.3676  0.1990  0.1075
  185SAPI  H15R21222   3.675   2.024   9.274  1.5158 -0.9634 -1.5047
  185SAPI  C21621223   3.856   2.155   9.224 -0.0083  0.5925 -0.0194
  185SAPI  H16R21224   3.896   2.070   9.163  0.0779  2.1383 -2.1728
  185SAPI  H16S21225   3.941   2.204   9.275 -1.9846  1.4586  2.5132
  185SAPI  C21721226   3.804   2.260   9.113  0.1288  0.3896 -0.4602
  185SAPI  H17R21227   3.895   2.290   9.057 -1.0094  0.9606 -2.0475
  185SAPI  H17S21228   3.754   2.344   9.167 -0.2121  0.1887 -0.4640
  185SAPI  C21821229   3.726   2.171   9.016 -0.0607 -0.0601  0.4643
  185SAPI  H18R21230   3.648   2.110   9.066  1.5724 -0.0735  3.1018
  185SAPI  H18S21231   3.793   2.096   8.970  0.8812 -1.0520  3.3287
  185SAPI  C21921232   3.643   2.247   8.911 -0.0911  0.2094 -0.4306
  185SAPI  H19R21233   3.709   2.322   8.862 -0.2430 -0.4211 -1.6432
  185SAPI  H19S21234   3.563   2.309   8.955 -1.6268 -1.3950 -0.9249
  185SAPI  C22021235   3.570   2.155   8.810 -0.3819  0.2043 -0.0750
  185SAPI  H20R21236   3.578   2.207   8.712 -0.9577 -1.7878 -1.2059
  185SAPI  H20S21237   3.466   2.134   8.843 -0.6338  0.9921 -0.3743
  185SAPI  H20T21238   3.628   2.062   8.791 -0.6819 -0.3891  1.7963
  185SAPI   C3321239   3.697   1.740  10.256  0.5264 -0.9070 -0.4984
  185SAPI   H3X21240   3.655   1.655  10.314  0.1746  0.4051  1.1710
  185SAPI   H3Y21241   3.741   1.692  10.165 -0.7746 -2.1463 -0.4896
  185SAPI   C3421242   3.585   1.834  10.225 -0.2731  0.0155  0.3745
  185SAPI   H4X21243   3.523   1.862  10.314 -3.1934  1.0251 -1.9066
  185SAPI   H4Y21244   3.512   1.783  10.158 -0.7022 -0.4915  1.2064
  185SAPI   C3521245   3.621   1.962  10.143 -0.6607  0.3269  0.5998
  185SAPI   H5X21246   3.674   2.027  10.215 -2.2200  0.2069  1.8710
  185SAPI   H5Y21247   3.529   2.007  10.102 -0.4199 -0.8532 -1.2987
  185SAPI   C3621248   3.719   1.941  10.026 -0.0292  0.0479  1.3053
  185SAPI   H6X21249   3.813   1.891  10.059  1.4700  1.0558 -1.2544
  185SAPI   H6Y21250   3.743   2.044   9.994  0.5546  0.5647  3.3482
  185SAPI   C3721251   3.672   1.850   9.916  0.1200 -0.4564  0.3968
  185SAPI   H7X21252   3.576   1.892   9.879  0.3435 -1.2460 -1.0945
  185SAPI   H7Y21253   3.656   1.749   9.959  0.2674 -0.8588 -0.4855
  185SAPI   C3821254   3.766   1.843   9.793  0.1245  0.2189 -0.3134
  185SAPI   H8X21255   3.860   1.788   9.819  1.2668  0.4834 -3.6258
  185SAPI   H8Y21256   3.788   1.947   9.760  1.2650  0.0053 -0.2642
  185SAPI   C3921257   3.687   1.775   9.676  0.1611  0.3605  0.1759
  185SAPI   H9X21258   3.595   1.837   9.665  0.7397  1.3252  0.7314
  185SAPI   H9Y21259   3.659   1.670   9.701  0.7071  0.4769  1.2995
  185SAPI  C31021260   3.770   1.767   9.547 -0.7955  0.8598  0.4541
  185SAPI  H10X21261   3.838   1.680   9.556 -0.2592  0.7460 -3.7343
  185SAPI  H10Y21262   3.827   1.862   9.550 -2.2728  1.7774  0.2001
  185SAPI  C31121263   3.686   1.750   9.416  0.2795  0.3227 -1.3269
  185SAPI  H11X21264   3.633   1.847   9.401 -0.5177  0.3486  1.3986
  185SAPI  H11Y21265   3.611   1.673   9.440  0.0400  1.2826  1.2550
  185SAPI  C31221266   3.751   1.697   9.293 -0.8918 -0.3185 -0.0597
  185SAPI  H12X21267   3.801   1.599   9.308  0.5289  0.0660 -2.1478
  185SAPI  H12Y21268   3.836   1.762   9.264 -1.6740  0.3757 -0.8418
  185SAPI  C31321269   3.658   1.681   9.172  0.2494  0.2441  0.6263
  185SAPI  H13X21270   3.604   1.773   9.142  1.0481  0.0023 -1.6270
  185SAPI  H13Y21271   3.583   1.606   9.207  1.2228 -1.2646 -0.4469
  185SAPI  C31421272   3.735   1.649   9.036  1.0367 -0.3762 -0.5838
  185SAPI  H14X21273   3.794   1.558   9.060  1.4180 -0.1813 -0.7830
  185SAPI  H14Y21274   3.803   1.736   9.023 -0.6683  1.1566  0.3491
  185SAPI  C31521275   3.632   1.650   8.923 -0.1615 -0.7793 -0.7863
  185SAPI  H15X21276   3.581   1.749   8.916 -2.0603 -1.8233 -1.9692
  185SAPI  H15Y21277   3.564   1.563   8.935  2.1496 -2.7980 -1.8782
  185SAPI  C31621278   3.707   1.647   8.789 -0.3909 -0.1403  0.1487
  185SAPI  H16X21279   3.779   1.564   8.773  1.7837  1.8404 -0.7731
  185SAPI  H16Y21280   3.770   1.739   8.794  0.8658 -0.7431 -3.0295
  185SAPI  C31721281   3.606   1.666   8.675 -0.2753 -0.6049  0.1151
  185SAPI  H17X21282   3.668   1.720   8.601  1.5006 -0.0060  1.9857
  185SAPI  H17Y21283   3.526   1.735   8.708  0.1853  0.5918 -1.2293
  185SAPI  C31821284   3.538   1.534   8.622 -0.1814 -0.2985  0.2630
  185SAPI  H18X21285   3.480   1.555   8.529 -0.3330 -0.8993  0.2212
  185SAPI  H18Y21286   3.479   1.485   8.702 -0.4128 -1.7629 -0.7728
  185SAPI  H18Z21287   3.620   1.468   8.586 -0.8610 -0.6564 -0.6671
  186SAPI   C1221288   4.318   0.173  10.647 -0.3056 -0.4804  1.8173
  186SAPI    H221289   4.356   0.155  10.544 -0.7797 -0.1748  1.5868
  186SAPI    O221290   4.388   0.291  10.687  0.7559 -0.4803  0.0228
  186SAPI   HO221291   4.477   0.289  10.652  0.8920  1.7617  0.1362
  186SAPI   C1321292   4.175   0.208  10.627 -0.1449 -0.1411  0.3407
  186SAPI    H321293   4.131   0.110  10.598 -0.4293 -1.5073  5.0802
  186SAPI    O321294   4.158   0.290  10.512 -0.4517 -0.7132  0.1161
  186SAPI   HO321295   4.155   0.384  10.531 -0.6755 -0.6474 -0.2488
  186SAPI   C1421296   4.111   0.252  10.754 -0.1249 -0.2786 -0.3399
  186SAPI    H421297   4.162   0.343  10.791  3.4240 -1.6507 -1.7126
  186SAPI    O421298   3.973   0.285  10.738 -0.0044  0.1186 -0.1876
  186SAPI   HO421299   3.952   0.364  10.688 -4.5199 -1.2641 -0.7002
  186SAPI   C1521300   4.128   0.138  10.858 -0.2515 -0.2019  0.0869
  186SAPI    H521301   4.061   0.059  10.820 -2.8216  0.9992  1.9780
  186SAPI    O521302   4.071   0.178  10.984  0.0536  0.2850  0.7744
  186SAPI   HO521303   4.133   0.245  11.013  1.6541 -0.6012 -0.4810
  186SAPI   C1621304   4.274   0.093  10.872 -0.2362 -0.2959 -0.6988
  186SAPI    H621305   4.344   0.164  10.921  0.8387 -0.6145 -1.7535
  186SAPI    O621306   4.275  -0.022  10.948 -0.6045  0.4958 -0.0393
  186SAPI   HO621307   4.364  -0.054  10.969 -1.9477 -1.5264  2.8882
  186SAPI   C1121308   4.335   0.055  10.738  0.0192 -0.0770  0.9429
  186SAPI    H121309   4.273  -0.029  10.700 -1.5894  1.8199 -0.7238
  186SAPI     P21310   4.526  -0.140  10.738  0.1747  0.3950 -0.0426
  186SAPI   O1321311   4.428  -0.235  10.790 -0.0304 -0.1170 -0.5079
  186SAPI   O1421312   4.663  -0.144  10.786 -0.4770  0.0856  0.0574
  186SAPI   O1221313   4.473   0.019  10.748 -0.2420 -0.4493  0.1947
  186SAPI   O1121314   4.536  -0.157  10.582  0.0414  0.5359 -0.1819
  186SAPI    C121315   4.615  -0.067  10.502 -0.1494  0.1105 -0.9394
  186SAPI    HA21316   4.591   0.038  10.532 -0.2372  0.7451 -3.1578
  186SAPI    HB21317   4.724  -0.082  10.518  0.3275  3.4608 -0.5811
  186SAPI    C221318   4.586  -0.092  10.354  0.1535  0.9890 -0.3440
  186SAPI    HS21319   4.656  -0.025  10.300 -0.1676  0.6946 -1.1340
  186SAPI   O2121320   4.451  -0.073  10.311 -0.1348  0.3592  0.2322
  186SAPI   C2121321   4.414   0.051  10.313  0.3880 -0.3154 -0.2055
  186SAPI   O2221322   4.489   0.145  10.331 -0.1387 -0.5584  0.0340
  186SAPI   C2221323   4.263   0.059  10.272  0.8006  0.4770 -0.0236
  186SAPI   H2R21324   4.209   0.021  10.361  2.8825  0.1625  1.1566
  186SAPI   H2S21325   4.242   0.164  10.244  3.7315  0.8514 -1.0186
  186SAPI    C321326   4.619  -0.239  10.322 -0.9002 -0.4547  0.1423
  186SAPI    HX21327   4.552  -0.301  10.386  0.0039 -0.0127  1.5361
  186SAPI    HY21328   4.717  -0.260  10.371 -0.1654  0.1329 -1.0684
  186SAPI   O3121329   4.611  -0.272  10.181  0.2099 -0.2158 -0.2834
  186SAPI   C3121330   4.608  -0.402  10.163 -0.2059 -0.4921 -0.0110
  186SAPI   O3221331   4.633  -0.486  10.246 -0.7702 -0.2035  0.0558
  186SAPI   C3221332   4.595  -0.422  10.018 -0.3531 -0.0545  0.0409
  186SAPI   H2X21333   4.654  -0.338   9.975 -0.5776  0.2100  0.2436
  186SAPI   H2Y21334   4.491  -0.415   9.981  0.1128 -1.3121 -1.5466
  186SAPI   C2321335   4.207  -0.036  10.159  0.0476  0.4092 -0.2552
  186SAPI   H3R21336   4.098  -0.023  10.172  0.3099  0.7332  1.8117
  186SAPI   H3S21337   4.238  -0.141  10.176  1.7832  0.8605 -0.5152
  186SAPI   C2421338   4.243   0.006  10.017 -0.0318 -0.6253 -0.2068
  186SAPI   H4R21339   4.353  -0.010  10.009 -0.0637 -0.3077 -1.4079
  186SAPI   H4S21340   4.218   0.114  10.008 -0.5375 -0.7160  0.0849
  186SAPI   C2521341   4.158  -0.061   9.923 -0.1524 -0.1436  0.3884
  186SAPI   H5R21342   4.076  -0.125   9.956 -0.7290  0.3587 -0.0701
  186SAPI   C2621343   4.166  -0.045   9.786 -0.2769  0.2721  0.5189
  186SAPI   H6R21344   4.095  -0.097   9.720 -0.3027 -0.8586  1.4194
  186SAPI   C2721345   4.260   0.043   9.709 -0.4810 -0.0495  0.8833
  186SAPI   H7R21346   4.320   0.106   9.778 -1.6699  2.0011  0.0924
  186SAPI   H7S21347   4.199   0.121   9.658  0.6027 -0.4448 -1.0542
  186SAPI   C2821348   4.350  -0.030   9.612 -0.5287  0.3679  0.3778
  186SAPI   H8R21349   4.446  -0.058   9.657 -0.4847 -1.9144 -1.0430
  186SAPI   C2921350   4.329  -0.054   9.476 -0.7868 -0.4098  0.5852
  186SAPI   H9R21351   4.401  -0.109   9.414 -0.6397 -0.2984  0.6564
  186SAPI  C21021352   4.207  -0.010   9.394  0.9321  0.0436  0.4109
  186SAPI  H10R21353   4.113  -0.024   9.452  0.8985  1.3066  0.6650
  186SAPI  H10S21354   4.190  -0.088   9.317 -1.6157  1.0280 -0.0734
  186SAPI  C21121355   4.233   0.124   9.339 -0.3779  0.1331  0.5946
  186SAPI  H11R21356   4.232   0.210   9.408  1.7517  0.1511  0.6223
  186SAPI  C21221357   4.283   0.157   9.216  0.3487 -0.2108  0.4917
  186SAPI  H12R21358   4.309   0.263   9.203 -2.4178  0.2508 -1.6199
  186SAPI  C21321359   4.319   0.074   9.099  1.0096  0.4450  0.4550
  186SAPI  H13R21360   4.309   0.134   9.007 -0.1232 -0.7049 -0.1976
  186SAPI  H13S21361   4.242  -0.007   9.102  1.1169  0.3630  1.0059
  186SAPI  C21421362   4.451   0.002   9.108 -0.1331  0.1351  0.7733
  186SAPI  H14R21363   4.528   0.048   9.172 -0.1379  0.0802  0.8203
  186SAPI  C21521364   4.482  -0.106   9.033 -0.1391  0.7351 -0.1833
  186SAPI  H15R21365   4.582  -0.149   9.044  0.2697  1.7390  0.1426
  186SAPI  C21621366   4.385  -0.167   8.936  0.2465  0.1214  0.3240
  186SAPI  H16R21367   4.285  -0.121   8.921  0.1536 -0.5078 -1.0800
  186SAPI  H16S21368   4.373  -0.276   8.957  1.4394  0.1122  0.9971
  186SAPI  C21721369   4.434  -0.165   8.791 -0.2068 -0.9742  0.3765
  186SAPI  H17R21370   4.535  -0.212   8.791  2.2820  4.0089  1.1112
  186SAPI  H17S21371   4.456  -0.059   8.763  0.9213 -1.0920  0.7825
  186SAPI  C21821372   4.344  -0.203   8.674 -0.2086  0.6439  0.0812
  186SAPI  H18R21373   4.314  -0.310   8.684  0.6931  0.6132  2.8727
  186SAPI  H18S21374   4.412  -0.192   8.587  0.5137 -0.1972  0.5261
  186SAPI  C21921375   4.216  -0.124   8.650  0.4056 -0.5540 -0.3155
  186SAPI  H19R21376   4.237  -0.015   8.652 -1.0387 -0.2362 -1.3073
  186SAPI  H19S21377   4.154  -0.144   8.739  1.5462  1.4520  0.9649
  186SAPI  C22021378   4.131  -0.167   8.533 -0.5945  0.6669 -0.3530
  186SAPI  H20R21379   4.135  -0.095   8.449 -1.1330  1.1006 -0.0106
  186SAPI  H20S21380   4.031  -0.193   8.572 -0.4119  1.2810  0.5372
  186SAPI  H20T21381   4.170  -0.260   8.486  0.9727  1.5373 -0.8393
  186SAPI   C3321382   4.658  -0.551   9.964 -0.4363  0.2172  0.3775
  186SAPI   H3X21383   4.583  -0.632   9.971 -2.6476  2.1072 -0.7380
  186SAPI   H3Y21384   4.747  -0.587  10.020 -1.1405 -0.8861  0.7916
  186SAPI   C3421385   4.695  -0.547   9.816 -0.4160  0.2037 -0.5620
  186SAPI   H4X21386   4.724  -0.650   9.787 -0.1118  0.7116 -2.1308
  186SAPI   H4Y21387   4.782  -0.478   9.814 -0.3843  0.1376 -1.2663
  186SAPI   C3521388   4.583  -0.507   9.725  0.3946  1.1207 -0.6479
  186SAPI   H5X21389   4.567  -0.398   9.741 -0.3478  0.8864  0.2157
  186SAPI   H5Y21390   4.486  -0.556   9.747  1.6063 -1.5457 -1.0815
  186SAPI   C3621391   4.616  -0.530   9.572 -0.7653  0.0030 -0.1760
  186SAPI   H6X21392   4.537  -0.500   9.500 -0.4327 -1.2353 -1.0658
  186SAPI   H6Y21393   4.615  -0.640   9.563 -1.6847 -0.1832  1.9536
  186SAPI   C3721394   4.750  -0.475   9.522  0.3554 -0.0755 -1.0390
  186SAPI   H7X21395   4.827  -0.495   9.601 -0.6237 -0.1189 -0.0872
  186SAPI   H7Y21396   4.758  -0.366   9.502  1.7570  0.1783  0.7059
  186SAPI   C3821397   4.797  -0.542   9.394  0.1361  0.2911 -0.0677
  186SAPI   H8X21398   4.787  -0.653   9.401 -1.5205  0.3436 -1.2443
  186SAPI   H8Y21399   4.905  -0.518   9.392 -0.4208  2.8326 -0.6839
  186SAPI   C3921400   4.728  -0.497   9.261  0.5356 -0.7498  0.3445
  186SAPI   H9X21401   4.720  -0.387   9.271  1.6488 -0.3760 -2.4238
  186SAPI   H9Y21402   4.627  -0.543   9.258  0.5736 -0.8416  0.5026
  186SAPI  C31021403   4.819  -0.524   9.140  0.3595 -0.0619  0.2222
  186SAPI  H10X21404   4.850  -0.631   9.144  0.5401  0.0337  1.6599
  186SAPI  H10Y21405   4.904  -0.454   9.153  1.3823 -1.1307 -0.6409
  186SAPI  C31121406   4.754  -0.488   9.005  0.3238 -0.2128  1.2645
  186SAPI  H11X21407   4.701  -0.392   9.019  1.4513  0.4622  0.9735
  186SAPI  H11Y21408   4.682  -0.571   8.990  1.3377 -1.1836  1.6766
  186SAPI  C31221409   4.847  -0.476   8.885  0.2923 -0.0882 -0.5369
  186SAPI  H12X21410   4.920  -0.559   8.895 -1.9297 -2.0872 -0.4478
  186SAPI  H12Y21411   4.910  -0.390   8.916 -1.4863  0.2129  2.4809
  186SAPI  C31321412   4.774  -0.469   8.754  0.7912 -0.3276  0.1155
  186SAPI  H13X21413   4.729  -0.368   8.749  0.5416 -0.5158 -1.7933
  186SAPI  H13Y21414   4.691  -0.541   8.736  2.6024 -2.1587 -1.1016
  186SAPI  C31421415   4.868  -0.486   8.629 -0.5473  0.0921  0.7072
  186SAPI  H14X21416   4.874  -0.595   8.609 -0.2943  0.3956 -0.8820
  186SAPI  H14Y21417   4.967  -0.439   8.643 -0.2977  0.1592 -1.1930
  186SAPI  C31521418   4.809  -0.429   8.491 -0.8487  0.1307  0.8227
  186SAPI  H15X21419   4.810  -0.318   8.504  1.9286  0.5681 -2.3253
  186SAPI  H15Y21420   4.706  -0.469   8.483 -0.3377 -0.8954 -0.7850
  186SAPI  C31621421   4.898  -0.461   8.371  0.1158  0.3813 -0.3401
  186SAPI  H16X21422   4.906  -0.572   8.376 -3.8462  0.0305  0.2407
  186SAPI  H16Y21423   4.997  -0.412   8.382  0.5148 -0.1511 -1.4293
  186SAPI  C31721424   4.848  -0.431   8.229 -0.2616  0.5392 -0.0528
  186SAPI  H17X21425   4.768  -0.504   8.203 -0.6558  0.9123  0.1017
  186SAPI  H17Y21426   4.929  -0.467   8.162 -0.4079  3.7205 -2.0498
  186SAPI  C31821427   4.817  -0.286   8.194 -0.2530 -0.3550 -0.5422
  186SAPI  H18X21428   4.912  -0.229   8.204 -0.9934  0.4811  1.8923
  186SAPI  H18Y21429   4.731  -0.253   8.256 -0.8918 -1.9969 -0.5095
  186SAPI  H18Z21430   4.788  -0.280   8.087  0.6856 -0.4020 -0.8072
  187SAPI   C1221431   1.401   0.916   6.157 -0.3803 -0.3428  0.5024
  187SAPI    H221432   1.493   0.928   6.217 -0.4305 -0.3667  0.5835
  187SAPI    O221433   1.401   1.012   6.051 -0.3269  0.0226 -0.1429
  187SAPI   HO221434   1.367   1.095   6.087  2.4959  1.4313 -0.5489
  187SAPI   C1321435   1.408   0.775   6.104 -0.1066  0.1242 -0.1525
  187SAPI    H321436   1.404   0.711   6.195 -0.1855 -0.4311 -0.5448
  187SAPI    O321437   1.528   0.741   6.039 -0.4971 -0.4722  0.0571
  187SAPI   HO321438   1.566   0.820   6.000  0.2023 -1.5905 -1.6019
  187SAPI   C1421439   1.287   0.755   6.021  0.1769 -0.0476  1.0661
  187SAPI    H421440   1.281   0.830   5.939 -0.3465  1.3654  2.3866
  187SAPI    O421441   1.290   0.626   5.956  0.0176 -0.0191  0.1929
  187SAPI   HO421442   1.290   0.555   6.021  0.4434  0.1909  0.4180
  187SAPI   C1521443   1.155   0.775   6.099  1.0375  0.8031 -0.3851
  187SAPI    H521444   1.152   0.699   6.179 -1.1017  1.2658 -0.0107
  187SAPI    O521445   1.041   0.765   6.016 -0.5691  0.2980 -0.2702
  187SAPI   HO521446   0.982   0.732   6.085  1.8359 -0.2420  1.5837
  187SAPI   C1621447   1.154   0.908   6.164 -0.4463  0.2139 -0.0310
  187SAPI    H621448   1.149   0.982   6.082 -1.6531 -0.3583 -0.4971
  187SAPI    O621449   1.033   0.926   6.244  0.3298  0.1618  0.6739
  187SAPI   HO621450   1.051   0.874   6.323  1.2663 -0.0192  0.3567
  187SAPI   C1121451   1.276   0.934   6.242  0.0076  0.4547 -0.2694
  187SAPI    H121452   1.281   0.862   6.326 -0.1170  0.7344 -0.0219
  187SAPI     P21453   1.329   1.117   6.435 -0.3376 -0.0133 -0.1738
  187SAPI   O1321454   1.351   1.264   6.435 -0.0632  0.2797 -0.1484
  187SAPI   O1421455   1.450   1.040   6.475  0.4782 -0.3297  0.1875
  187SAPI   O1221456   1.276   1.073   6.286  0.1038  0.2791 -0.5278
  187SAPI   O1121457   1.213   1.066   6.526 -0.6476 -0.1674 -0.1227
  187SAPI    C121458   1.084   1.129   6.533  0.6777  0.1036 -1.0515
  187SAPI    HA21459   1.025   1.150   6.442  0.0975 -1.4467 -1.0473
  187SAPI    HB21460   1.017   1.060   6.589  1.5033 -1.1056 -1.5435
  187SAPI    C221461   1.082   1.253   6.631 -0.0662  0.0394  0.5561
  187SAPI    HS21462   1.140   1.335   6.585 -0.7647  0.6443  0.7410
  187SAPI   O2121463   1.138   1.203   6.761 -0.3275  0.0702  0.5370
  187SAPI   C2121464   1.192   1.299   6.828  0.4974 -0.3040  0.6066
  187SAPI   O2221465   1.221   1.408   6.780 -0.7095 -0.0929  0.0438
  187SAPI   C2221466   1.202   1.254   6.975 -0.2577 -0.3080 -0.1971
  187SAPI   H2R21467   1.117   1.186   7.000 -0.0720  0.0242  1.4160
  187SAPI   H2S21468   1.294   1.192   6.979 -0.0329 -0.2405 -3.1590
  187SAPI    C321469   0.941   1.315   6.649  0.0555 -0.0370  0.8474
  187SAPI    HX21470   0.904   1.357   6.553 -0.2400 -0.6248  0.6992
  187SAPI    HY21471   0.956   1.404   6.713  1.6857  0.7809 -0.6337
  187SAPI   O3121472   0.849   1.220   6.698 -0.3234 -0.1828 -0.3455
  187SAPI   C3121473   0.723   1.248   6.717  0.2698  1.3306  0.2385
  187SAPI   O3221474   0.670   1.350   6.688 -0.2113  0.0971  0.0376
  187SAPI   C3221475   0.662   1.142   6.805 -0.1476 -0.6327  0.1768
  187SAPI   H2X21476   0.647   1.062   6.729 -0.7087 -0.1988 -0.1741
  187SAPI   H2Y21477   0.558   1.173   6.830 -0.2663 -0.2947 -0.7186
  187SAPI   C2321478   1.211   1.379   7.073  0.0500  0.1641  0.4444
  187SAPI   H3R21479   1.134   1.455   7.048 -0.6554 -0.7124 -0.0670
  187SAPI   H3S21480   1.310   1.419   7.040  1.2537 -2.0763  1.2492
  187SAPI   C2421481   1.199   1.339   7.222  0.6772 -0.0292  0.0423
  187SAPI   H4R21482   1.266   1.403   7.283  1.8290  1.2761 -2.5713
  187SAPI   H4S21483   1.242   1.238   7.237 -1.1314 -0.6874  1.0769
  187SAPI   C2521484   1.056   1.332   7.267  0.1858 -0.4522  0.1598
  187SAPI   H5R21485   1.001   1.248   7.223  0.4334 -1.1632  1.1803
  187SAPI   C2621486   1.000   1.391   7.375  0.3599  0.0470 -0.4940
  187SAPI   H6R21487   0.893   1.367   7.387  0.9586 -1.8406  1.5450
  187SAPI   C2721488   1.052   1.484   7.485  0.5476  0.6714  0.3274
  187SAPI   H7R21489   0.963   1.493   7.551 -0.7104 -0.4553 -1.1674
  187SAPI   H7S21490   1.075   1.585   7.445 -0.9660  0.4623 -1.1248
  187SAPI   C2821491   1.170   1.434   7.572 -0.0878  0.0770  0.8944
  187SAPI   H8R21492   1.266   1.414   7.522 -0.2377  2.2408 -0.3210
  187SAPI   C2921493   1.164   1.441   7.704  0.0907 -0.3045  0.2736
  187SAPI   H9R21494   1.262   1.425   7.751 -1.1629  1.1561  3.5032
  187SAPI  C21021495   1.061   1.496   7.799 -0.0524  0.2212 -0.3728
  187SAPI  H10R21496   1.094   1.465   7.901  2.4014  1.1268 -0.8575
  187SAPI  H10S21497   0.966   1.440   7.787  0.1914  0.3788 -3.2125
  187SAPI  C21121498   1.046   1.649   7.790  0.0925  0.0090 -0.6877
  187SAPI  H11R21499   1.018   1.685   7.690  1.4603 -1.7569 -1.7320
  187SAPI  C21221500   1.068   1.738   7.883 -0.1931 -0.5631  0.2829
  187SAPI  H12R21501   1.050   1.844   7.860 -2.4469 -1.0075 -0.0853
  187SAPI  C21321502   1.110   1.704   8.019 -0.2327  0.1954 -1.0305
  187SAPI  H13R21503   1.215   1.666   8.020  0.5515  2.3266 -0.0075
  187SAPI  H13S21504   1.056   1.619   8.065  0.0305  0.1245 -0.8515
  187SAPI  C21421505   1.086   1.826   8.103 -0.9514  0.0760 -0.9279
  187SAPI  H14R21506   1.162   1.898   8.069 -1.4069 -0.7069 -3.8200
  187SAPI  C21521507   1.003   1.859   8.205 -0.1547 -0.1335  0.2808
  187SAPI  H15R21508   0.989   1.963   8.239 -0.0373 -0.4479  1.3293
  187SAPI  C21621509   0.891   1.767   8.253  0.0014 -0.2591 -0.4168
  187SAPI  H16R21510   0.883   1.672   8.195  1.4078 -0.9850  0.5489
  187SAPI  H16S21511   0.796   1.823   8.241  1.1535  2.1839  1.3941
  187SAPI  C21721512   0.889   1.725   8.402 -0.0173  0.2099 -0.2334
  187SAPI  H17R21513   0.992   1.707   8.441  1.0936  3.2475 -1.5963
  187SAPI  H17S21514   0.837   1.628   8.418 -2.0502  1.3185  0.0769
  187SAPI  C21821515   0.816   1.831   8.487  0.1151  0.2360 -0.3711
  187SAPI  H18R21516   0.723   1.855   8.429  1.2705 -1.4920 -3.0384
  187SAPI  H18S21517   0.879   1.923   8.479  2.1838 -0.9125  2.2249
  187SAPI  C21921518   0.776   1.793   8.631 -0.4703 -0.5815  0.6804
  187SAPI  H19R21519   0.862   1.776   8.699  1.5458  0.2252 -1.5772
  187SAPI  H19S21520   0.716   1.700   8.623 -0.3268 -0.5075 -1.3829
  187SAPI  C22021521   0.690   1.911   8.682 -0.5174 -0.2341 -0.3087
  187SAPI  H20R21522   0.749   2.002   8.703 -0.8059 -0.2696  0.6568
  187SAPI  H20S21523   0.639   1.875   8.774  2.4465 -0.5556  1.2590
  187SAPI  H20T21524   0.619   1.948   8.605  0.6781  1.9684 -0.3877
  187SAPI   C3321525   0.742   1.100   6.931  0.0142 -0.2209  0.3224
  187SAPI   H3X21526   0.841   1.066   6.893 -0.2233 -0.2222 -0.2923
  187SAPI   H3Y21527   0.698   1.007   6.974  0.8043 -0.3979  0.7567
  187SAPI   C3421528   0.754   1.213   7.034 -0.6907  0.2664  0.1669
  187SAPI   H4X21529   0.791   1.306   6.986 -2.2460  0.1062 -1.4119
  187SAPI   H4Y21530   0.846   1.199   7.094 -1.0090  0.7407  0.7771
  187SAPI   C3521531   0.635   1.245   7.126 -0.1509  0.5242 -0.0316
  187SAPI   H5X21532   0.608   1.153   7.183  1.1940 -0.7892 -1.4846
  187SAPI   H5Y21533   0.543   1.264   7.066  1.9256  1.8922 -2.9051
  187SAPI   C3621534   0.666   1.355   7.226 -0.2057  0.0656  0.4241
  187SAPI   H6X21535   0.696   1.446   7.170 -2.4190  0.1583 -0.7074
  187SAPI   H6Y21536   0.740   1.314   7.298  0.0099 -0.4449 -0.0811
  187SAPI   C3721537   0.540   1.414   7.296 -0.0918  0.5793 -0.5632
  187SAPI   H7X21538   0.486   1.335   7.353 -1.0948 -0.0861 -2.4096
  187SAPI   H7Y21539   0.479   1.460   7.216  1.2063 -0.0938 -1.9657
  187SAPI   C3821540   0.580   1.518   7.406  0.7292  0.3450  0.4349
  187SAPI   H8X21541   0.488   1.568   7.442  0.9581  1.3088 -0.3089
  187SAPI   H8Y21542   0.661   1.588   7.377 -0.5301  2.4059  1.7532
  187SAPI   C3921543   0.626   1.438   7.530  0.0171  0.6522  0.6725
  187SAPI   H9X21544   0.708   1.365   7.512 -1.4393 -1.7718  3.3700
  187SAPI   H9Y21545   0.542   1.369   7.553  0.5604 -0.9812 -2.0046
  187SAPI  C31021546   0.665   1.531   7.644 -0.3624 -0.6273 -0.5044
  187SAPI  H10X21547   0.755   1.592   7.619  0.8510 -1.8483  0.7804
  187SAPI  H10Y21548   0.700   1.461   7.723  0.1707 -1.0550 -1.1107
  187SAPI  C31121549   0.550   1.620   7.700  0.3529 -0.8165 -0.4972
  187SAPI  H11X21550   0.456   1.563   7.715  0.0279 -0.1304  0.0943
  187SAPI  H11Y21551   0.522   1.689   7.617 -1.4736 -0.9982 -0.0672
  187SAPI  C31221552   0.605   1.691   7.822 -0.1063 -0.1698  0.2289
  187SAPI  H12X21553   0.546   1.786   7.828  0.0448 -0.0317 -0.4247
  187SAPI  H12Y21554   0.712   1.714   7.804 -0.6202  3.1446  1.0512
  187SAPI  C31321555   0.583   1.609   7.949 -0.6574 -0.9493 -0.0242
  187SAPI  H13X21556   0.657   1.527   7.961 -0.3651 -0.4793  1.4826
  187SAPI  H13Y21557   0.483   1.566   7.927 -1.2110  0.4180 -0.1736
  187SAPI  C31421558   0.567   1.676   8.088  0.6071 -0.2677  0.2669
  187SAPI  H14X21559   0.490   1.757   8.079  0.6544  0.0222  2.2198
  187SAPI  H14Y21560   0.669   1.711   8.113 -0.1121 -0.9984  4.6867
  187SAPI  C31521561   0.519   1.573   8.197  0.7063  0.3760  0.0407
  187SAPI  H15X21562   0.599   1.506   8.234  0.2041 -1.6079 -2.3598
  187SAPI  H15Y21563   0.448   1.502   8.149 -0.8738 -0.7945  3.8395
  187SAPI  C31621564   0.453   1.650   8.319  0.5125 -0.3004  0.3677
  187SAPI  H16X21565   0.373   1.718   8.282 -1.0966 -2.4126 -0.1325
  187SAPI  H16Y21566   0.522   1.721   8.371  1.5098 -0.6562 -0.4628
  187SAPI  C31721567   0.389   1.557   8.421  0.3003 -0.2374 -0.4595
  187SAPI  H17X21568   0.465   1.499   8.478  0.3121 -0.5012 -0.7395
  187SAPI  H17Y21569   0.343   1.473   8.364  0.9671 -2.0523  1.6152
  187SAPI  C31821570   0.296   1.630   8.522 -0.9032  0.7860 -0.2390
  187SAPI  H18X21571   0.222   1.704   8.484 -0.9841  0.3788 -0.8837
  187SAPI  H18Y21572   0.361   1.674   8.600  0.8667 -0.9877 -0.6490
  187SAPI  H18Z21573   0.234   1.561   8.582  0.0889  0.6785  0.6714
  188SAPI   C1221574   2.542   4.716   6.473  0.3863 -0.2528 -0.3047
  188SAPI    H221575   2.513   4.684   6.575 -1.0330  0.4570 -0.4715
  188SAPI    O221576   2.420   4.706   6.400 -0.8546  0.1231 -0.6490
  188SAPI   HO221577   2.409   4.611   6.397 -2.2121  0.1138  3.0696
  188SAPI   C1321578   2.579   4.866   6.483  0.2694  0.3993  0.6765
  188SAPI    H321579   2.663   4.873   6.554  1.0389 -1.7356  0.0053
  188SAPI    O321580   2.478   4.947   6.541 -0.3964  0.0912 -0.5798
  188SAPI   HO321581   2.415   4.964   6.470  0.4003  0.3198 -1.2447
  188SAPI   C1421582   2.629   4.919   6.349 -0.2064 -0.6031 -0.0344
  188SAPI    H421583   2.544   4.922   6.277  0.7956 -1.1659 -1.2845
  188SAPI    O421584   2.688   5.055   6.356 -0.3083  0.2983  0.6267
  188SAPI   HO421585   2.719   5.076   6.268  0.7247 -0.5508  0.7736
  188SAPI   C1521586   2.728   4.820   6.284 -0.9104  0.1415  0.1348
  188SAPI    H521587   2.818   4.829   6.348 -0.1258  0.9786 -1.0669
  188SAPI    O521588   2.752   4.877   6.154  0.5800 -0.2265  0.2231
  188SAPI   HO521589   2.805   4.820   6.098 -2.8645 -0.6175 -2.7698
  188SAPI   C1621590   2.683   4.675   6.281  0.1625 -0.1089 -0.6325
  188SAPI    H621591   2.592   4.658   6.220  0.4160  0.4981 -1.1809
  188SAPI    O621592   2.787   4.605   6.231 -0.0758  0.3969  0.0023
  188SAPI   HO621593   2.770   4.596   6.137 -2.1936 -0.4977  0.4534
  188SAPI   C1121594   2.649   4.631   6.419 -0.2754  0.1021 -0.2409
  188SAPI    H121595   2.744   4.650   6.474 -0.5293 -0.6928  0.4761
  188SAPI     P21596   2.640   4.388   6.538  0.8968 -0.8188 -0.6605
  188SAPI   O1321597   2.784   4.389   6.547 -0.1864 -0.1076  0.0943
  188SAPI   O1421598   2.576   4.257   6.513  0.8513 -0.1007 -0.3255
  188SAPI   O1221599   2.604   4.494   6.415  0.5918 -0.3747  0.0838
  188SAPI   O1121600   2.566   4.457   6.662 -0.1145 -0.1450 -0.2124
  188SAPI    C121601   2.429   4.440   6.701 -0.0520  0.3498  0.0639
  188SAPI    HA21602   2.383   4.541   6.712 -3.2226 -0.7556 -2.1621
  188SAPI    HB21603   2.368   4.382   6.629  2.3137  0.4100 -2.0712
  188SAPI    C221604   2.434   4.386   6.847 -0.0250  0.5686  0.3672
  188SAPI    HS21605   2.334   4.344   6.869 -0.6612  1.1775 -1.2807
  188SAPI   O2121606   2.485   4.481   6.938  0.7406 -0.4237 -0.8047
  188SAPI   C2121607   2.398   4.576   6.977  0.0586  0.3658  0.5563
  188SAPI   O2221608   2.283   4.581   6.938 -0.0059  0.4479 -0.4947
  188SAPI   C2221609   2.465   4.686   7.068 -0.2490  0.4121  0.0920
  188SAPI   H2R21610   2.535   4.637   7.139 -2.5864 -1.0729  1.4439
  188SAPI   H2S21611   2.530   4.748   7.002  1.9063  2.6570  4.1362
  188SAPI    C321612   2.522   4.266   6.847  0.7558  0.3245 -0.2682
  188SAPI    HX21613   2.629   4.283   6.824  0.5671  0.5983 -0.9357
  188SAPI    HY21614   2.484   4.211   6.758  1.1503  0.1637 -0.3411
  188SAPI   O3121615   2.507   4.191   6.969  0.0859  0.4317 -0.7862
  188SAPI   C3121616   2.516   4.059   6.960  0.2662  0.0997  0.3844
  188SAPI   O3221617   2.540   4.005   6.852 -0.7425  0.5315  0.4620
  188SAPI   C3221618   2.495   4.001   7.101 -0.9665  0.3901 -0.0089
  188SAPI   H2X21619   2.417   3.923   7.092  1.2259 -1.8084 -0.4263
  188SAPI   H2Y21620   2.455   4.082   7.165 -3.4981  0.4192 -1.5544
  188SAPI   C2321621   2.372   4.780   7.158  0.2786 -0.3333  0.3439
  188SAPI   H3R21622   2.290   4.801   7.086  0.6990  0.0778 -0.0164
  188SAPI   H3S21623   2.428   4.875   7.169 -0.8320  0.2358  1.1569
  188SAPI   C2421624   2.342   4.713   7.286 -0.0978  0.1262  0.0529
  188SAPI   H4R21625   2.434   4.676   7.337 -0.3727  0.8032  1.0441
  188SAPI   H4S21626   2.270   4.630   7.272 -1.0358  0.3733  3.0461
  188SAPI   C2521627   2.257   4.796   7.376  0.0211  0.2895  0.1893
  188SAPI   H5R21628   2.150   4.785   7.352  0.1488  0.2301 -0.3608
  188SAPI   C2621629   2.288   4.870   7.481  0.6210 -0.0287 -0.4868
  188SAPI   H6R21630   2.203   4.910   7.537  0.7604 -0.4601  0.0397
  188SAPI   C2721631   2.426   4.901   7.540  0.8757  0.0225 -0.3435
  188SAPI   H7R21632   2.428   5.007   7.573  0.0999 -0.4499  1.2289
  188SAPI   H7S21633   2.515   4.888   7.474  1.7535  0.7733  0.6853
  188SAPI   C2821634   2.431   4.800   7.654 -0.6368 -0.1562 -0.1911
  188SAPI   H8R21635   2.456   4.700   7.616  0.8597  0.4118 -0.7011
  188SAPI   C2921636   2.413   4.829   7.788 -0.4007  0.0676  0.1061
  188SAPI   H9R21637   2.417   4.741   7.853  1.7722 -0.4357 -0.6504
  188SAPI  C21021638   2.371   4.961   7.849 -0.3326  0.4775 -1.0068
  188SAPI  H10R21639   2.339   5.039   7.777 -2.4208  1.0109  0.4724
  188SAPI  H10S21640   2.464   4.990   7.903 -0.1243 -1.1078 -0.4948
  188SAPI  C21121641   2.265   4.952   7.954  0.1244  0.6680 -0.2081
  188SAPI  H11R21642   2.163   4.972   7.918  0.6384  1.2608 -1.3900
  188SAPI  C21221643   2.277   4.930   8.082 -0.0238  0.6424  0.0892
  188SAPI  H12R21644   2.187   4.934   8.146 -1.2423 -0.4656 -1.5169
  188SAPI  C21321645   2.403   4.901   8.154 -0.1008  0.1724 -0.3323
  188SAPI  H13R21646   2.443   5.001   8.180  1.5998  0.0029 -2.1498
  188SAPI  H13S21647   2.490   4.881   8.087  0.1691  1.1479 -0.2711
  188SAPI  C21421648   2.400   4.804   8.269  0.1488 -0.0450  0.2538
  188SAPI  H14R21649   2.432   4.701   8.247  0.4615  0.3899 -1.4153
  188SAPI  C21521650   2.360   4.825   8.396 -0.5181 -0.0400  0.0120
  188SAPI  H15R21651   2.375   4.743   8.468 -0.2734  1.2606  1.4606
  188SAPI  C21621652   2.307   4.954   8.456  0.2022 -0.8144 -0.8507
  188SAPI  H16R21653   2.200   4.940   8.483  0.6669  0.0336  1.5526
  188SAPI  H16S21654   2.292   5.027   8.374 -0.7106  1.6575  1.4247
  188SAPI  C21721655   2.387   5.025   8.566  0.0488  0.1676  0.3181
  188SAPI  H17R21656   2.391   4.955   8.652  2.0027 -0.3487 -0.1587
  188SAPI  H17S21657   2.332   5.118   8.594  2.8916  1.7827  0.7697
  188SAPI  C21821658   2.535   5.058   8.537 -0.1681  0.1667 -0.8324
  188SAPI  H18R21659   2.569   5.152   8.585 -1.6321  0.2198  0.1458
  188SAPI  H18S21660   2.541   5.082   8.429  0.9889  0.3263 -0.7364
  188SAPI  C21921661   2.626   4.943   8.586 -0.1788 -0.1149  0.1593
  188SAPI  H19R21662   2.588   4.845   8.548  1.1834  0.1359 -1.9920
  188SAPI  H19S21663   2.632   4.944   8.697  1.2437 -0.6707  0.1015
  188SAPI  C22021664   2.770   4.960   8.536  0.0273 -0.5836  0.6580
  188SAPI  H20R21665   2.843   4.879   8.558  1.0947  0.1486 -0.0981
  188SAPI  H20S21666   2.810   5.058   8.570  1.4504 -1.3253  1.1695
  188SAPI  H20T21667   2.769   4.952   8.425  2.0190  0.7416  0.5205
  188SAPI   C3321668   2.619   3.939   7.158 -1.4280 -0.2703 -0.9103
  188SAPI   H3X21669   2.688   4.015   7.200  0.6880 -3.0181  0.7188
  188SAPI   H3Y21670   2.670   3.883   7.077 -2.0087  1.3285 -2.4026
  188SAPI   C3421671   2.574   3.834   7.261 -0.5282  0.6031 -0.5339
  188SAPI   H4X21672   2.665   3.775   7.283 -1.6734 -0.7922  0.5681
  188SAPI   H4Y21673   2.496   3.762   7.230 -0.5964  0.2921  0.3356
  188SAPI   C3521674   2.523   3.896   7.396 -0.0868  0.2195  0.8089
  188SAPI   H5X21675   2.521   3.807   7.462  0.8579 -0.9068 -0.6635
  188SAPI   H5Y21676   2.428   3.952   7.379  0.2760  0.3992 -0.7091
  188SAPI   C3621677   2.634   3.969   7.471  0.0960  0.9601  0.1318
  188SAPI   H6X21678   2.678   4.042   7.399 -3.4152  3.6989  0.6401
  188SAPI   H6Y21679   2.715   3.897   7.498  1.1115  1.1504 -2.2182
  188SAPI   C3721680   2.593   4.039   7.603  0.0445  0.2030 -0.8579
  188SAPI   H7X21681   2.514   4.113   7.578 -1.1575 -0.9136 -0.4177
  188SAPI   H7Y21682   2.680   4.085   7.654  1.4332 -2.6248 -0.6039
  188SAPI   C3821683   2.527   3.941   7.706 -0.4598  0.7474 -0.0773
  188SAPI   H8X21684   2.597   3.855   7.716 -1.4789 -0.1615 -0.6544
  188SAPI   H8Y21685   2.430   3.902   7.669  0.4303 -0.1138 -1.5614
  188SAPI   C3921686   2.518   4.003   7.841  0.3288  0.1179 -0.5090
  188SAPI   H9X21687   2.503   4.110   7.816  1.1086 -0.2792 -2.7738
  188SAPI   H9Y21688   2.615   4.018   7.893  1.2647 -1.2083 -1.8335
  188SAPI  C31021689   2.409   3.924   7.924 -0.0238 -0.2414 -0.6459
  188SAPI  H10X21690   2.458   3.824   7.929 -1.2212 -0.8146  0.0151
  188SAPI  H10Y21691   2.307   3.914   7.881 -0.7131  0.7790  0.6900
  188SAPI  C31121692   2.409   3.987   8.066  0.2264 -0.2182  0.7515
  188SAPI  H11X21693   2.396   4.094   8.039 -0.8252 -0.2978  0.9206
  188SAPI  H11Y21694   2.511   3.982   8.111  1.2740  1.3490 -1.3920
  188SAPI  C31221695   2.309   3.931   8.169  0.6226 -0.1307  0.1265
  188SAPI  H12X21696   2.335   3.995   8.257 -0.8186  1.6154 -0.6867
  188SAPI  H12Y21697   2.337   3.825   8.185  2.3872 -0.0074 -1.9041
  188SAPI  C31321698   2.155   3.942   8.124  0.5510  0.0187  0.2835
  188SAPI  H13X21699   2.133   3.880   8.034  0.9376  0.5470 -0.1729
  188SAPI  H13Y21700   2.137   4.047   8.092  1.5896  0.1044 -0.0119
  188SAPI  C31421701   2.060   3.910   8.245 -0.4316 -0.2415  0.4088
  188SAPI  H14X21702   2.099   3.967   8.332 -0.7529 -0.3511  0.6232
  188SAPI  H14Y21703   2.057   3.800   8.261 -0.5547 -0.1967  0.6774
  188SAPI  C31521704   1.917   3.959   8.234  0.5009  0.6526  0.0816
  188SAPI  H15X21705   1.857   3.886   8.175  1.5081 -0.3009  0.2275
  188SAPI  H15Y21706   1.920   4.061   8.191 -0.8231  0.8559  0.4505
  188SAPI  C31621707   1.855   3.993   8.369 -0.3183  0.0700 -0.0086
  188SAPI  H16X21708   1.904   4.086   8.405  0.8098 -0.0918 -1.0887
  188SAPI  H16Y21709   1.847   3.910   8.441  0.0077  0.5200  0.5506
  188SAPI  C31721710   1.709   4.042   8.351 -0.3078 -0.6477  0.5486
  188SAPI  H17X21711   1.658   3.957   8.303 -2.0607  0.9244 -0.4309
  188SAPI  H17Y21712   1.710   4.121   8.272  1.4650  0.4213  1.5861
  188SAPI  C31821713   1.637   4.078   8.478  0.5504 -0.3174  0.3680
  188SAPI  H18X21714   1.542   4.126   8.449 -0.9777 -3.8886 -0.8626
  188SAPI  H18Y21715   1.693   4.153   8.539 -1.6598  1.7940 -0.1557
  188SAPI  H18Z21716   1.599   3.990   8.534 -1.3913  0.8524  0.9171
  189POPC     N21717   1.681   5.941  10.958 -0.3374  0.1209  0.1891
  189POPC   C1221718   1.759   5.842  10.874  0.4045  0.4515 -0.1453
  189POPC  H12A21719   1.865   5.855  10.892  0.7005  0.4965 -1.8800
  189POPC  H12B21720   1.764   5.877  10.772 -0.5729  0.1733 -0.2864
  189POPC   C1321721   1.706   6.078  10.900  0.5832  0.2902 -0.3404
  189POPC  H13A21722   1.638   6.149  10.944 -0.2079 -0.3069 -0.6047
  189POPC  H13B21723   1.808   6.112  10.917 -0.2083  3.1202 -0.9805
  189POPC  H13C21724   1.702   6.083  10.793  1.9072  0.7939 -0.3870
  189POPC   C1421725   1.534   5.911  10.952 -0.3740 -0.0277  0.3138
  189POPC  H14A21726   1.469   5.978  11.006 -1.6039  1.1829 -2.5743
  189POPC  H14B21727   1.490   5.939  10.858  0.4787 -1.1988 -0.4601
  189POPC  H14C21728   1.522   5.812  10.994  0.3618  0.4400  1.6551
  189POPC   C1521729   1.731   5.945  11.102  0.0391 -0.3819 -0.4811
  189POPC  H15A21730   1.671   6.006  11.168  0.6764 -0.2372 -0.0309
  189POPC  H15B21731   1.835   5.972  11.113 -0.2022  0.3907 -0.0598
  189POPC  H15C21732   1.713   5.843  11.135 -1.7487  0.0360 -0.1428
  189POPC   C1121733   1.733   5.693  10.879 -0.4511 -0.4151 -0.2713
  189POPC  H11A21734   1.738   5.654  10.983 -1.6894 -0.0506 -0.0662
  189POPC  H11B21735   1.824   5.653  10.830 -0.1250 -0.6712  0.5323
  189POPC     P21736   1.573   5.507  10.799 -0.0016 -0.3119  0.0209
  189POPC   O1321737   1.430   5.508  10.760 -0.7915 -0.0046 -0.8371
  189POPC   O1421738   1.608   5.425  10.916 -0.0807  0.4687 -0.2695
  189POPC   O1221739   1.612   5.659  10.817 -0.4866 -0.2254  0.8051
  189POPC   O1121740   1.655   5.465  10.667  0.3284 -0.5221  0.1332
  189POPC    C121741   1.653   5.534  10.547 -0.1304  0.4111  0.2515
  189POPC    HA21742   1.750   5.520  10.495  0.3163  0.4945  1.0590
  189POPC    HB21743   1.645   5.643  10.567 -3.8362 -0.0353  1.6957
  189POPC    C221744   1.537   5.488  10.446  0.0329 -0.3809  0.7059
  189POPC    HS21745   1.447   5.475  10.509 -1.7208 -0.7627 -1.8304
  189POPC   O2121746   1.572   5.363  10.391  0.5748 -0.2146  0.3613
  189POPC   C2121747   1.475   5.280  10.342 -0.1766  0.2883 -0.0739
  189POPC   O2221748   1.356   5.302  10.340  0.6897  0.2746 -0.2221
  189POPC   C2221749   1.539   5.144  10.291 -0.1260  0.2357 -0.6172
  189POPC   H2R21750   1.473   5.076  10.233 -0.7445  0.4257 -0.1373
  189POPC   H2S21751   1.553   5.093  10.389  1.0309 -0.7255 -1.2740
  189POPC    C321752   1.514   5.584  10.328 -0.3064 -0.3678 -0.4876
  189POPC    HX21753   1.487   5.683  10.369  0.5498 -0.6067  0.6598
  189POPC    HY21754   1.429   5.547  10.266 -0.4512  0.4938 -0.8043
  189POPC   O3121755   1.634   5.592  10.248  0.1295  0.0674 -0.0794
  189POPC   C3121756   1.715   5.695  10.278  1.0827 -0.4121  0.5902
  189POPC   O3221757   1.698   5.776  10.363 -0.5122  0.5007  0.0978
  189POPC   C3221758   1.843   5.689  10.195  1.3846 -0.0214  0.8311
  189POPC   H2X21759   1.838   5.595  10.135 -0.0638 -1.0430  2.4943
  189POPC   H2Y21760   1.926   5.669  10.265  1.7042 -0.5982  0.2953
  189POPC   C2321761   1.688   5.146  10.237 -0.1820 -0.7633  0.1563
  189POPC   H3R21762   1.731   5.046  10.260 -0.4230 -0.7663  0.5906
  189POPC   H3S21763   1.752   5.213  10.299  0.1007 -1.5965  0.7758
  189POPC   C2421764   1.692   5.184  10.081 -0.7498  0.0977 -0.0756
  189POPC   H4R21765   1.633   5.108  10.025 -0.6170  0.3081 -0.4988
  189POPC   H4S21766   1.797   5.170  10.047 -0.4620  1.4909  0.2332
  189POPC   C2521767   1.649   5.330  10.047  0.6281  0.3503 -0.1498
  189POPC   H5R21768   1.691   5.401  10.121 -0.1943  0.1062  0.5468
  189POPC   H5S21769   1.539   5.335  10.060  0.6332 -1.7672  0.8413
  189POPC   C2621770   1.671   5.379   9.897  0.3255 -0.5555  0.4789
  189POPC   H6R21771   1.597   5.333   9.828 -0.6737 -2.7534  2.9172
  189POPC   H6S21772   1.769   5.348   9.855 -0.7292 -0.4287 -2.2278
  189POPC   C2721773   1.653   5.530   9.894 -0.0258  0.3621  0.2367
  189POPC   H7R21774   1.722   5.575   9.968 -1.6539 -2.0687  3.4052
  189POPC   H7S21775   1.554   5.556   9.938  0.8367  2.9717  0.7423
  189POPC   C2821776   1.663   5.582   9.751  0.4744 -0.3034 -0.3578
  189POPC   H8R21777   1.575   5.558   9.688 -0.8541  0.0843  1.3062
  189POPC   H8S21778   1.751   5.527   9.713  1.3667  1.0111 -0.2098
  189POPC   C2921779   1.695   5.724   9.754 -0.0104 -0.4549  0.0251
  189POPC   H9121780   1.753   5.765   9.839  0.3438 -2.7355  0.9128
  189POPC  C21021781   1.641   5.821   9.676  0.6278 -0.0708  0.3015
  189POPC  H10121782   1.685   5.920   9.694 -0.7406  0.6598 -0.3268
  189POPC  C21121783   1.539   5.805   9.567 -0.1424 -0.5202 -0.2291
  189POPC  H11R21784   1.452   5.866   9.601 -0.6953 -0.6594 -1.3793
  189POPC  H11S21785   1.507   5.699   9.569  1.6907 -1.0783  0.3649
  189POPC  C21221786   1.569   5.842   9.420 -0.2759 -0.0669 -0.6351
  189POPC  H12R21787   1.644   5.769   9.383 -0.5986 -2.6763  3.5104
  189POPC  H12S21788   1.627   5.936   9.428 -1.8718  0.8093  0.9380
  189POPC  C21321789   1.451   5.840   9.325 -0.0111  0.5656 -0.5998
  189POPC  H13R21790   1.373   5.918   9.345 -0.7218 -0.6734  1.6541
  189POPC  H13S21791   1.403   5.740   9.323  2.1931 -0.5244 -0.1565
  189POPC  C21421792   1.493   5.877   9.180  0.3599 -0.4262 -0.2458
  189POPC  H14R21793   1.589   5.829   9.149 -0.3772 -2.9705  1.3317
  189POPC  H14S21794   1.509   5.987   9.180  1.7556 -0.6132 -0.3253
  189POPC  C21521795   1.389   5.843   9.077  0.0804  0.3759  1.4291
  189POPC  H15R21796   1.297   5.905   9.087 -0.2707  0.0406  0.2598
  189POPC  H15S21797   1.360   5.736   9.085  1.2349 -0.2699 -2.3220
  189POPC  C21621798   1.447   5.869   8.938 -0.2175  0.3617 -0.2106
  189POPC  H16R21799   1.534   5.804   8.918 -4.2081 -4.8051 -1.7815
  189POPC  H16S21800   1.487   5.972   8.925 -0.4913  0.6217  0.9382
  189POPC  C21721801   1.346   5.839   8.833 -0.2329 -0.2982 -0.2620
  189POPC  H17R21802   1.262   5.911   8.825  1.5085  1.5856 -2.3229
  189POPC  H17S21803   1.300   5.740   8.853 -0.1556 -0.1437  0.6846
  189POPC  C21821804   1.409   5.828   8.687 -0.5563  0.3428 -0.2122
  189POPC  H18R21805   1.335   5.783   8.618 -3.0258  1.5646  1.5986
  189POPC  H18S21806   1.502   5.767   8.693 -1.0306 -0.4724 -1.0911
  189POPC  H18T21807   1.441   5.931   8.662  0.8947 -0.0380 -0.0177
  189POPC   C3321808   1.872   5.803  10.104 -0.2596  0.6745  0.0768
  189POPC   H3X21809   1.908   5.888  10.165  0.4503 -1.3140  2.5379
  189POPC   H3Y21810   1.780   5.842  10.055  1.3898  0.2455 -3.5438
  189POPC   C3421811   1.986   5.769  10.007  0.2629 -0.5359 -0.6910
  189POPC   H4X21812   1.945   5.683   9.948  0.9766  0.2531 -2.3688
  189POPC   H4Y21813   2.070   5.734  10.070 -1.2500 -0.1923  1.5727
  189POPC   C3521814   2.019   5.889   9.917  0.2597  1.0042 -0.7744
  189POPC   H5X21815   2.075   5.950   9.991  2.4395 -3.5987  1.6488
  189POPC   H5Y21816   1.924   5.929   9.876 -0.1011  1.3053  0.3271
  189POPC   C3621817   2.120   5.834   9.815 -0.3972 -0.0765  0.1921
  189POPC   H6X21818   2.174   5.748   9.861 -3.2935 -1.7581  0.6031
  189POPC   H6Y21819   2.196   5.914   9.808  1.2072 -1.5706  0.2368
  189POPC   C3721820   2.059   5.804   9.682 -0.0797  0.2609 -0.0111
  189POPC   H7X21821   1.967   5.741   9.686 -0.3520  0.7025  0.8115
  189POPC   H7Y21822   2.125   5.738   9.623 -0.0903  1.3767 -1.3031
  189POPC   C3821823   2.033   5.940   9.608 -0.3664  0.1665 -0.6059
  189POPC   H8X21824   2.128   5.994   9.586  0.3017 -1.4630 -1.8316
  189POPC   H8Y21825   1.976   6.007   9.675 -0.7711 -0.9941  0.2081
  189POPC   C3921826   1.950   5.920   9.475 -0.3367 -0.3095 -0.6363
  189POPC   H9X21827   1.926   6.018   9.430 -0.1600 -0.2234 -0.5448
  189POPC   H9Y21828   1.853   5.874   9.503  0.0358 -0.3034  0.6866
  189POPC  C31021829   2.013   5.821   9.373 -0.1585  0.1401 -0.1136
  189POPC  H10X21830   2.022   5.720   9.418 -0.2904  0.9126  1.7001
  189POPC  H10Y21831   2.117   5.859   9.362 -0.5260  1.6019  1.2965
  189POPC  C31121832   1.938   5.808   9.247  0.0102  0.2627  0.5125
  189POPC  H11X21833   1.911   5.913   9.223 -0.8206 -0.0903 -0.1320
  189POPC  H11Y21834   1.850   5.741   9.260  0.8144 -0.7708  0.6576
  189POPC  C31221835   2.020   5.734   9.130  0.4966 -0.0623  0.1202
  189POPC  H12X21836   1.951   5.720   9.044 -0.1321  0.8601  0.4578
  189POPC  H12Y21837   2.034   5.627   9.158  2.3095 -0.2913 -1.5948
  189POPC  C31321838   2.164   5.789   9.092  0.1916  0.1272 -0.5295
  189POPC  H13X21839   2.217   5.697   9.061 -0.3419 -1.1451  2.2085
  189POPC  H13Y21840   2.226   5.815   9.181  0.2826  0.5978 -0.7312
  189POPC  C31421841   2.163   5.884   8.966 -0.3373 -0.3725 -0.1378
  189POPC  H14X21842   2.080   5.863   8.894  1.0547 -0.2852 -1.8069
  189POPC  H14Y21843   2.265   5.864   8.928 -0.7000  2.0274 -2.5538
  189POPC  C31521844   2.157   6.031   9.002  0.0909  0.2032  0.5767
  189POPC  H15X21845   2.222   6.046   9.091 -0.3117  0.1500  0.8757
  189POPC  H15Y21846   2.048   6.039   9.019 -0.0314  1.9763 -0.9310
  189POPC  C31621847   2.189   6.126   8.887  0.2467  1.1647 -0.1066
  189POPC  H16X21848   2.290   6.115   8.844  0.6152  1.6116  0.6284
  189POPC  H16Y21849   2.162   6.232   8.909  1.0234  1.2466  0.4371
  189POPC  H16Z21850   2.128   6.088   8.802 -1.8813  0.0118  1.8919
  190POPC     N21851   4.460   1.633  11.406 -0.3783 -0.6334 -0.6069
  190POPC   C1221852   4.418   1.715  11.284 -0.3135  0.3243  0.1168
  190POPC  H12A21853   4.311   1.705  11.277 -0.2325 -0.0558 -0.5901
  190POPC  H12B21854   4.459   1.678  11.191 -0.6160 -0.9784  0.4830
  190POPC   C1321855   4.443   1.704  11.538  0.1116 -0.0726  0.5809
  190POPC  H13A21856   4.528   1.771  11.547 -1.9426  2.4459  1.8323
  190POPC  H13B21857   4.342   1.742  11.537 -0.6254 -2.0330  0.1367
  190POPC  H13C21858   4.442   1.624  11.610 -0.0946 -0.8288 -0.2508
  190POPC   C1421859   4.385   1.504  11.400 -0.6654  0.7297 -1.1853
  190POPC  H14A21860   4.396   1.458  11.303  0.0849  1.3238 -1.3886
  190POPC  H14B21861   4.411   1.439  11.482  0.1407  1.3789 -0.9133
  190POPC  H14C21862   4.279   1.519  11.410 -0.3789  1.3058  1.3507
  190POPC   C1521863   4.607   1.605  11.390 -0.3211 -0.6561  1.0467
  190POPC  H15A21864   4.624   1.540  11.306 -3.2348  1.6169 -1.4392
  190POPC  H15B21865   4.652   1.543  11.466  0.9180  0.2503  1.0698
  190POPC  H15C21866   4.660   1.694  11.358  0.0184 -1.0617  0.4734
  190POPC   C1121867   4.452   1.870  11.281  0.6618 -0.4727  0.0688
  190POPC  H11A21868   4.395   1.911  11.367  0.3776  0.6143 -0.6314
  190POPC  H11B21869   4.398   1.917  11.195  0.1060  0.9477  1.1789
  190POPC     P21870   4.708   1.882  11.194  0.4707 -0.2112  0.1667
  190POPC   O1321871   4.804   1.779  11.244  0.3241  0.3054  0.2778
  190POPC   O1421872   4.761   2.018  11.164  0.6344 -0.3106  0.3664
  190POPC   O1221873   4.590   1.911  11.298 -0.0152 -0.0539 -0.1820
  190POPC   O1121874   4.627   1.838  11.060 -0.2172  0.5881  0.6067
  190POPC    C121875   4.665   1.729  10.976  0.1561  0.1793  0.0421
  190POPC    HA21876   4.584   1.653  10.975  0.6087 -0.3714  2.2086
  190POPC    HB21877   4.752   1.669  11.009 -0.6465 -1.1256 -0.1499
  190POPC    C221878   4.696   1.771  10.829  0.2288 -0.1404  0.4650
  190POPC    HS21879   4.798   1.814  10.817  0.1456 -0.5267 -1.7909
  190POPC   O2121880   4.597   1.879  10.792 -0.0841  0.2504  0.4057
  190POPC   C2121881   4.620   1.956  10.677 -0.3715  1.2564  0.3251
  190POPC   O2221882   4.720   1.949  10.610 -0.4243  0.2667 -0.0484
  190POPC   C2221883   4.490   2.045  10.648 -0.4237 -0.1824 -0.4651
  190POPC   H2R21884   4.529   2.150  10.646  0.7117 -0.6057 -1.6562
  190POPC   H2S21885   4.420   2.026  10.731  3.9045 -0.9670  3.1999
  190POPC    C321886   4.676   1.649  10.729  0.5975 -0.5681  0.0160
  190POPC    HX21887   4.746   1.576  10.774  1.5236  0.8531  0.9334
  190POPC    HY21888   4.724   1.678  10.633 -0.0432 -0.5851 -0.3118
  190POPC   O3121889   4.540   1.594  10.709 -0.1375  0.3211  0.1971
  190POPC   C3121890   4.547   1.487  10.627  0.6022  0.6544 -0.2972
  190POPC   O3221891   4.648   1.432  10.586  0.1728  0.3558 -0.0718
  190POPC   C3221892   4.409   1.437  10.600  0.0838  0.3236  0.4204
  190POPC   H2X21893   4.330   1.515  10.608  0.0089  0.4555 -1.4070
  190POPC   H2Y21894   4.386   1.362  10.679  1.2452  0.7460  1.1590
  190POPC   C2321895   4.406   2.019  10.521 -0.0868  0.2222  0.6318
  190POPC   H3R21896   4.479   2.038  10.439  0.4961 -0.0006  1.0969
  190POPC   H3S21897   4.329   2.099  10.515 -0.2692  0.0037  0.0066
  190POPC   C2421898   4.349   1.878  10.512  0.3620  0.6421  0.8092
  190POPC   H4R21899   4.329   1.842  10.616  0.2427  0.2916  0.6684
  190POPC   H4S21900   4.417   1.793  10.492  1.7089  1.7288  0.7278
  190POPC   C2521901   4.226   1.865  10.417 -0.1130  0.3215  0.0141
  190POPC   H5R21902   4.158   1.942  10.461 -1.1265  0.4709 -1.7697
  190POPC   H5S21903   4.174   1.767  10.425  0.3248  0.2293  1.9810
  190POPC   C2621904   4.244   1.901  10.267 -0.5796 -0.0243 -0.3670
  190POPC   H6R21905   4.339   1.849  10.242  0.4397  1.1125  1.0635
  190POPC   H6S21906   4.275   2.007  10.256  1.7950 -0.7254 -0.6766
  190POPC   C2721907   4.124   1.861  10.188 -0.1885  0.5923  0.2270
  190POPC   H7R21908   4.036   1.912  10.232  0.7802  3.0872 -0.6662
  190POPC   H7S21909   4.116   1.750  10.189 -1.8128  0.6847 -0.5992
  190POPC   C2821910   4.128   1.889  10.037  0.2870 -0.8291  0.3877
  190POPC   H8R21911   4.104   1.996  10.021 -1.7129 -0.9617  2.2022
  190POPC   H8S21912   4.050   1.823   9.992 -0.1143 -2.2524  3.0572
  190POPC   C2921913   4.260   1.855   9.967  0.1087  0.3531 -0.0657
  190POPC   H9121914   4.324   1.775  10.007 -0.6764 -0.3213 -0.1489
  190POPC  C21021915   4.301   1.910   9.853 -0.6498  0.0714 -0.9477
  190POPC  H10121916   4.393   1.870   9.810  1.0650  2.0147  0.8012
  190POPC  C21121917   4.240   2.023   9.770  0.1059 -0.2455  0.0322
  190POPC  H11R21918   4.315   2.099   9.740 -0.8669  1.0801  0.9014
  190POPC  H11S21919   4.169   2.070   9.842  1.5513  0.6992  0.8620
  190POPC  C21221920   4.162   1.992   9.638 -0.1749  0.2610 -0.4522
  190POPC  H12R21921   4.131   2.098   9.623 -0.7933  0.3872  1.5044
  190POPC  H12S21922   4.085   1.914   9.652  1.5989 -1.8525 -2.2703
  190POPC  C21321923   4.242   1.944   9.513 -0.4195  0.0962 -0.4231
  190POPC  H13R21924   4.288   1.852   9.554 -1.7174  0.3906  1.7781
  190POPC  H13S21925   4.315   2.023   9.486  0.0790  0.0961  0.8938
  190POPC  C21421926   4.144   1.921   9.400 -0.0495  0.9729  0.5460
  190POPC  H14R21927   4.094   2.020   9.393 -0.6628  0.6183 -0.1625
  190POPC  H14S21928   4.066   1.848   9.432  0.1232  0.5931  0.1069
  190POPC  C21521929   4.211   1.874   9.269  0.0760 -0.3355 -0.2112
  190POPC  H15R21930   4.260   1.780   9.302 -2.0318 -0.9915  1.1392
  190POPC  H15S21931   4.294   1.946   9.248  1.0459 -1.0828  1.0050
  190POPC  C21621932   4.116   1.854   9.149  0.7691 -1.2159 -1.2183
  190POPC  H16R21933   4.062   1.940   9.105  0.7833  0.3124  1.6014
  190POPC  H16S21934   4.036   1.781   9.173  0.4483  0.0846  1.9995
  190POPC  C21721935   4.194   1.783   9.040  0.2820  0.0575 -0.4068
  190POPC  H17R21936   4.208   1.679   9.078  0.5650  0.8924  1.7977
  190POPC  H17S21937   4.295   1.824   9.022  0.4662  0.7245  2.0227
  190POPC  C21821938   4.103   1.780   8.913 -0.3925 -0.4900  0.4678
  190POPC  H18R21939   4.072   1.884   8.886 -2.5107 -1.4679 -0.9348
  190POPC  H18S21940   4.009   1.722   8.926 -1.0398  0.2087 -0.9143
  190POPC  H18T21941   4.154   1.738   8.824  0.3292 -1.9320  1.5579
  190POPC   C3321942   4.389   1.375  10.461 -0.1550  0.1020 -0.0624
  190POPC   H3X21943   4.286   1.335  10.462 -0.3518  0.5612 -1.1402
  190POPC   H3Y21944   4.452   1.284  10.452 -0.2950  0.0867 -0.8991
  190POPC   C3421945   4.404   1.473  10.342 -0.7942  0.9775  0.6091
  190POPC   H4X21946   4.512   1.499  10.336 -0.9821  1.3251 -1.6454
  190POPC   H4Y21947   4.338   1.557  10.372  1.0736  2.2755  1.2088
  190POPC   C3521948   4.354   1.408  10.214 -0.3227 -0.1648  0.1830
  190POPC   H5X21949   4.245   1.393  10.233 -0.0585 -1.4145  0.8072
  190POPC   H5Y21950   4.407   1.311  10.205  0.5856  0.2232  1.2470
  190POPC   C3621951   4.358   1.493  10.092 -0.4000  0.3466  0.0742
  190POPC   H6X21952   4.347   1.601  10.118  3.5182  0.7363  0.3028
  190POPC   H6Y21953   4.277   1.457  10.024  0.9528 -1.9661 -0.3391
  190POPC   C3721954   4.487   1.486  10.003 -0.8503 -0.2383  0.0358
  190POPC   H7X21955   4.523   1.381  10.009 -0.9487 -0.2516  0.4400
  190POPC   H7Y21956   4.562   1.543  10.062  0.1978 -1.0937 -0.4706
  190POPC   C3821957   4.478   1.534   9.860  0.4987  0.5488 -0.4539
  190POPC   H8X21958   4.452   1.641   9.868  0.3990  0.6605 -2.1390
  190POPC   H8Y21959   4.399   1.480   9.803 -0.1381  2.8629 -1.7931
  190POPC   C3921960   4.610   1.516   9.777  0.0351 -0.3117  0.4145
  190POPC   H9X21961   4.641   1.409   9.782 -1.4540 -0.7160  1.5831
  190POPC   H9Y21962   4.694   1.572   9.822 -0.4821 -0.2813  1.3640
  190POPC  C31021963   4.589   1.565   9.634 -0.0131  0.4366 -0.4686
  190POPC  H10X21964   4.692   1.565   9.592  0.1182  1.3387 -0.1458
  190POPC  H10Y21965   4.546   1.667   9.630 -1.0752  0.0575  0.9023
  190POPC  C31121966   4.521   1.463   9.540 -0.7398 -0.3503  0.0238
  190POPC  H11X21967   4.413   1.445   9.557 -1.1385  1.5492 -0.3758
  190POPC  H11Y21968   4.571   1.367   9.564  1.3511  0.5326 -0.6309
  190POPC  C31221969   4.532   1.495   9.388  0.3526  0.5731 -0.0657
  190POPC  H12X21970   4.632   1.511   9.343 -0.2538 -0.4664 -1.8467
  190POPC  H12Y21971   4.470   1.584   9.367  0.8271  1.8044  3.4553
  190POPC  C31321972   4.473   1.374   9.314  0.1638 -0.0713  0.3134
  190POPC  H13X21973   4.367   1.363   9.348 -0.4622 -0.3480 -1.6961
  190POPC  H13Y21974   4.529   1.280   9.334 -3.0467 -1.8594  1.2484
  190POPC  C31421975   4.467   1.400   9.161  0.3690  0.2198  0.2043
  190POPC  H14X21976   4.410   1.494   9.143  0.2850  0.3355  1.0854
  190POPC  H14Y21977   4.401   1.319   9.124  1.4045 -0.1855 -0.7674
  190POPC  C31521978   4.604   1.396   9.096 -0.2915 -0.3172  0.4808
  190POPC  H15X21979   4.652   1.296   9.110  1.0948  0.4522  1.2736
  190POPC  H15Y21980   4.665   1.480   9.136 -3.1193  1.7094  0.6443
  190POPC  C31621981   4.594   1.443   8.945 -0.3609 -0.0716 -0.3473
  190POPC  H16X21982   4.524   1.380   8.886 -0.4838  2.2116 -2.7089
  190POPC  H16Y21983   4.698   1.437   8.907 -0.1329 -1.8479  0.4954
  190POPC  H16Z21984   4.557   1.547   8.940 -0.5395  0.0904  3.3587
  191POPC     N21985   5.718   3.353   6.177  0.7803  0.4581 -0.1068
  191POPC   C1221986   5.661   3.282   6.296  0.7387 -0.5261 -0.6218
  191POPC  H12A21987   5.666   3.350   6.380 -0.1269 -2.2592  0.8606
  191POPC  H12B21988   5.728   3.203   6.326  0.7031  0.1058  1.1781
  191POPC   C1321989   5.862   3.404   6.208  0.0923  0.9954 -0.6055
  191POPC  H13A21990   5.922   3.324   6.249 -2.4599 -0.6481  0.0163
  191POPC  H13B21991   5.905   3.432   6.113  1.3894 -1.3501 -0.7323
  191POPC  H13C21992   5.855   3.488   6.276  0.1726  2.2811 -2.1631
  191POPC   C1421993   5.717   3.261   6.059  0.7304  0.1091 -0.0858
  191POPC  H14A21994   5.628   3.241   6.002  0.3242 -0.9257  0.8901
  191POPC  H14B21995   5.786   3.297   5.984  0.8564  1.0344  0.4759
  191POPC  H14C21996   5.755   3.163   6.085 -1.4317 -0.9253 -0.6951
  191POPC   C1521997   5.631   3.466   6.136  0.1981 -0.4974  0.0621
  191POPC  H15A21998   5.664   3.520   6.048 -0.5882 -0.3561 -0.1549
  191POPC  H15B21999   5.619   3.536   6.217 -3.5072 -1.6753  0.6386
  191POPC  H15C22000   5.530   3.428   6.127 -0.3106  0.7640  0.2865
  191POPC   C1122001   5.517   3.219   6.284  0.8084 -0.7924  0.1758
  191POPC  H11A22002   5.490   3.146   6.363  0.5891  0.5162  1.3427
  191POPC  H11B22003   5.521   3.160   6.190  3.9276  0.0442 -0.2717
  191POPC     P22004   5.363   3.392   6.402 -0.1536  0.3977 -0.0048
  191POPC   O1322005   5.240   3.463   6.355 -0.6849  0.6980  0.1984
  191POPC   O1422006   5.475   3.472   6.459  0.0139 -0.1433  0.3173
  191POPC   O1222007   5.419   3.315   6.273  0.2829 -0.4862  0.0944
  191POPC   O1122008   5.328   3.273   6.497 -0.0585  0.3592 -0.6800
  191POPC    C122009   5.246   3.169   6.467 -0.1556 -0.4639  0.0202
  191POPC    HA22010   5.283   3.078   6.518 -0.0382 -0.3978  0.0509
  191POPC    HB22011   5.255   3.126   6.364 -1.9408 -0.7611 -0.0348
  191POPC    C222012   5.096   3.197   6.502 -0.0350  0.2034  0.4285
  191POPC    HS22013   5.068   3.264   6.418  1.0574  0.6445  0.4075
  191POPC   O2122014   5.089   3.263   6.627 -0.6769 -0.2298  0.2216
  191POPC   C2122015   4.992   3.350   6.634 -0.2324  0.3335 -0.4335
  191POPC   O2222016   4.918   3.382   6.541 -0.4160 -0.1256 -0.4522
  191POPC   C2222017   5.000   3.428   6.768  0.2803 -0.6484 -0.4748
  191POPC   H2R22018   4.920   3.505   6.763 -0.1754 -1.1695 -1.2586
  191POPC   H2S22019   5.102   3.471   6.776  0.1416 -0.3994 -0.0402
  191POPC    C322020   5.016   3.073   6.496  0.1116 -0.4202 -0.2343
  191POPC    HX22021   5.027   3.027   6.396 -1.6488  0.1026 -0.6926
  191POPC    HY22022   4.908   3.098   6.500  0.3762  0.8130 -0.6342
  191POPC   O3122023   5.063   2.987   6.605  0.0670 -0.1011  0.6238
  191POPC   C3122024   4.979   2.980   6.706 -0.1908  0.4591 -0.2030
  191POPC   O3222025   4.879   3.044   6.713  0.1996 -0.7313 -0.7548
  191POPC   C3222026   5.036   2.883   6.818  0.7492 -0.5776  1.2321
  191POPC   H2X22027   5.143   2.908   6.834  0.4740 -0.3536  2.7715
  191POPC   H2Y22028   5.032   2.787   6.761  0.8331 -1.2118  2.2956
  191POPC   C2322029   4.979   3.342   6.892  0.3501 -0.2963 -0.4553
  191POPC   H3R22030   5.074   3.284   6.896  0.9442  0.5892 -1.4130
  191POPC   H3S22031   4.891   3.276   6.877  1.1429 -1.0325 -2.0289
  191POPC   C2422032   4.969   3.400   7.027 -0.3767 -0.1770 -0.0987
  191POPC   H4R22033   4.905   3.491   7.028  1.3248  1.0532  1.1404
  191POPC   H4S22034   5.066   3.448   7.051 -0.1816 -0.1880 -0.8579
  191POPC   C2522035   4.902   3.303   7.129 -0.1306  0.5709 -0.0053
  191POPC   H5R22036   4.972   3.224   7.162 -0.4105  1.0128  1.6522
  191POPC   H5S22037   4.814   3.259   7.077  0.6465  0.4336 -1.2417
  191POPC   C2622038   4.877   3.384   7.254  0.0545  0.2283  0.1248
  191POPC   H6R22039   4.793   3.457   7.242 -1.9178 -1.7185  1.7270
  191POPC   H6S22040   4.957   3.458   7.277 -0.8796  1.7848 -1.5279
  191POPC   C2722041   4.850   3.310   7.389 -0.5072 -0.8555  0.7039
  191POPC   H7R22042   4.933   3.237   7.398  0.3025 -0.5631 -3.1729
  191POPC   H7S22043   4.763   3.245   7.369 -0.7381 -0.1097 -0.7782
  191POPC   C2822044   4.836   3.406   7.512 -0.2330  0.3752  0.6577
  191POPC   H8R22045   4.741   3.463   7.517 -0.5752 -0.2279  1.0479
  191POPC   H8S22046   4.918   3.479   7.492 -1.1325  1.5892  1.3513
  191POPC   C2922047   4.872   3.326   7.633 -0.2357  0.2041 -0.0540
  191POPC   H9122048   4.949   3.250   7.611 -1.1673 -1.3730  1.9675
  191POPC  C21022049   4.813   3.335   7.747 -0.4468 -0.3609 -0.1299
  191POPC  H10122050   4.846   3.267   7.826  0.3299  1.4110  1.0974
  191POPC  C21122051   4.698   3.439   7.772 -0.1812  0.3098 -0.7127
  191POPC  H11R22052   4.603   3.402   7.728 -0.2841  1.0909 -1.1620
  191POPC  H11S22053   4.726   3.537   7.728  1.9260  0.6038  1.1775
  191POPC  C21222054   4.677   3.452   7.925 -1.0594 -0.2683  0.6664
  191POPC  H12R22055   4.627   3.550   7.942  2.9908  1.9883  0.3544
  191POPC  H12S22056   4.778   3.452   7.972 -1.8192  1.7040  2.4133
  191POPC  C21322057   4.601   3.336   7.998 -0.0070  0.2863  0.2992
  191POPC  H13R22058   4.666   3.247   7.983 -0.0920  0.3783 -0.6404
  191POPC  H13S22059   4.514   3.313   7.933  0.9106 -1.1148 -0.4656
  191POPC  C21422060   4.576   3.360   8.146 -0.7308 -0.4076 -0.3827
  191POPC  H14R22061   4.672   3.371   8.201  0.0475 -1.4124 -1.5018
  191POPC  H14S22062   4.544   3.258   8.177 -2.3586  0.4122  0.7001
  191POPC  C21522063   4.478   3.476   8.165  0.2300 -0.8481 -0.4636
  191POPC  H15R22064   4.379   3.427   8.174  0.1613 -0.3676  1.8021
  191POPC  H15S22065   4.467   3.533   8.070  1.1635 -2.9344 -1.8398
  191POPC  C21622066   4.515   3.571   8.277  0.0102  0.1543 -1.1304
  191POPC  H16R22067   4.429   3.640   8.287 -0.5510 -0.5743 -0.9365
  191POPC  H16S22068   4.612   3.623   8.257  0.2333  0.6167  1.0544
  191POPC  C21722069   4.524   3.495   8.410  0.5214  0.5095  0.0734
  191POPC  H17R22070   4.601   3.416   8.392  0.0703  0.6661 -2.8451
  191POPC  H17S22071   4.429   3.443   8.435  0.4018 -0.0216 -1.4072
  191POPC  C21822072   4.566   3.584   8.522 -0.5649 -0.5101 -0.3563
  191POPC  H18R22073   4.607   3.535   8.613  0.2073 -1.0854 -1.0037
  191POPC  H18S22074   4.486   3.657   8.547 -0.3249 -0.1149 -0.7334
  191POPC  H18T22075   4.646   3.653   8.487 -1.7679  0.8527 -0.4533
  191POPC   C3322076   4.948   2.893   6.952 -0.0567 -0.1998 -0.0691
  191POPC   H3X22077   4.838   2.889   6.939 -0.0581  0.6506 -0.3603
  191POPC   H3Y22078   4.959   2.998   6.984  1.1710 -0.9782  2.1704
  191POPC   C3422079   5.007   2.790   7.055 -0.1103  0.5134  0.3459
  191POPC   H4X22080   5.115   2.803   7.079  0.1737  1.5817 -1.3462
  191POPC   H4Y22081   5.003   2.690   7.007 -1.2417  1.6395 -2.0057
  191POPC   C3522082   4.927   2.776   7.184  0.3950  0.4337 -0.1742
  191POPC   H5X22083   4.967   2.685   7.232  0.2010  1.5353  2.1144
  191POPC   H5Y22084   4.821   2.761   7.155  0.3715 -0.5904  0.4194
  191POPC   C3622085   4.926   2.895   7.282 -0.2004 -0.1206  0.5663
  191POPC   H6X22086   4.843   2.966   7.262 -1.3191 -1.2949  0.9449
  191POPC   H6Y22087   5.025   2.946   7.276  0.1275 -0.7410  0.6791
  191POPC   C3722088   4.910   2.840   7.424  0.1469  0.3992 -0.4361
  191POPC   H7X22089   4.990   2.763   7.436  1.4709  1.7403 -0.5125
  191POPC   H7Y22090   4.807   2.801   7.439 -0.4956  2.3834  0.4517
  191POPC   C3822091   4.935   2.953   7.530 -0.2769  0.3386  0.0856
  191POPC   H8X22092   4.848   3.023   7.531  1.4865  2.6032 -0.5481
  191POPC   H8Y22093   5.031   3.003   7.505  0.3350 -1.5192 -1.4585
  191POPC   C3922094   4.949   2.900   7.668  0.2050  0.5486 -0.3785
  191POPC   H9X22095   5.041   2.839   7.684  0.1270  0.7484  0.9167
  191POPC   H9Y22096   4.858   2.841   7.691  0.3939 -0.7929 -2.8565
  191POPC  C31022097   4.958   3.006   7.779 -0.2181  0.3089  0.7974
  191POPC  H10X22098   4.887   3.092   7.770 -1.6875 -0.8787  0.7942
  191POPC  H10Y22099   5.063   3.042   7.786  0.6538 -1.5685 -1.7934
  191POPC  C31122100   4.924   2.944   7.914 -0.4553 -0.0985  0.5027
  191POPC  H11X22101   5.000   2.865   7.932  0.3495  0.1157 -1.7986
  191POPC  H11Y22102   4.820   2.907   7.906 -0.4299  0.4634 -3.1714
  191POPC  C31222103   4.918   3.063   8.020 -0.0307 -0.4676  0.0241
  191POPC  H12X22104   4.829   3.124   7.992 -0.2192 -0.2228  1.1478
  191POPC  H12Y22105   5.008   3.129   8.018 -0.4486  0.1033 -0.2175
  191POPC  C31322106   4.887   3.015   8.168 -0.2434 -0.2103  0.1768
  191POPC  H13X22107   4.975   2.968   8.216  0.4083 -0.7730 -1.5419
  191POPC  H13Y22108   4.810   2.935   8.176 -1.2211  0.7672  0.7630
  191POPC  C31422109   4.846   3.126   8.267  0.1509 -0.0176 -0.4151
  191POPC  H14X22110   4.764   3.174   8.209 -0.7391 -0.2427  0.6172
  191POPC  H14Y22111   4.930   3.198   8.277  0.8200 -1.0130  1.2539
  191POPC  C31522112   4.807   3.068   8.402  0.5874 -0.6567 -0.2748
  191POPC  H15X22113   4.710   3.015   8.394  0.9738 -2.1494  3.5540
  191POPC  H15Y22114   4.791   3.157   8.467  0.5094 -0.8761  0.0121
  191POPC  C31622115   4.913   2.982   8.472  0.1151 -0.7295 -0.7195
  191POPC  H16X22116   5.008   3.039   8.463 -0.5224  0.2643 -1.1678
  191POPC  H16Y22117   4.921   2.895   8.404 -0.3359  0.3644 -2.1877
  191POPC  H16Z22118   4.893   2.944   8.575  2.4505 -1.1065 -0.3631
  192POPC     N22119   3.333   5.308   6.240  0.5401 -0.0574 -0.8335
  192POPC   C1222120   3.405   5.346   6.372  0.6361  0.5334  0.5312
  192POPC  H12A22121   3.373   5.271   6.443 -0.0758 -0.4345 -0.7989
  192POPC  H12B22122   3.370   5.442   6.406  0.4347 -0.2805  2.6889
  192POPC   C1322123   3.368   5.169   6.199 -0.5335  0.1746  0.1377
  192POPC  H13A22124   3.472   5.155   6.177 -0.5910 -2.0889  1.2131
  192POPC  H13B22125   3.338   5.110   6.285  0.7442  0.9613  1.1401
  192POPC  H13C22126   3.315   5.141   6.110 -0.2399  1.3593 -0.4238
  192POPC   C1422127   3.177   5.312   6.257 -0.0328 -0.1025 -0.2704
  192POPC  H14A22128   3.125   5.286   6.165  0.4287 -2.4531  0.0892
  192POPC  H14B22129   3.142   5.241   6.330  0.3280 -0.9770 -0.9384
  192POPC  H14C22130   3.145   5.412   6.282  1.7688  0.3766  0.1236
  192POPC   C1522131   3.375   5.402   6.140 -0.2917  0.0419  0.3892
  192POPC  H15A22132   3.480   5.423   6.153 -0.0031 -2.3008  2.1495
  192POPC  H15B22133   3.329   5.499   6.132  1.9481  1.2432  1.7234
  192POPC  H15C22134   3.360   5.355   6.043 -2.2264  1.9575 -0.2936
  192POPC   C1122135   3.561   5.347   6.369  0.4214 -0.4349 -0.5443
  192POPC  H11A22136   3.588   5.254   6.315  0.6869 -0.1211 -0.9641
  192POPC  H11B22137   3.602   5.354   6.472  1.3547  0.2026 -0.9416
  192POPC     P22138   3.738   5.528   6.295 -0.2812 -0.0944  0.3981
  192POPC   O1322139   3.720   5.657   6.233  0.1582  0.4167 -0.5554
  192POPC   O1422140   3.820   5.429   6.223  0.2878  0.3969 -0.1835
  192POPC   O1222141   3.595   5.472   6.300 -0.2239 -0.0492  0.0645
  192POPC   O1122142   3.783   5.544   6.447 -0.3425 -0.0107  0.3856
  192POPC    C122143   3.690   5.613   6.534 -0.2286 -0.2863 -0.2139
  192POPC    HA22144   3.689   5.569   6.635  2.4924 -0.5427 -0.2637
  192POPC    HB22145   3.586   5.623   6.497 -0.5381 -3.2699 -0.2435
  192POPC    C222146   3.737   5.759   6.562  0.5471  0.2786  0.1052
  192POPC    HS22147   3.782   5.784   6.463 -0.1801  0.1181 -0.2737
  192POPC   O2122148   3.839   5.748   6.660 -0.6897 -0.2791 -0.2840
  192POPC   C2122149   3.940   5.850   6.658  0.1747  0.1771 -0.4865
  192POPC   O2222150   3.929   5.955   6.599 -0.6623 -0.2405  0.1956
  192POPC   C2222151   4.051   5.814   6.744  0.2230 -0.3576  0.7681
  192POPC   H2R22152   4.141   5.874   6.718 -2.7136  1.9093 -4.9099
  192POPC   H2S22153   4.082   5.707   6.738  0.1436 -0.2606 -2.2667
  192POPC    C322154   3.627   5.863   6.604  0.1398  0.1100 -0.1450
  192POPC    HX22155   3.545   5.870   6.530 -0.3610  1.0525  0.4817
  192POPC    HY22156   3.675   5.962   6.595 -0.3002  0.2405 -1.0528
  192POPC   O3122157   3.564   5.836   6.725 -0.3063  0.5148 -0.6096
  192POPC   C3122158   3.613   5.901   6.832 -0.1700  0.2361  1.0375
  192POPC   O3222159   3.700   5.990   6.828  0.1483 -0.3369 -0.3782
  192POPC   C3222160   3.550   5.848   6.965  0.0959  0.5625  0.1524
  192POPC   H2X22161   3.507   5.751   6.934  0.8986  0.9093 -2.1405
  192POPC   H2Y22162   3.472   5.921   6.997  1.5561  0.8035  3.2935
  192POPC   C2322163   3.999   5.828   6.887 -0.6043  0.2989  0.2745
  192POPC   H3R22164   3.909   5.763   6.891 -0.2363 -0.4269 -2.4845
  192POPC   H3S22165   3.980   5.934   6.914  1.2509  0.9966 -1.1016
  192POPC   C2422166   4.097   5.762   6.984 -0.4617 -0.4933  0.7293
  192POPC   H4R22167   4.183   5.833   6.985 -0.4406 -0.5359  1.6374
  192POPC   H4S22168   4.139   5.667   6.945  3.7233  1.0046  1.2496
  192POPC   C2522169   4.043   5.734   7.123  0.0828 -0.3876  0.0535
  192POPC   H5R22170   3.973   5.648   7.116 -1.4187  0.7014  1.1762
  192POPC   H5S22171   3.968   5.812   7.151  0.5960 -0.6076  2.1491
  192POPC   C2622172   4.159   5.725   7.230 -0.3513  0.1077 -0.2105
  192POPC   H6R22173   4.227   5.813   7.228  0.6342 -0.6671 -1.5628
  192POPC   H6S22174   4.223   5.637   7.209  1.1665  0.9535  0.7704
  192POPC   C2722175   4.097   5.715   7.369 -0.4023 -0.7130  0.0440
  192POPC   H7R22176   4.037   5.621   7.367 -1.6216  0.0232  1.4941
  192POPC   H7S22177   4.022   5.796   7.380  1.1568  0.9161 -1.1572
  192POPC   C2822178   4.203   5.706   7.490  0.0592 -0.1666  0.0954
  192POPC   H8R22179   4.253   5.803   7.506  2.9286 -1.7935  1.3622
  192POPC   H8S22180   4.283   5.634   7.463 -1.4895 -2.0992  0.5223
  192POPC   C2922181   4.144   5.659   7.619 -0.2467  0.1287 -0.5600
  192POPC   H9122182   4.051   5.712   7.646 -0.6576 -1.2040  0.6840
  192POPC  C21022183   4.188   5.556   7.696  0.5855  0.5371 -0.0694
  192POPC  H10122184   4.139   5.543   7.794 -0.3336 -1.0261 -0.7302
  192POPC  C21122185   4.316   5.475   7.663 -0.0876 -0.5072 -0.0009
  192POPC  H11R22186   4.377   5.526   7.585  1.5002  1.7538  2.6047
  192POPC  H11S22187   4.286   5.379   7.617 -2.0246 -0.5627  1.3237
  192POPC  C21222188   4.396   5.444   7.792 -0.6216  1.1580  0.6911
  192POPC  H12R22189   4.423   5.541   7.838  0.6168  0.3548  1.6951
  192POPC  H12S22190   4.497   5.411   7.757 -0.7415  3.2973 -1.7822
  192POPC  C21322191   4.328   5.355   7.900  0.6169  0.1376 -0.0660
  192POPC  H13R22192   4.307   5.250   7.869  0.9315  0.3203 -0.9091
  192POPC  H13S22193   4.229   5.396   7.929  1.6307  3.4751 -1.0862
  192POPC  C21422194   4.406   5.347   8.031 -0.1816  0.1857 -0.6468
  192POPC  H14R22195   4.350   5.304   8.117 -1.7484 -1.5486 -2.4644
  192POPC  H14S22196   4.421   5.453   8.059  2.0553  0.4351 -2.5986
  192POPC  C21522197   4.542   5.287   8.026  0.0587 -0.0567 -0.4052
  192POPC  H15R22198   4.606   5.314   7.939 -0.2215  0.9341 -0.3087
  192POPC  H15S22199   4.531   5.176   8.027  2.1114 -0.3135  2.5424
  192POPC  C21622200   4.633   5.331   8.148 -0.2407  0.7293  0.0888
  192POPC  H16R22201   4.579   5.291   8.236  0.1751  0.2739  0.1360
  192POPC  H16S22202   4.636   5.441   8.165 -0.1080  1.1213 -2.2235
  192POPC  C21722203   4.769   5.271   8.147 -0.4688  0.2040 -0.0140
  192POPC  H17R22204   4.768   5.168   8.104 -0.3042 -0.4814  1.5848
  192POPC  H17S22205   4.799   5.266   8.254 -1.2843  0.7248  0.2431
  192POPC  C21822206   4.874   5.357   8.075 -0.3517  0.4448  0.5358
  192POPC  H18R22207   4.843   5.368   7.969  1.1906  1.5401  0.1870
  192POPC  H18S22208   4.974   5.310   8.084  0.0444  1.5253  1.9294
  192POPC  H18T22209   4.872   5.454   8.130 -1.0982  1.7497 -1.7206
  192POPC   C3322210   3.651   5.820   7.071 -0.3755  0.7433 -0.2139
  192POPC   H3X22211   3.726   5.903   7.067  2.9143 -1.9074  2.5838
  192POPC   H3Y22212   3.711   5.732   7.040 -3.3483 -1.4741  0.1515
  192POPC   C3422213   3.589   5.802   7.210 -0.2766 -0.7558 -0.6931
  192POPC   H4X22214   3.496   5.743   7.197 -1.0500  0.7984 -2.4154
  192POPC   H4Y22215   3.547   5.899   7.242  0.7820 -0.9250  1.2718
  192POPC   C3522216   3.685   5.740   7.314  0.2148  0.0831  0.3804
  192POPC   H5X22217   3.787   5.769   7.280  0.0227 -1.5497 -1.6455
  192POPC   H5Y22218   3.678   5.630   7.302 -2.0972  0.4299 -1.7612
  192POPC   C3622219   3.651   5.774   7.460 -0.5628 -0.2209  0.2736
  192POPC   H6X22220   3.548   5.739   7.482 -0.1704 -0.4725  1.7853
  192POPC   H6Y22221   3.667   5.882   7.478 -0.0197 -0.5844  2.1915
  192POPC   C3722222   3.740   5.705   7.569  0.4577 -0.6236  0.1970
  192POPC   H7X22223   3.842   5.749   7.567 -1.5611  4.4184  1.4654
  192POPC   H7Y22224   3.739   5.600   7.534 -1.5683 -0.2384 -0.9269
  192POPC   C3822225   3.693   5.725   7.720 -0.6140  0.1032  0.4399
  192POPC   H8X22226   3.587   5.694   7.735 -0.6612  1.0599  2.2989
  192POPC   H8Y22227   3.695   5.835   7.735 -2.3616  0.3781 -1.1513
  192POPC   C3922228   3.785   5.667   7.823 -0.3315  0.7825 -0.4843
  192POPC   H9X22229   3.880   5.722   7.810 -0.9516  2.3008  1.2020
  192POPC   H9Y22230   3.811   5.560   7.812 -0.6920  0.7779 -1.3571
  192POPC  C31022231   3.736   5.692   7.963  0.3407  0.4757 -0.4560
  192POPC  H10X22232   3.644   5.633   7.984  1.0553 -0.9474 -1.2306
  192POPC  H10Y22233   3.695   5.794   7.978  0.0642  0.3445 -0.3203
  192POPC  C31122234   3.839   5.642   8.065  0.0392  0.4844  0.6186
  192POPC  H11X22235   3.859   5.534   8.044 -1.2031  0.4399 -0.4078
  192POPC  H11Y22236   3.800   5.655   8.168  1.0189  3.1448  0.6855
  192POPC  C31222237   3.979   5.702   8.060  0.0978 -0.6120 -0.2970
  192POPC  H12X22238   3.973   5.812   8.066  0.5365 -0.5807 -0.4236
  192POPC  H12Y22239   4.027   5.675   7.963  1.6905  1.2420 -0.0634
  192POPC  C31322240   4.068   5.651   8.171  0.3521  0.2347 -0.3270
  192POPC  H13X22241   4.076   5.541   8.157 -0.4522  0.1529 -0.1809
  192POPC  H13Y22242   4.013   5.678   8.264  2.3242  1.2670  0.5915
  192POPC  C31422243   4.193   5.725   8.178 -0.4006 -0.0151 -0.4018
  192POPC  H14X22244   4.239   5.693   8.274  0.1732  1.6756 -0.1016
  192POPC  H14Y22245   4.180   5.834   8.187 -2.0615 -0.0906 -1.8066
  192POPC  C31522246   4.286   5.696   8.061 -0.3778 -0.3929 -0.0303
  192POPC  H15X22247   4.253   5.595   8.027  4.2815 -0.9613 -3.2495
  192POPC  H15Y22248   4.387   5.686   8.106 -0.3815 -2.4067 -0.3937
  192POPC  C31622249   4.298   5.798   7.946 -0.5124 -0.5463 -0.1497
  192POPC  H16X22250   4.363   5.878   7.989 -1.6734  0.3716 -0.0833
  192POPC  H16Y22251   4.196   5.839   7.934 -1.4745 -2.4820  1.2692
  192POPC  H16Z22252   4.332   5.747   7.853 -0.5688 -0.6975 -0.0879
  193SOD    SOD22253   0.305   0.428   3.493  0.2690  0.0076 -0.2794
  194SOD    SOD22254   1.371   2.729   1.511 -0.5693  0.1491  0.2058
  195SOD    SOD22255   2.694   2.526  14.893 -0.0311 -0.1708  0.2240
  196SOD    SOD22256   4.734   3.185  12.839  0.1657  0.0235  0.6689
  197SOD    SOD22257   2.380   2.684  12.718  0.1671 -0.2046  0.0516
  198SOD    SOD22258   0.207   3.006  11.184 -0.4151 -0.0407 -0.5384
  199SOD    SOD22259   0.541   1.598  16.565  0.0151 -0.7796  0.5300
  200SOD    SOD22260   1.008   3.262  11.312 -0.7269  0.5654 -0.2527
  201SOD    SOD22261   3.820   0.646   0.902  0.2777  0.0181 -0.3791
  202SOD    SOD22262   5.600   5.476   1.229  0.1652  0.5294  0.3303
  203SOD    SOD22263   4.527   3.851  11.819 -0.0803  0.0894  0.0190
  204SOD    SOD22264   5.081   5.416  13.913  0.1825 -0.0508  0.4177
  205SOD    SOD22265   3.396   3.547  12.854  0.1422  0.3886  0.2804
  206SOD    SOD22266   4.718   1.270  12.472  0.4116 -0.0289 -0.0561
  207SOD    SOD22267   2.279   2.002  15.503 -0.0883  0.3658  0.4003
  208SOD    SOD22268   2.567   6.159  15.813 -0.1624 -1.0226  0.1746
  209SOD    SOD22269   4.326   0.728  14.775 -0.4865  0.3529 -0.2313
  210SOD    SOD22270   5.749   1.807   0.503 -0.2178 -0.1758 -0.3052
  211SOD    SOD22271   1.906   6.274   5.941 -0.0602 -0.3305 -0.5259
  212SOD    SOD22272   1.923   2.406   5.826  0.5321 -0.8304  0.1233
  213SOD    SOD22273   2.280   5.123   3.256 -0.2357  0.1155 -0.1381
  214SOD    SOD22274   4.152   1.263   6.428 -0.1269  0.0559 -0.2916
  215SOD    SOD22275   5.161   4.717   0.072  0.5020 -0.1347  0.4769
  216SOD    SOD22276   1.540   0.951  14.312  0.2132 -0.7969 -0.0498
  217SOD    SOD22277   3.690   6.383   2.641  0.4497 -0.1781 -0.2180
  218SOD    SOD22278   1.686   0.772  10.933  0.2816 -0.2708 -0.4971
  219SOD    SOD22279   3.096   2.845   5.478  0.0770 -0.3632 -0.2758
  220SOD    SOD22280   6.296   4.305  16.488  0.0326  0.4137 -0.2630
  221SOD    SOD22281   1.396   3.372   3.804 -0.4233  0.0868 -0.0883
  222SOD    SOD22282   5.586   4.379  13.292 -0.3610  0.0715 -0.2672
  223SOD    SOD22283   1.627   6.615   2.226  0.0445 -0.0273  0.3376
  224SOD    SOD22284   5.700   6.351  11.440  0.3318  0.6310  0.1063
  225SOD    SOD22285   3.482   0.188  14.949  0.2728 -0.1894 -0.3226
  226SOD    SOD22286   5.957   2.554   3.497  0.2350 -0.1828 -0.0544
  227SOD    SOD22287   3.750   1.095   6.062 -0.2981  0.4124 -0.5248
  228SOD    SOD22288   6.359   0.025   2.505  0.4182  0.3228  0.0900
  229SOD    SOD22289   4.536   6.247  11.748 -0.3253 -0.1147  0.2456
  230SOD    SOD22290   2.921   3.242   3.325  0.1156  0.2841 -0.2482
  231SOD    SOD22291   2.737   3.999  16.350 -0.1358 -0.2361 -0.1272
  232SOD    SOD22292   4.502   2.335   1.241  0.1869 -0.0704  0.1467
  233SOD    SOD22293   3.691   2.347   0.919  0.3081 -0.3116  0.2226
  234SOD    SOD22294   1.189   5.086   6.063  0.1996  0.4497  0.7969
  235SOD    SOD22295   5.245   5.165  11.200 -0.3946 -0.0580  0.4051
  236SOD    SOD22296   1.846   2.545   1.113 -0.1131  0.0599 -0.0267
  237SOD    SOD22297   4.631   1.990  16.160  0.2820 -0.2933  0.4936
  238SOD    SOD22298   2.543   6.421  16.831 -0.5162  0.4527 -0.1155
  239SOD    SOD22299   2.385   4.342  13.645  0.4503  0.1981  0.0384
  240SOD    SOD22300   3.897   0.402  12.591  0.1470 -0.0314  0.4675
  241SOD    SOD22301   4.135   5.128  14.447 -0.5597  0.5374 -0.3507
  242SOD    SOD22302   5.458   1.192  15.517  0.1117  0.3395  0.1727
  243SOD    SOD22303   3.485   5.914  14.055 -0.4411 -0.1575  0.2894
  244SOD    SOD22304   5.241   2.992   5.681  0.2332 -0.3021  0.0144
  245SOD    SOD22305   1.784   4.732  11.467  0.0707 -0.3507  0.0387
  246SOD    SOD22306   3.850   5.884   5.924  0.1368  0.3344  0.0442
  247SOD    SOD22307   6.422   5.921   6.429  0.7144 -0.1660  0.1220
  248SOD    SOD22308   4.251   3.056   4.815  0.2078 -0.2038 -0.3634
  249SOD    SOD22309   5.559   2.612   4.994  0.2852  0.4297 -0.2758
  250SOD    SOD22310   1.140   2.382   3.560  0.5024  0.2308 -0.0525
  251SOD    SOD22311   5.215   2.907  16.521 -0.8353  0.0169  0.7030
  252SOD    SOD22312   6.274   0.485  16.666 -0.5547 -0.0236 -0.0742
  253SOD    SOD22313   6.607   4.203   4.024 -0.1903 -0.1483 -0.0328
  254SOD    SOD22314   6.595   1.926  11.558 -0.3176 -0.4359  0.6379
  255SOD    SOD22315   0.669   4.105  14.024 -0.2984 -0.0667 -0.1607
  256SOD    SOD22316   5.984   0.446   2.306 -0.3264  0.0023  0.1412
  257SOD    SOD22317   1.782   1.488   6.293  0.0706  0.5622 -0.2124
  258SOD    SOD22318   5.394   3.015  12.152  0.3627  0.0430  0.0183
  259SOD    SOD22319   3.755   1.542  14.215  0.3440  0.1751  0.0049
  260SOD    SOD22320   2.331   3.342  11.282  0.4659  0.5452  0.2397
  261SOD    SOD22321   3.273   6.302  11.068  0.2112  0.1139 -0.2268
  262SOD    SOD22322   5.266   4.026   5.373 -0.5429 -0.0913  0.0416
  263SOD    SOD22323   0.112   3.379  10.682  0.3164 -0.0465  0.0001
  264SOD    SOD22324   3.596   5.362   2.385  0.2614 -0.2554  0.1034
  265SOD    SOD22325   2.765   1.016   5.120 -0.3395  0.4053  0.3502
  266SOD    SOD22326   5.862   0.742  11.449  0.0995 -0.5874  0.2520
  267SOD    SOD22327   0.716   5.389   1.436 -0.1100  0.2933 -0.0524
  268SOD    SOD22328   1.149   0.808  15.663  0.1515  0.0877  0.3776
  269SOD    SOD22329   6.616   2.786   5.704 -0.0964  0.0804  0.3083
  270CLA    CLA22330   3.633   2.627  13.283  0.4784 -0.3751 -0.2184
  271CLA    CLA22331   6.531   1.150  16.680 -0.0991  0.3761 -0.0106
  272CLA    CLA22332   5.267   3.549  12.818  0.0270  0.5539 -0.3332
  273CLA    CLA22333   1.239   0.756  15.905  0.1320 -0.1382 -0.1111
  274CLA    CLA22334   4.984   5.145  15.447 -0.1790  0.2149 -0.2810
  275CLA    CLA22335   2.352   3.796   3.699  0.1162 -0.0942  0.6148
  276CLA    CLA22336   1.279   3.291  11.886 -0.1846  0.2116 -0.0934
  277CLA    CLA22337   1.326   6.095  15.907  0.2504 -0.1030  0.2604
  278CLA    CLA22338   2.761   2.348   5.624 -0.1792  0.2193  0.3670
  279CLA    CLA22339   3.659   4.883  14.461 -0.0224  0.2970  0.1838
  280CLA    CLA22340   0.103   2.391  15.611  0.1688 -0.4324  0.3646
  281CLA    CLA22341   1.943   3.457   0.096 -0.3751 -0.2613  0.4584
  282CLA    CLA22342   0.730   4.439   2.228 -0.5300  0.2498  0.2129
  283CLA    CLA22343   0.685   0.488   3.863  0.4208 -0.4225 -0.3000
  284CLA    CLA22344   1.694   6.720  13.154  0.1093  0.1570  0.1163
  285CLA    CLA22345   5.773   3.962   1.290  0.0475  0.2012  0.0816
  286CLA    CLA22346   0.825   5.822  14.004 -0.1452  0.0395  0.1901
  287CLA    CLA22347   6.117   0.694   1.858 -0.2281  0.1450 -0.1697
  288CLA    CLA22348   0.331   4.804  12.575  0.2686  0.0587  0.3902
  289CLA    CLA22349   4.351   3.471   4.644 -0.2458  0.3865 -0.1881
  290CLA    CLA22350   5.057   1.579  12.745 -0.1043  0.3161  0.0028
  291CLA    CLA22351   1.571   5.096  15.738 -0.2829  0.3824  0.0072
  292CLA    CLA22352   5.324   0.696  12.071  0.5071 -0.3020 -0.2909
  293CLA    CLA22353   2.370   1.576   4.919  0.4754 -0.0760  0.1147
  294CLA    CLA22354   0.369   3.165   4.478  0.5301  0.1772 -0.0570
  295CLA    CLA22355   0.232   2.847   0.549  0.0241  0.2642  0.4002
  296CLA    CLA22356   4.522   2.765   1.499  0.3422  0.1478  0.6516
  297CLA    CLA22357   5.825   0.991   5.412 -0.6579 -0.2321  0.3525
  298CLA    CLA22358   6.264   1.603   0.300  0.1532 -0.5360  0.0491
  299CLA    CLA22359   4.713   2.134   1.800 -0.5862 -0.0324  0.5268
  300CLA    CLA22360   2.286   0.931  16.637  0.0740 -0.2352  0.2222
  301CLA    CLA22361   5.229   3.976   0.066  0.5630 -0.0401 -0.3022
  302CLA    CLA22362   3.707   5.700   3.035  0.3862 -0.2209 -0.2299
  303CLA    CLA22363   2.733   1.330  13.896 -0.1335 -0.0553 -0.2324
  304CLA    CLA22364   2.395   2.254  13.451 -0.0888 -0.1776 -0.0327
  305CLA    CLA22365   1.434   6.737   4.444 -0.0203 -0.0259 -0.5109
  306CLA    CLA22366   2.003   1.991  12.177 -0.0074 -0.1150  0.2701
  307CLA    CLA22367   2.280   3.403  15.033  0.1059  0.5204  0.1045
  308CLA    CLA22368   3.487   1.332  15.729  0.3471  0.7444 -0.3050
  309CLA    CLA22369   1.444   5.463   3.434  0.4075 -0.2882  0.2763
  310CLA    CLA22370   1.226   4.160  13.801  0.3626  0.1418 -0.2176
  311CLA    CLA22371   5.408   4.113  13.750  0.1579  0.1277  0.2690
  312CLA    CLA22372   5.291   1.135  15.724  0.1098  0.2486 -0.2631
  313CLA    CLA22373   2.857   4.207   0.008  0.0679 -0.0338 -0.6274
  314CLA    CLA22374   5.300   0.096  11.454  0.0580  0.4584 -0.2173
  315CLA    CLA22375   0.668   4.305   3.676  0.0846 -0.1738 -0.1308
  316CLA    CLA22376   3.174   3.308   0.161  0.0548  0.0994  0.0416
  317CLA    CLA22377   2.633   5.466  12.990  0.0188 -0.0418 -0.0393
  318CLA    CLA22378   3.668   6.584  14.367  0.1628 -0.3756  0.1049
  319CLA    CLA22379   3.801   1.644  14.999 -0.0983 -0.0404 -0.0015
  320CLA    CLA22380   5.205   3.709  14.454  0.5595 -0.5463 -0.0909
  321CLA    CLA22381   4.043   2.630   2.040 -0.5635  0.3482 -0.0417
  322CLA    CLA22382   5.076   5.347   0.404  0.0490  0.2001  0.0232
  323TIP3   OH222383   6.064   1.593   1.249 -0.2376  0.2095  0.2932
  323TIP3    H122384   6.018   1.658   1.302  0.7888 -0.2883  1.8672
  323TIP3    H222385   6.026   1.600   1.162 -0.8744  2.1662  0.7120
  324TIP3   OH222386   1.772   4.373  16.272  0.4281  0.1249 -0.3673
  324TIP3    H122387   1.814   4.313  16.333  0.5551  0.4594 -0.1223
  324TIP3    H222388   1.791   4.337  16.185 -1.2209 -1.3115 -0.1605
  325TIP3   OH222389   6.286   4.253  15.601  0.0764  0.0776  0.3178
  325TIP3    H122390   6.199   4.268  15.563 -0.4825 -0.3379  1.4100
  325TIP3    H222391   6.285   4.304  15.682  0.3003 -1.1538  1.0944
  326TIP3   OH222392   3.507   0.692   2.871  0.5457  0.1029 -0.4420
  326TIP3    H122393   3.450   0.622   2.838  0.7134 -0.1380 -0.2236
  326TIP3    H222394   3.470   0.714   2.957  2.2608 -1.7860  0.8022
  327TIP3   OH222395   6.041   1.750  13.204  0.2382  0.5079  0.0899
  327TIP3    H122396   5.960   1.751  13.153  0.1882 -0.6701  0.1180
  327TIP3    H222397   6.103   1.803  13.154 -0.2280  0.5150 -0.4781
  328TIP3   OH222398   1.266   1.122   1.318  0.1330  0.0120 -0.0074
  328TIP3    H122399   1.266   1.042   1.266 -3.1244 -0.8097  1.1770
  328TIP3    H222400   1.289   1.094   1.406 -0.7055  0.4038  0.3429
  329TIP3   OH222401   0.249   0.475   5.329  0.4716 -0.3677  0.6088
  329TIP3    H122402   0.205   0.512   5.253  0.7808 -0.1346  0.5396
  329TIP3    H222403   0.231   0.381   5.323  0.2316 -0.3114  0.4209
  330TIP3   OH222404   0.715   5.946   2.858  0.1695 -0.1559 -0.0225
  330TIP3    H122405   0.620   5.949   2.845  0.2270  0.1426 -0.4052
  330TIP3    H222406   0.733   6.022   2.914 -0.0125 -1.1433  1.3994
  331TIP3   OH222407   6.276   1.451   1.584  0.2135  0.2219 -0.0727
  331TIP3    H122408   6.296   1.543   1.568  0.4609 -0.5786 -4.8493
  331TIP3    H222409   6.357   1.415   1.620  0.6569  1.4358  0.1836
  332TIP3   OH222410   3.466   2.074   1.440  0.4891 -0.2205 -0.6125
  332TIP3    H122411   3.447   2.163   1.469  1.1831  0.2408 -1.5357
  332TIP3    H222412   3.461   2.021   1.519  0.2324  0.6706 -0.0269
  333TIP3   OH222413   0.149   2.598   3.688 -0.1584  0.2641 -0.0026
  333TIP3    H122414   0.069   2.592   3.637 -0.6402 -0.2805  0.8033
  333TIP3    H222415   0.189   2.512   3.681 -0.0933  0.2685  0.3134
  334TIP3   OH222416   3.769   4.748  13.172 -0.0732 -0.0301  0.0116
  334TIP3    H122417   3.681   4.770  13.201  0.2495  0.9067  0.2880
  334TIP3    H222418   3.785   4.804  13.097  0.9189  1.0280  0.9954
  335TIP3   OH222419   4.311   4.274   1.199 -0.1056 -0.1515 -0.5900
  335TIP3    H122420   4.273   4.360   1.217 -0.9526 -0.4016 -1.1594
  335TIP3    H222421   4.287   4.221   1.276  2.6163  0.7996  0.9880
  336TIP3   OH222422   2.060   2.532  11.371 -0.0698  0.5250 -0.2350
  336TIP3    H122423   2.120   2.461  11.347  0.9605  1.0453  0.7328
  336TIP3    H222424   2.058   2.588  11.293 -0.5911 -0.3565 -0.8644
  337TIP3   OH222425   2.503   3.311  13.763 -0.7496 -0.1477  0.7718
  337TIP3    H122426   2.543   3.385  13.718 -0.1179 -1.0798 -0.2031
  337TIP3    H222427   2.409   3.333  13.766 -0.6775  0.3222 -0.2262
  338TIP3   OH222428   3.013   1.736  14.354 -0.1676  0.3774 -0.1478
  338TIP3    H122429   3.011   1.641  14.365 -0.4551  0.3087 -0.7769
  338TIP3    H222430   2.950   1.753  14.285  1.5552  0.8037 -1.6402
  339TIP3   OH222431   6.414   3.173   0.789  0.2359 -0.3991  0.4473
  339TIP3    H122432   6.358   3.137   0.858  0.6171 -2.6795 -0.3924
  339TIP3    H222433   6.363   3.243   0.750 -2.0179 -2.3735 -0.2576
  340TIP3   OH222434   1.797   0.985  11.850 -0.3203 -0.2853 -0.3983
  340TIP3    H122435   1.755   0.980  11.936 -2.4236  1.0681 -1.2889
  340TIP3    H222436   1.847   1.066  11.853  0.5166 -0.8115 -0.0693
  341TIP3   OH222437   2.981   5.490  16.098  0.1271 -0.1111 -0.4049
  341TIP3    H122438   3.018   5.439  16.169  0.0506  0.2261 -0.1216
  341TIP3    H222439   2.896   5.450  16.080  0.2222 -0.3032 -0.4276
  342TIP3   OH222440   6.384   3.403   2.755  0.2479 -0.4933  0.5657
  342TIP3    H122441   6.294   3.372   2.752  0.1503 -0.2334  0.8480
  342TIP3    H222442   6.381   3.481   2.810  0.7516 -0.8611  1.1244
  343TIP3   OH222443   1.668   3.330  11.538 -0.4901  0.1919 -0.0636
  343TIP3    H122444   1.681   3.408  11.484 -1.5310 -0.4942 -1.3381
  343TIP3    H222445   1.574   3.331  11.559 -0.6765 -1.1368 -0.7730
  344TIP3   OH222446   6.748   1.709  15.517 -0.2907  0.1249  0.0108
  344TIP3    H122447   6.830   1.716  15.467 -1.3987  2.5249 -1.5502
  344TIP3    H222448   6.748   1.785  15.574 -0.9364 -0.4601  0.7948
  345TIP3   OH222449   3.528   5.685  12.266 -0.4552  0.5757  0.0267
  345TIP3    H122450   3.566   5.624  12.329  1.2511 -0.2956 -1.7708
  345TIP3    H222451   3.447   5.644  12.238 -1.0096  0.7683  1.3208
  346TIP3   OH222452   4.397   0.482   4.976 -0.6094  0.1188 -0.0756
  346TIP3    H122453   4.398   0.409   4.913 -0.8156  0.0898 -0.0472
  346TIP3    H222454   4.489   0.506   4.986 -0.3397 -1.3683  1.3247
  347TIP3   OH222455   0.003   3.547   0.779  0.5036 -0.0991 -0.5830
  347TIP3    H122456   0.049   3.565   0.697  1.7166  1.0684  0.3337
  347TIP3    H222457  -0.023   3.633   0.812  0.0299 -0.5595  0.2754
  348TIP3   OH222458   2.111   4.896   2.283  0.3174 -0.4586  0.3185
  348TIP3    H122459   2.034   4.953   2.284  0.5835 -0.0992  0.5819
  348TIP3    H222460   2.080   4.815   2.245  0.5819  0.7390 -2.5490
  349TIP3   OH222461   3.256   3.958  13.619  0.6351 -1.0158 -0.3017
  349TIP3    H122462   3.235   3.877  13.572  1.9427 -0.7928 -1.3182
  349TIP3    H222463   3.250   4.026  13.552  3.0547 -0.7620 -0.3021
  350TIP3   OH222464   5.641   4.361   2.619  0.4035  0.0446 -0.2074
  350TIP3    H122465   5.724   4.380   2.575  0.9117  1.5098  1.3300
  350TIP3    H222466   5.588   4.439   2.604  0.1154  0.0205  0.6652
  351TIP3   OH222467   2.684   0.437   3.482  0.2746  0.4728  0.4481
  351TIP3    H122468   2.700   0.375   3.552 -0.5312 -0.7991 -0.4735
  351TIP3    H222469   2.589   0.453   3.486  0.0551 -0.4125 -1.0032
  352TIP3   OH222470   4.373   4.206  13.163 -0.3202  0.3431 -0.9284
  352TIP3    H122471   4.298   4.175  13.113  0.4077 -0.6358 -1.4376
  352TIP3    H222472   4.448   4.160  13.125  0.5012  1.0831 -0.2386
  353TIP3   OH222473   1.327   1.530   3.411 -0.1784 -0.3254  0.2590
  353TIP3    H122474   1.345   1.508   3.502 -1.3644  1.3403  0.9197
  353TIP3    H222475   1.232   1.538   3.407 -0.3385 -2.4405 -1.6295
  354TIP3   OH222476   5.023   4.379  16.848  0.4113 -0.7386 -0.5809
  354TIP3    H122477   5.106   4.337  16.870  0.4903 -0.8998 -1.1796
  354TIP3    H222478   5.040   4.472  16.855  0.3513 -0.7948  0.3338
  355TIP3   OH222479   1.241   4.572   5.058  0.0222 -0.7390  0.3466
  355TIP3    H122480   1.256   4.496   5.001  1.1409  0.7324 -1.3477
  355TIP3    H222481   1.245   4.536   5.147 -1.2282 -2.9737 -0.4548
  356TIP3   OH222482   4.312   0.514  12.812 -0.1037 -0.1820  0.3334
  356TIP3    H122483   4.270   0.509  12.727  0.7001 -1.5886 -0.0007
  356TIP3    H222484   4.303   0.605  12.838 -0.0322  0.3385 -1.4108
  357TIP3   OH222485   6.673   0.673   3.957  0.5369 -0.2803  0.2089
  357TIP3    H122486   6.639   0.624   4.031 -0.8048  1.8568  1.0673
  357TIP3    H222487   6.740   0.730   3.995  3.3041 -2.5867 -1.0473
  358TIP3   OH222488   5.569   0.264   6.642 -0.1017 -0.1844  0.4836
  358TIP3    H122489   5.514   0.305   6.575  1.7545 -0.0492 -1.0012
  358TIP3    H222490   5.605   0.337   6.691  1.5692 -0.0888 -0.8452
  359TIP3   OH222491   6.638   4.881  14.661  0.1485  0.4045 -0.3633
  359TIP3    H122492   6.679   4.816  14.603  0.7557 -0.1562  0.6723
  359TIP3    H222493   6.544   4.863  14.653  0.1829  0.7241 -1.6205
  360TIP3   OH222494   6.141   1.629   4.783  0.1537 -0.5005  0.0433
  360TIP3    H122495   6.104   1.686   4.716 -1.1349 -1.5406 -0.1469
  360TIP3    H222496   6.079   1.632   4.855  0.4629 -1.0489  0.3418
  361TIP3   OH222497   4.112   4.089   0.144  0.0782  0.1196  0.3163
  361TIP3    H122498   4.021   4.067   0.127  0.1436  0.4006 -0.4605
  361TIP3    H222499   4.114   4.117   0.236 -0.8044  1.0278  0.0727
  362TIP3   OH222500   1.872   4.462  14.864 -0.6025  0.9860 -0.3243
  362TIP3    H122501   1.802   4.527  14.869 -3.7872 -2.3323  0.0897
  362TIP3    H222502   1.835   4.384  14.905  3.9989 -0.3789  1.5094
  363TIP3   OH222503   1.949   3.824  12.085  0.6839 -0.5603 -0.3686
  363TIP3    H122504   1.887   3.790  12.020 -1.0374  0.1744  0.8751
  363TIP3    H222505   1.986   3.902  12.043  0.1988 -0.5530 -0.7951
  364TIP3   OH222506   1.485   5.714  15.832 -0.5258 -0.1535  0.1079
  364TIP3    H122507   1.525   5.646  15.778  0.6705 -0.0231  0.8198
  364TIP3    H222508   1.391   5.704  15.817 -0.3625 -1.9190  0.1622
  365TIP3   OH222509   5.834   0.820  14.961 -0.1932 -0.0448 -0.5212
  365TIP3    H122510   5.838   0.845  15.054 -0.7439 -0.0484 -0.4933
  365TIP3    H222511   5.791   0.734  14.961 -1.2131  0.4528 -0.8569
  366TIP3   OH222512   5.729   6.128  16.683  0.1218  0.6558 -0.7762
  366TIP3    H122513   5.700   6.037  16.690  0.1599  0.6065 -1.2629
  366TIP3    H222514   5.819   6.127  16.716  0.2713  0.4360 -1.1872
  367TIP3   OH222515   0.090   3.248   3.617 -0.0471  0.2124 -0.1032
  367TIP3    H122516   0.115   3.312   3.551  1.5150 -0.6837 -0.4095
  367TIP3    H222517   0.144   3.269   3.693 -1.0232  0.5407  0.5047
  368TIP3   OH222518   5.167   6.131   3.064 -0.7228 -0.0207 -0.0614
  368TIP3    H122519   5.088   6.112   3.013 -0.3610  0.6198 -0.8657
  368TIP3    H222520   5.137   6.137   3.154 -1.3652 -1.2168 -0.1819
  369TIP3   OH222521   3.357   4.864  11.723 -0.2208 -0.1275 -0.0842
  369TIP3    H122522   3.285   4.910  11.679  0.3847 -0.2109 -1.1890
  369TIP3    H222523   3.337   4.771  11.711 -1.0260 -0.1629  1.4515
  370TIP3   OH222524   0.395   4.564   2.918 -0.3693  0.9212  0.8318
  370TIP3    H122525   0.454   4.493   2.894 -1.0536  0.4352  0.5565
  370TIP3    H222526   0.441   4.611   2.988  0.5476  0.8488  0.2791
  371TIP3   OH222527   3.661   1.915  14.873 -0.6623  0.0163 -0.7051
  371TIP3    H122528   3.677   1.998  14.919  0.4723 -0.2701 -0.5779
  371TIP3    H222529   3.721   1.853  14.914 -1.0813 -0.7250 -1.2101
  372TIP3   OH222530   5.829   5.465   0.818  0.3097 -0.9683  0.2692
  372TIP3    H122531   5.809   5.525   0.746 -0.0311  0.0618  1.2084
  372TIP3    H222532   5.922   5.445   0.808  1.6276  3.3432  2.5531
  373TIP3   OH222533   0.477   4.629  15.726 -0.6820 -0.8278 -0.2298
  373TIP3    H122534   0.440   4.615  15.813 -2.6687 -1.0757 -1.0812
  373TIP3    H222535   0.495   4.541  15.694 -0.8580 -0.7844 -0.4465
  374TIP3   OH222536   4.541   3.056  12.794  0.5315  0.4076 -0.1677
  374TIP3    H122537   4.532   3.011  12.710 -0.1773 -1.1283  0.7043
  374TIP3    H222538   4.454   3.094  12.810  0.4951  0.2102  0.1232
  375TIP3   OH222539   1.063   4.618  15.455  0.0988 -0.5586 -0.2266
  375TIP3    H122540   1.136   4.563  15.481  0.8378  1.4113  2.1099
  375TIP3    H222541   1.000   4.610  15.527 -0.4773  0.3835 -0.6132
  376TIP3   OH222542   6.464   4.826  16.349 -0.6092  0.0180  0.1301
  376TIP3    H122543   6.468   4.922  16.342 -2.0546  0.0625 -0.3225
  376TIP3    H222544   6.554   4.797  16.337 -0.2391  1.2979 -0.2795
  377TIP3   OH222545   5.778   6.503   5.435 -0.0550  0.1001 -0.1937
  377TIP3    H122546   5.774   6.599   5.443  1.2289  0.2745 -1.3786
  377TIP3    H222547   5.715   6.483   5.365 -1.0304 -0.0249  0.7126
  378TIP3   OH222548   5.542   0.981   0.126  0.4850  0.5439  0.4974
  378TIP3    H122549   5.622   0.966   0.075  1.4278 -0.0624  2.1311
  378TIP3    H222550   5.567   0.962   0.216 -1.4712  0.5240  1.0509
  379TIP3   OH222551   2.007   3.491   1.358 -0.0813  0.1247 -0.0253
  379TIP3    H122552   2.074   3.534   1.412  1.0911 -0.7432 -0.7576
  379TIP3    H222553   2.002   3.545   1.279 -1.1268  0.8629  0.5229
  380TIP3   OH222554   3.507   0.344   3.926 -0.0237  0.1310  0.2702
  380TIP3    H122555   3.502   0.282   3.998 -0.2585  0.1198  0.2445
  380TIP3    H222556   3.447   0.414   3.950  0.3256  0.4029  0.3509
  381TIP3   OH222557   0.228   2.238   2.031 -0.4645 -0.3101 -0.4210
  381TIP3    H122558   0.185   2.201   2.107  0.7202  1.1007  0.9668
  381TIP3    H222559   0.291   2.171   2.003 -0.0016 -0.3087  0.6222
  382TIP3   OH222560   3.802   5.845  12.129 -0.2631 -0.3164 -0.2304
  382TIP3    H122561   3.821   5.776  12.192  1.1675 -0.4982 -0.8577
  382TIP3    H222562   3.739   5.806  12.069 -0.3704 -0.6764  0.1142
  383TIP3   OH222563   0.840   3.565  16.731 -0.1968  0.3184 -0.0169
  383TIP3    H122564   0.801   3.648  16.758  0.0389  0.5416 -0.3570
  383TIP3    H222565   0.867   3.523  16.812 -1.7634 -0.1467  0.2812
  384TIP3   OH222566   3.958   0.868   4.121 -0.7122 -0.6917 -0.8999
  384TIP3    H122567   4.047   0.904   4.119  0.6198 -3.8932 -2.7882
  384TIP3    H222568   3.950   0.831   4.209 -0.2180 -0.3125 -0.6855
  385TIP3   OH222569   0.421   3.933  13.099 -0.1142 -0.5616 -0.2064
  385TIP3    H122570   0.493   3.923  13.161 -0.5227 -3.4065 -0.1203
  385TIP3    H222571   0.451   3.888  13.020 -1.2559 -0.5971 -0.6332
  386TIP3   OH222572   1.265   5.692   0.612 -0.5088 -0.2730  0.4653
  386TIP3    H122573   1.337   5.642   0.650  0.2481 -0.3565 -1.0437
  386TIP3    H222574   1.206   5.709   0.686 -0.1154 -2.2276  1.2691
  387TIP3   OH222575   0.914   1.315  15.137 -0.2061  0.1233  0.3723
  387TIP3    H122576   0.900   1.328  15.231  0.8291  0.7406  0.4446
  387TIP3    H222577   1.000   1.353  15.120  0.2640 -1.3243 -0.5565
  388TIP3   OH222578   0.566   2.781   2.820  0.4028  0.1741 -0.4791
  388TIP3    H122579   0.521   2.754   2.740 -0.0083  0.8890 -0.4941
  388TIP3    H222580   0.637   2.838   2.790 -0.1362  0.9506 -0.2993
  389TIP3   OH222581   5.185   2.102  10.522  0.4297  0.1297 -0.0407
  389TIP3    H122582   5.114   2.165  10.518  0.5524  0.3063  0.5858
  389TIP3    H222583   5.153   2.027  10.472 -0.0694  0.3317 -0.0295
  390TIP3   OH222584   4.489   4.492  16.388 -0.3755  0.1213  0.1907
  390TIP3    H122585   4.573   4.533  16.410  0.0413 -0.4069 -0.4057
  390TIP3    H222586   4.480   4.421  16.452 -0.6085  0.4914  0.5705
  391TIP3   OH222587   4.862   2.130  10.424 -0.1103  0.4719  0.6799
  391TIP3    H122588   4.928   2.061  10.418 -0.5401  0.1092  0.0388
  391TIP3    H222589   4.788   2.089  10.468 -0.8851  0.1116 -0.9264
  392TIP3   OH222590   4.971   6.426   0.461 -0.1648 -0.2166  0.8163
  392TIP3    H122591   4.912   6.421   0.386  0.0698 -1.3676  0.7006
  392TIP3    H222592   5.013   6.511   0.453 -0.6425 -0.0487  0.0218
  393TIP3   OH222593   4.171   4.870   2.055 -0.1323 -0.6860 -0.7160
  393TIP3    H122594   4.254   4.824   2.043 -1.0903 -2.4774 -0.5926
  393TIP3    H222595   4.135   4.834   2.136 -1.3771 -0.4693 -1.1616
  394TIP3   OH222596   3.278   3.714  14.217 -0.4739 -0.1265  0.1322
  394TIP3    H122597   3.320   3.794  14.247  0.2543 -0.8101  0.9328
  394TIP3    H222598   3.197   3.709  14.268 -1.7773  1.4137 -1.7138
  395TIP3   OH222599   1.544   1.165   2.398 -0.1847  0.3623 -0.0222
  395TIP3    H122600   1.639   1.155   2.398 -0.4318 -2.3175 -1.2299
  395TIP3    H222601   1.524   1.209   2.316 -0.0964 -0.2447 -0.3677
  396TIP3   OH222602   4.132   4.481  16.995  0.2315 -0.0133 -0.0080
  396TIP3    H122603   4.075   4.477  16.918 -0.0844  0.0398  0.2211
  396TIP3    H222604   4.106   4.406  17.049 -0.2811  0.5535  0.5496
  397TIP3   OH222605   1.239   1.701  11.012 -0.0698  0.0598 -0.4030
  397TIP3    H122606   1.161   1.679  10.960  0.5591  1.7861 -2.1579
  397TIP3    H222607   1.307   1.718  10.947  1.7396 -1.1853  1.1041
  398TIP3   OH222608   4.044   2.661   0.509  0.0724  0.1283 -1.2335
  398TIP3    H122609   4.036   2.665   0.604  2.5494  0.3347 -1.0079
  398TIP3    H222610   3.980   2.595   0.483 -0.3837 -0.1911  0.6023
  399TIP3   OH222611   3.464   3.954  11.655 -0.1968  1.0281 -0.3031
  399TIP3    H122612   3.385   4.006  11.638 -0.9038  0.1959  0.3841
  399TIP3    H222613   3.431   3.871  11.690  0.9624  0.4644 -0.5229
  400TIP3   OH222614   3.633   6.678  14.053 -0.3066  0.3905  0.1456
  400TIP3    H122615   3.634   6.774  14.056 -0.7475  0.3507  1.5650
  400TIP3    H222616   3.639   6.650  14.144  2.0352 -0.9772 -0.3786
  401TIP3   OH222617   6.585   2.363  12.746  0.3549 -0.0190  0.0525
  401TIP3    H122618   6.600   2.456  12.731  1.4068 -0.0513  0.8336
  401TIP3    H222619   6.507   2.358  12.800  0.8921  0.4675  0.8790
  402TIP3   OH222620   6.539   4.707  15.080  0.1283 -0.1982  0.0720
  402TIP3    H122621   6.513   4.693  15.171  0.9436  1.8860  0.6551
  402TIP3    H222622   6.457   4.713  15.032 -0.3284 -0.3900  0.8279
  403TIP3   OH222623   1.097   6.772   2.510 -0.0694  0.1100 -0.0817
  403TIP3    H122624   1.017   6.747   2.556  1.0246 -1.5702  0.9552
  403TIP3    H222625   1.067   6.793   2.421 -1.8724  1.1124  0.7287
  404TIP3   OH222626   1.999   4.006   4.692 -0.1897 -0.2534 -0.0796
  404TIP3    H122627   1.965   4.015   4.781  3.0823 -1.2592  1.3284
  404TIP3    H222628   1.981   4.091   4.651  0.8222  1.2328  2.4611
  405TIP3   OH222629   2.034   0.073  10.625  0.3532  0.3665 -0.2158
  405TIP3    H122630   1.942   0.093  10.636  0.5673  1.3582 -0.1964
  405TIP3    H222631   2.035  -0.007  10.571 -0.5094  0.3099 -0.1486
  406TIP3   OH222632   3.494   1.476  11.124  0.4652  0.1845 -0.1291
  406TIP3    H122633   3.512   1.507  11.213  0.1497 -0.2316  0.0800
  406TIP3    H222634   3.555   1.526  11.069 -0.8278  2.0239  0.0692
  407TIP3   OH222635   6.184   5.407   3.583 -0.3949 -0.0476  0.8713
  407TIP3    H122636   6.130   5.330   3.600 -0.8583  0.4310  1.6151
  407TIP3    H222637   6.253   5.376   3.525 -2.4046 -0.3008 -1.4167
  408TIP3   OH222638   6.267   5.904  10.785 -0.3843  0.5321  0.0063
  408TIP3    H122639   6.359   5.926  10.803 -0.4606  1.0565 -0.2308
  408TIP3    H222640   6.250   5.942  10.699 -0.3750 -0.9329 -0.6453
  409TIP3   OH222641   1.655   5.241  11.882  0.3607  0.1146 -0.0416
  409TIP3    H122642   1.666   5.281  11.969  2.4435  1.2178 -0.7754
  409TIP3    H222643   1.684   5.150  11.894  0.5653  0.2389  0.4374
  410TIP3   OH222644   3.845   5.877  17.182  0.6239 -0.2390 -0.2249
  410TIP3    H122645   3.796   5.826  17.246  0.3397  1.8000  1.2519
  410TIP3    H222646   3.933   5.841  17.184  0.8634  0.3865  2.0463
  411TIP3   OH222647   3.338   2.297   1.641  0.2276  0.3522  0.2731
  411TIP3    H122648   3.324   2.384   1.679 -3.7241 -0.1440  0.1065
  411TIP3    H222649   3.270   2.287   1.575 -1.4381 -4.0400  2.4009
  412TIP3   OH222650   4.185   2.502   2.280  0.2441  0.2854  0.3086
  412TIP3    H122651   4.129   2.567   2.237 -0.3231 -0.2246  0.2656
  412TIP3    H222652   4.266   2.504   2.230 -0.5649 -0.6316 -1.0943
  413TIP3   OH222653   0.552   6.518   3.047  0.3160 -0.0867  0.0801
  413TIP3    H122654   0.506   6.596   3.016  1.3474  1.5405  2.5093
  413TIP3    H222655   0.644   6.544   3.051  0.9981 -2.1472 -1.1430
  414TIP3   OH222656   1.743   1.479  14.234  0.4891 -0.2554  0.1050
  414TIP3    H122657   1.718   1.407  14.177  0.6724 -0.8153  0.7323
  414TIP3    H222658   1.812   1.524  14.185  0.2602 -0.4028 -0.3590
  415TIP3   OH222659   4.781   2.063   3.818  0.3535 -0.0376  0.1116
  415TIP3    H122660   4.731   2.036   3.895 -1.4888  0.2983 -0.9376
  415TIP3    H222661   4.867   2.021   3.829  0.1947  0.1955  2.4417
  416TIP3   OH222662   6.667   6.240   3.391 -0.2021  0.0588  0.4141
  416TIP3    H122663   6.640   6.200   3.474 -0.0793  0.6685  0.7438
  416TIP3    H222664   6.736   6.182   3.358 -0.5220 -0.4014  0.5392
  417TIP3   OH222665   1.273   0.745  16.479  0.3057  0.4737 -0.3205
  417TIP3    H122666   1.190   0.781  16.446  0.2614 -0.8620 -1.7100
  417TIP3    H222667   1.254   0.653  16.497  1.4803  0.1560 -0.6629
  418TIP3   OH222668   3.465   3.433   4.108  0.0836  0.2939  0.0930
  418TIP3    H122669   3.504   3.382   4.037  1.6916  0.7837  0.5978
  418TIP3    H222670   3.384   3.386   4.129  1.5879 -2.1553  0.6500
  419TIP3   OH222671   1.550   5.115   6.453 -0.0600 -0.2754 -0.1629
  419TIP3    H122672   1.486   5.140   6.519 -0.0343  0.6920 -0.4937
  419TIP3    H222673   1.539   5.180   6.383  1.2570 -0.1096 -0.2353
  420TIP3   OH222674   2.942   6.762  11.614  0.2851 -0.7193 -0.2738
  420TIP3    H122675   3.030   6.739  11.645  0.1566  0.0001  0.6384
  420TIP3    H222676   2.883   6.728  11.681 -0.0260  0.3839  0.0272
  421TIP3   OH222677   2.970   3.686  15.440  0.0401 -0.7064 -0.2450
  421TIP3    H122678   2.986   3.595  15.464  2.2694 -0.3280 -0.2179
  421TIP3    H222679   2.954   3.684  15.345  2.3727 -0.8585 -0.6448
  422TIP3   OH222680   6.753   5.261  16.682  0.1849 -0.7967 -0.2543
  422TIP3    H122681   6.745   5.320  16.607  0.0571 -1.1049 -0.4855
  422TIP3    H222682   6.781   5.178  16.643 -1.1001 -1.3120 -0.1055
  423TIP3   OH222683   5.661   5.910   4.795  0.3024  0.2711 -0.5281
  423TIP3    H122684   5.638   5.990   4.842  0.1932  0.8006 -1.4736
  423TIP3    H222685   5.688   5.939   4.709  1.5008 -0.6142 -0.4659
  424TIP3   OH222686   0.074   3.714  15.336 -0.4223 -0.1706 -0.3859
  424TIP3    H122687   0.097   3.762  15.416 -0.2811  1.8305 -1.5999
  424TIP3    H222688   0.028   3.636  15.368  0.1641  0.2850  1.6741
  425TIP3   OH222689   4.801   1.892   5.411 -0.5328 -0.0107  0.1158
  425TIP3    H122690   4.856   1.816   5.392 -0.5726  0.0850 -0.3997
  425TIP3    H222691   4.802   1.943   5.329  2.2682  2.3003  1.4987
  426TIP3   OH222692   1.727   2.310   0.428 -0.2902  0.3786  0.3211
  426TIP3    H122693   1.805   2.327   0.480  1.4998 -3.1039 -1.0365
  426TIP3    H222694   1.743   2.355   0.345 -0.1834  0.4737  0.3940
  427TIP3   OH222695   3.287   2.543  14.917  0.6820  0.1936  0.2494
  427TIP3    H122696   3.351   2.504  14.858  0.0510 -0.2790 -0.1366
  427TIP3    H222697   3.255   2.470  14.970  1.1895  0.6021  1.1306
  428TIP3   OH222698   2.380   5.000   6.054  0.1448 -0.1939  0.4020
  428TIP3    H122699   2.340   4.944   6.120  0.6081 -2.7185 -1.3749
  428TIP3    H222700   2.357   5.089   6.081 -4.2311 -1.3742  1.0823
  429TIP3   OH222701   1.593   3.323  16.203 -0.0122 -0.0872  0.1463
  429TIP3    H122702   1.544   3.257  16.154  1.3577 -0.4575 -0.7376
  429TIP3    H222703   1.539   3.402  16.197 -1.5478 -1.0579  1.0169
  430TIP3   OH222704   1.230   2.129   4.364  0.7718 -0.4437 -0.2968
  430TIP3    H122705   1.254   2.207   4.414  0.1578 -0.4824  0.0646
  430TIP3    H222706   1.254   2.056   4.421  0.0084 -0.4860 -0.0241
  431TIP3   OH222707   5.935   3.891  16.889 -0.2751 -0.6445  0.1402
  431TIP3    H122708   5.948   3.835  16.966  1.5199 -1.5368 -0.7692
  431TIP3    H222709   5.869   3.845  16.838  0.4422 -1.4188 -0.1060
  432TIP3   OH222710   1.570   1.351  15.230 -0.5085 -0.4162  0.0185
  432TIP3    H122711   1.494   1.378  15.280 -0.5415 -2.4684  1.1593
  432TIP3    H222712   1.541   1.273  15.182  0.5075 -0.4782 -0.5119
  433TIP3   OH222713   5.999   4.617   3.568 -0.0749  0.2091  0.3924
  433TIP3    H122714   6.002   4.601   3.662  0.2515 -0.2495  0.3080
  433TIP3    H222715   5.976   4.710   3.560 -0.7122  0.0992  0.9110
  434TIP3   OH222716   0.551   1.087  15.689 -0.0204 -0.3548 -0.1724
  434TIP3    H122717   0.458   1.109  15.681 -0.0090 -0.3780 -0.3694
  434TIP3    H222718   0.553   1.011  15.747  0.1076  1.6453  2.5677
  435TIP3   OH222719   1.144   4.931   1.384  0.1393 -0.0557 -0.2964
  435TIP3    H122720   1.076   4.950   1.448 -0.6658 -0.6190 -0.9686
  435TIP3    H222721   1.107   4.862   1.329  0.5869  0.8243 -1.7332
  436TIP3   OH222722   1.736   3.980  13.508 -0.0185  0.7109 -0.1433
  436TIP3    H122723   1.689   4.063  13.500 -1.2969  0.1083  0.7948
  436TIP3    H222724   1.779   3.968  13.424  0.2044  2.3267 -0.2880
  437TIP3   OH222725   2.668   5.231   4.556 -0.1858  0.0145 -0.6550
  437TIP3    H122726   2.680   5.200   4.646  0.1275 -0.5198 -0.8794
  437TIP3    H222727   2.690   5.155   4.501  0.5340  0.6153 -1.2073
  438TIP3   OH222728   2.565   3.534  14.967 -0.4491  0.0735  0.1749
  438TIP3    H122729   2.476   3.511  14.992 -0.5397 -1.9946 -1.8159
  438TIP3    H222730   2.562   3.540  14.871  1.0467  2.3165  0.2352
  439TIP3   OH222731   1.384   1.008   2.575  0.5088 -0.7991  0.0975
  439TIP3    H122732   1.432   1.058   2.509 -2.9306 -0.1077 -1.9531
  439TIP3    H222733   1.375   0.921   2.537 -0.9026 -0.5805 -0.1025
  440TIP3   OH222734   2.812   4.712  12.518 -0.1154  0.2596  0.4488
  440TIP3    H122735   2.845   4.666  12.595  0.0994  0.2574  0.3559
  440TIP3    H222736   2.824   4.805  12.538  0.3318  0.2492  0.2456
  441TIP3   OH222737   4.908   5.117  17.036 -0.2585 -0.1722 -0.2400
  441TIP3    H122738   4.965   5.114  17.113  0.9859  0.2798 -1.1273
  441TIP3    H222739   4.869   5.204  17.040  0.3411  0.1130 -0.4918
  442TIP3   OH222740   1.461   6.257  17.021  0.2823  0.2119 -0.3354
  442TIP3    H122741   1.387   6.283  16.966 -0.0951 -0.2376 -0.0373
  442TIP3    H222742   1.437   6.172  17.056  1.6515 -0.7010 -1.5417
  443TIP3   OH222743   3.802   5.688  16.590 -0.0503  0.2966  0.1848
  443TIP3    H122744   3.788   5.612  16.646  0.1420  0.7109  0.7966
  443TIP3    H222745   3.896   5.702  16.591 -0.0277  0.2050 -0.3799
  444TIP3   OH222746   3.519   5.211  12.835  0.4122 -0.0004 -0.6213
  444TIP3    H122747   3.545   5.204  12.927  0.7629 -2.1423 -0.8516
  444TIP3    H222748   3.596   5.247  12.791  1.2928 -1.7409 -0.5294
  445TIP3   OH222749   3.157   1.135  15.001 -0.1523  0.3151 -0.2620
  445TIP3    H122750   3.133   1.051  15.039  0.2290  0.9192  1.3445
  445TIP3    H222751   3.238   1.160  15.045 -0.3997  1.6455 -0.5314
  446TIP3   OH222752   5.969   2.008   3.826  0.0368 -0.0325 -0.5132
  446TIP3    H122753   5.890   2.019   3.879 -0.4888 -0.6686 -1.1543
  446TIP3    H222754   5.983   2.094   3.786 -0.0116  0.2334  0.0359
  447TIP3   OH222755   0.555   3.535   4.412 -0.0032 -0.1872  0.0929
  447TIP3    H122756   0.490   3.549   4.480 -0.1994 -0.7654  0.0265
  447TIP3    H222757   0.622   3.602   4.428 -1.2304  1.2483 -0.6142
  448TIP3   OH222758   4.025   6.587   2.309  0.1953  0.3330 -0.0790
  448TIP3    H122759   4.111   6.628   2.302  0.6978 -0.7413 -0.2669
  448TIP3    H222760   3.970   6.638   2.250  1.5384 -1.1293 -2.6790
  449TIP3   OH222761   0.003   3.975   1.061  0.2821  0.0510  0.1753
  449TIP3    H122762  -0.009   4.010   1.149  0.9104  0.6088  0.0422
  449TIP3    H222763   0.090   4.005   1.035  0.1815 -0.2831 -0.5547
  450TIP3   OH222764   0.452   5.158  14.917 -0.3619  0.6139 -0.2223
  450TIP3    H122765   0.364   5.144  14.884 -0.3085  1.2156 -0.6248
  450TIP3    H222766   0.506   5.167  14.839 -0.0188  0.7249  0.0252
  451TIP3   OH222767   6.783   5.301   4.033 -0.1682 -0.0198 -0.0672
  451TIP3    H122768   6.833   5.378   4.008 -0.8207  0.4680  0.1088
  451TIP3    H222769   6.767   5.312   4.127 -0.5621 -0.1954 -0.1111
  452TIP3   OH222770   3.359   4.978  14.691  0.0050  0.0269  0.1138
  452TIP3    H122771   3.408   4.943  14.765  1.0151 -1.8178 -1.3875
  452TIP3    H222772   3.272   4.941  14.699 -0.1262  0.4856  0.8278
  453TIP3   OH222773   1.779   3.032   3.485 -0.9050 -0.0789  0.1949
  453TIP3    H122774   1.778   3.104   3.422  4.1452  0.5215  0.6172
  453TIP3    H222775   1.813   3.071   3.566 -0.5972 -2.3312  1.1980
  454TIP3   OH222776   3.321   0.537  12.225 -0.6404  0.3747  0.1125
  454TIP3    H122777   3.252   0.549  12.160  0.3258  1.3674 -0.7491
  454TIP3    H222778   3.370   0.461  12.193  0.0935  1.1256 -0.5549
  455TIP3   OH222779   0.646   5.543   4.176  0.0059 -0.1292 -0.3188
  455TIP3    H122780   0.583   5.485   4.219 -1.3510  0.6414 -1.2097
  455TIP3    H222781   0.696   5.581   4.248 -0.1085 -1.2502  0.3692
  456TIP3   OH222782   0.543   0.267  11.652 -0.3275 -0.2647  0.8560
  456TIP3    H122783   0.456   0.241  11.623 -0.1765  1.2242 -1.0205
  456TIP3    H222784   0.563   0.346  11.602  1.6128  0.1020  2.1379
  457TIP3   OH222785   0.667   0.033   2.904 -0.4311 -0.1416  0.2759
  457TIP3    H122786   0.601   0.086   2.950 -0.2116  0.3041  0.0810
  457TIP3    H222787   0.615  -0.030   2.854 -0.6865 -0.3133  0.7564
  458TIP3   OH222788   2.429   5.587  13.238 -0.0158  0.1222 -0.0376
  458TIP3    H122789   2.364   5.613  13.172 -0.5538 -3.3786 -1.0275
  458TIP3    H222790   2.502   5.552  13.187  1.6949  1.8401  1.1530
  459TIP3   OH222791   3.473   0.008  16.062 -0.4472 -0.1301 -0.5293
  459TIP3    H122792   3.521  -0.008  15.981  2.8909  0.1739  1.2844
  459TIP3    H222793   3.502   0.095  16.091 -0.3600 -0.8717  1.7454
  460TIP3   OH222794   4.355   2.457   1.621  0.2889 -0.3660  0.0239
  460TIP3    H122795   4.399   2.396   1.680  1.8752 -0.4299 -1.2089
  460TIP3    H222796   4.405   2.538   1.630 -0.9234  0.3376  0.5565
  461TIP3   OH222797   5.802   0.778   4.440 -0.4266  0.0402  0.3302
  461TIP3    H122798   5.826   0.725   4.364  0.4756  0.6873  0.1614
  461TIP3    H222799   5.883   0.788   4.489 -0.6443  1.0519  0.4966
  462TIP3   OH222800   5.788   6.630  11.104 -0.2326  0.1718  0.4433
  462TIP3    H122801   5.878   6.598  11.109 -0.8869 -1.8116 -0.0656
  462TIP3    H222802   5.780   6.664  11.015 -0.3741 -0.8582  0.0597
  463TIP3   OH222803   0.005   4.322   2.151 -0.4231  0.1041  0.2123
  463TIP3    H122804   0.012   4.333   2.246  2.7085 -2.8359  0.4038
  463TIP3    H222805   0.080   4.368   2.116 -0.8695  0.1001 -0.7534
  464TIP3   OH222806   0.877   1.967   3.995 -0.6837  0.0599 -0.5001
  464TIP3    H122807   0.794   1.951   4.041  0.5926 -1.3081  1.3861
  464TIP3    H222808   0.927   2.023   4.054  0.9807 -1.7128 -0.1711
  465TIP3   OH222809   2.792   4.213  13.831 -0.4012 -0.3098  0.1648
  465TIP3    H122810   2.766   4.145  13.769  0.6710 -0.2325 -0.4006
  465TIP3    H222811   2.721   4.217  13.894 -0.7431 -1.5517 -0.1233
  466TIP3   OH222812   4.057   5.724  11.125  0.0661 -0.2950  1.1161
  466TIP3    H122813   4.133   5.680  11.163  0.9345 -1.1867 -1.5699
  466TIP3    H222814   4.094   5.794  11.071 -1.1118  0.3353  1.1011
  467TIP3   OH222815   4.882   3.447   1.217  0.5140 -0.3355 -0.1924
  467TIP3    H122816   4.923   3.501   1.150 -0.7193  0.9073  0.0246
  467TIP3    H222817   4.796   3.487   1.231  0.9563 -0.2346  2.5421
  468TIP3   OH222818   0.482   2.925  14.717 -0.4312 -0.0512 -0.2045
  468TIP3    H122819   0.426   2.943  14.641 -1.3873 -0.8573  0.2983
  468TIP3    H222820   0.443   2.848  14.758  0.3985  0.0499  0.7962
  469TIP3   OH222821   6.274   0.266  16.814  0.1463 -0.4055 -0.2215
  469TIP3    H122822   6.183   0.285  16.839  0.6023  0.1811  1.0153
  469TIP3    H222823   6.274   0.172  16.797 -0.4053 -0.6744  1.1133
  470TIP3   OH222824   1.541   3.893   0.420 -0.3286 -0.2088  0.0849
  470TIP3    H122825   1.465   3.835   0.413 -1.1408  0.9819 -0.9962
  470TIP3    H222826   1.512   3.963   0.479 -0.0874  0.2836 -0.3844
  471TIP3   OH222827   6.646   0.595  17.106 -0.2611 -0.0656  0.3174
  471TIP3    H122828   6.633   0.542  17.184  0.5032 -0.0908  0.4259
  471TIP3    H222829   6.741   0.604  17.098 -0.3405  0.1560 -0.4598
  472TIP3   OH222830   3.310   6.601   6.281 -0.0609 -0.3283 -0.2509
  472TIP3    H122831   3.301   6.509   6.257 -1.0276 -0.5176  0.7688
  472TIP3    H222832   3.396   6.627   6.248 -1.3549 -0.5320 -4.0210
  473TIP3   OH222833   4.040   1.875  15.379 -0.2530  0.1897  0.4884
  473TIP3    H122834   4.082   1.909  15.301  0.2335  2.2392  1.6101
  473TIP3    H222835   3.995   1.796  15.350  0.8626  0.3020 -1.6050
  474TIP3   OH222836   5.358   5.806   5.940 -0.1584  0.1890 -0.2331
  474TIP3    H122837   5.273   5.826   5.980  0.4108  1.1732  0.5172
  474TIP3    H222838   5.397   5.741   5.999  0.1670  0.7386  0.1678
  475TIP3   OH222839   0.286   6.122   2.218  0.5832  0.4111  0.1054
  475TIP3    H122840   0.242   6.139   2.301 -0.4533 -0.0904 -0.3364
  475TIP3    H222841   0.217   6.128   2.152  1.5049  1.4611 -0.8073
  476TIP3   OH222842   3.838   6.476  14.858 -0.7432 -0.3056 -0.1118
  476TIP3    H122843   3.767   6.425  14.820 -0.6415 -1.3605  1.0548
  476TIP3    H222844   3.909   6.470  14.794 -1.0909 -0.8026 -0.4519
  477TIP3   OH222845   1.693   1.570  13.879 -0.1629  0.2237 -0.2743
  477TIP3    H122846   1.613   1.582  13.930 -1.0382  0.2955 -1.6418
  477TIP3    H222847   1.764   1.580  13.943 -1.2152  1.1071  0.7779
  478TIP3   OH222848   6.124   6.312   0.552  0.3329  0.0776 -0.2939
  478TIP3    H122849   6.121   6.280   0.642 -2.2736  1.6227  0.2329
  478TIP3    H222850   6.039   6.289   0.515  0.9223  0.5129 -2.0060
  479TIP3   OH222851   0.761   2.814   6.051 -0.1130  0.3422 -0.1987
  479TIP3    H122852   0.784   2.791   5.961  0.8557 -0.7190  0.3025
  479TIP3    H222853   0.845   2.828   6.094 -0.5750  0.8456  0.5425
  480TIP3   OH222854   6.205   6.658  12.562  0.3467 -0.3200  0.1312
  480TIP3    H122855   6.154   6.671  12.641  2.3671  0.1134  1.3994
  480TIP3    H222856   6.195   6.740  12.513  0.7953  0.2345  0.9571
  481TIP3   OH222857   5.287   6.536   0.351 -0.1388 -0.0867  0.3748
  481TIP3    H122858   5.310   6.486   0.429  2.1552  1.7573  0.9501
  481TIP3    H222859   5.218   6.596   0.380  0.4095  0.2987  0.9059
  482TIP3   OH222860   2.847   5.390   1.434 -0.2742  0.0014  0.3194
  482TIP3    H122861   2.885   5.346   1.511  0.1277 -0.2886 -0.0421
  482TIP3    H222862   2.794   5.461   1.471 -0.8494 -0.7289  0.9008
  483TIP3   OH222863   3.157   4.390  13.206  0.4142 -0.3679 -0.1922
  483TIP3    H122864   3.156   4.430  13.119  1.1402 -0.0629 -0.0657
  483TIP3    H222865   3.109   4.452  13.261  0.3446 -0.3412 -0.2811
  484TIP3   OH222866   3.370   3.789  16.448 -0.2341  0.0864  0.6480
  484TIP3    H122867   3.348   3.713  16.503  0.0806 -0.8279 -0.4726
  484TIP3    H222868   3.428   3.754  16.381  0.4704  1.4713  0.5227
  485TIP3   OH222869   4.034   0.217   2.019  0.0456 -0.0467 -0.3226
  485TIP3    H122870   4.010   0.169   1.940  1.5702 -1.9051  0.2971
  485TIP3    H222871   4.112   0.267   1.994  0.5797 -0.7017  0.0104
  486TIP3   OH222872   5.915   3.546  11.218 -0.3046 -0.6832  0.0470
  486TIP3    H122873   5.881   3.583  11.299 -0.8518  0.5440 -0.7340
  486TIP3    H222874   6.010   3.550  11.228 -0.3656  0.1514  0.3141
  487TIP3   OH222875   6.233   0.450   0.147  0.8878 -0.0155  0.2373
  487TIP3    H122876   6.201   0.531   0.107 -1.9516 -2.0147 -1.7341
  487TIP3    H222877   6.229   0.467   0.241 -0.5675  1.8400 -0.1332
  488TIP3   OH222878   4.233   2.995   3.922 -0.2767 -0.1875 -0.1979
  488TIP3    H122879   4.146   3.025   3.948 -0.3306 -1.2787  0.9231
  488TIP3    H222880   4.220   2.906   3.891  0.5734 -0.6830  0.8552
  489TIP3   OH222881   0.772   4.314   0.611  0.5325  0.2462 -0.1562
  489TIP3    H122882   0.841   4.380   0.609  0.1724  0.6402  0.2740
  489TIP3    H222883   0.742   4.307   0.521  1.4665 -0.2742 -0.4288
  490TIP3   OH222884   0.522   1.681  14.622 -0.3158 -0.1417  0.3051
  490TIP3    H122885   0.600   1.656  14.572 -1.8868 -2.0061 -1.2487
  490TIP3    H222886   0.548   1.762  14.667  2.6544 -0.9547  0.1715
  491TIP3   OH222887   5.047   6.315  11.183  0.3720 -0.0602 -0.7950
  491TIP3    H122888   5.075   6.260  11.110  1.3469  0.0634 -0.5177
  491TIP3    H222889   5.114   6.304  11.249 -0.0228  0.5629 -0.2779
  492TIP3   OH222890   4.187   1.947  13.741 -0.0662  0.1225  0.6326
  492TIP3    H122891   4.100   1.975  13.713 -0.2194  0.8144  1.7868
  492TIP3    H222892   4.240   1.953  13.661 -1.2228 -0.9872 -0.2468
  493TIP3   OH222893   0.688   2.347  11.482  0.1556 -0.2020 -0.6405
  493TIP3    H122894   0.744   2.421  11.506 -0.3619 -0.0624  0.1506
  493TIP3    H222895   0.739   2.298  11.418  1.9228 -1.0639  1.3874
  494TIP3   OH222896   6.674   0.131   4.674  0.5892 -0.2600 -0.1427
  494TIP3    H122897   6.591   0.147   4.629  1.0315  0.1699 -0.8199
  494TIP3    H222898   6.723   0.075   4.613  1.3407  0.6351 -0.3704
  495TIP3   OH222899   0.901   2.296  17.077 -0.3302  0.5421 -0.5732
  495TIP3    H122900   0.977   2.277  17.133 -1.2485  0.9703  0.8531
  495TIP3    H222901   0.895   2.392  17.077 -1.2044  0.4921 -0.2020
  496TIP3   OH222902   5.195   4.085  11.591  0.1267 -0.0362 -0.1967
  496TIP3    H122903   5.246   4.071  11.670  0.6076  0.4215 -0.4198
  496TIP3    H222904   5.111   4.043  11.608  0.3717 -0.2812  0.4004
  497TIP3   OH222905   1.616   2.023  12.072  0.0806  0.0572 -0.3725
  497TIP3    H122906   1.660   2.016  12.156  0.1593  0.0024 -0.4186
  497TIP3    H222907   1.675   1.981  12.009  0.0207  0.0950 -0.4544
  498TIP3   OH222908   2.552   3.667   5.547  0.0712 -0.3355  0.9246
  498TIP3    H122909   2.462   3.672   5.513  1.1025  0.7071 -1.7707
  498TIP3    H222910   2.605   3.645   5.471  2.4943  1.9529  1.8877
  499TIP3   OH222911   6.431   4.010  15.634  0.5508 -0.2033 -0.0048
  499TIP3    H122912   6.398   4.082  15.580  0.3956  0.6039  1.1656
  499TIP3    H222913   6.367   3.940  15.623  0.1408  0.2185 -0.2913
  500TIP3   OH222914   5.580   1.368  10.957 -0.2309 -0.0945 -0.2743
  500TIP3    H122915   5.667   1.374  10.997 -0.9218  0.2329  1.2174
  500TIP3    H222916   5.597   1.352  10.864  1.4191  1.8315 -0.3192
  501TIP3   OH222917   2.275   0.114   4.184 -0.6001 -0.0309  0.5784
  501TIP3    H122918   2.249   0.070   4.102 -2.0445 -0.1721  1.1005
  501TIP3    H222919   2.220   0.074   4.251  0.7398 -0.0753  1.6796
  502TIP3   OH222920   4.568   5.687  11.805 -0.4160  0.0174  0.4304
  502TIP3    H122921   4.533   5.598  11.818  2.4823 -0.9476  2.0696
  502TIP3    H222922   4.524   5.740  11.871  0.3798 -0.9474  1.7561
  503TIP3   OH222923   5.610   5.582   4.219 -0.2906  0.0960 -0.0183
  503TIP3    H122924   5.600   5.557   4.310  1.6246  1.1072  0.5040
  503TIP3    H222925   5.524   5.568   4.180 -1.0820 -0.4818  1.9012
  504TIP3   OH222926   5.596   4.303   0.411 -0.8607  0.3346  0.5227
  504TIP3    H122927   5.572   4.278   0.501  0.4577 -0.1882  0.7553
  504TIP3    H222928   5.663   4.239   0.387  1.1924  2.4487  0.3924
  505TIP3   OH222929   5.816   4.213   1.995 -0.1392  0.2848  0.0080
  505TIP3    H122930   5.778   4.296   1.968 -0.8227  0.3188  1.0425
  505TIP3    H222931   5.809   4.213   2.090 -0.9423 -1.3294 -0.0348
  506TIP3   OH222932   5.430   0.572  11.445 -0.3768 -0.2867  0.0340
  506TIP3    H122933   5.429   0.559  11.350 -0.0934  0.0281 -0.0155
  506TIP3    H222934   5.357   0.631  11.462 -0.0518  0.1486 -0.0654
  507TIP3   OH222935   5.757   5.669   3.048 -0.0574 -0.0875  0.0258
  507TIP3    H122936   5.752   5.620   3.130 -3.0194  2.8045  1.6730
  507TIP3    H222937   5.844   5.709   3.049 -0.4953  0.8937  2.4120
  508TIP3   OH222938   2.161   2.383  12.358  0.2844 -0.4878 -0.3716
  508TIP3    H122939   2.127   2.332  12.284  1.7501 -2.9376  0.5904
  508TIP3    H222940   2.238   2.427  12.323 -1.5882  2.0631 -1.5073
  509TIP3   OH222941   3.357   1.615  16.965  0.2649  0.5237  0.2846
  509TIP3    H122942   3.422   1.592  16.898  0.0829  0.7485  0.0258
  509TIP3    H222943   3.299   1.677  16.921  0.0796  0.5909  0.6222
  510TIP3   OH222944   6.775   3.946  16.686 -0.3617 -0.3420 -0.3560
  510TIP3    H122945   6.688   3.915  16.660 -0.2045  0.5069 -1.9636
  510TIP3    H222946   6.757   4.015  16.750 -0.9394  0.6043 -1.5082
  511TIP3   OH222947   2.408   0.269  15.843 -0.1306 -0.0693 -0.2942
  511TIP3    H122948   2.489   0.303  15.880  0.1910 -2.8290  1.7071
  511TIP3    H222949   2.434   0.186  15.801 -1.5689  0.0478 -1.4730
  512TIP3   OH222950   2.113   1.324   2.754  0.2773  0.3912 -0.1451
  512TIP3    H122951   2.023   1.318   2.786  0.5104 -0.7002  0.3317
  512TIP3    H222952   2.157   1.381   2.818  0.5647 -1.2067  1.1131
  513TIP3   OH222953   3.874   6.543   0.856 -0.0072  0.5828  0.1556
  513TIP3    H122954   3.849   6.569   0.944  0.8282 -1.9810  1.2034
  513TIP3    H222955   3.970   6.551   0.855 -0.0419  0.9537 -0.6521
  514TIP3   OH222956   0.223   0.156   4.218  0.1887 -0.0979  0.6255
  514TIP3    H122957   0.178   0.240   4.203  0.4297  0.0236  0.5825
  514TIP3    H222958   0.301   0.161   4.163 -0.8850 -1.2353 -1.0505
  515TIP3   OH222959   6.600   4.767  12.589 -0.6154  0.0260  0.2891
  515TIP3    H122960   6.627   4.697  12.648  0.7201  1.1264  1.0217
  515TIP3    H222961   6.519   4.736  12.550 -0.1405 -1.8426  0.7454
  516TIP3   OH222962   5.354   0.854   2.142  0.0015 -0.0571  0.1208
  516TIP3    H122963   5.276   0.910   2.148  0.0230  0.0362 -0.4984
  516TIP3    H222964   5.329   0.786   2.080  0.9853  0.9025 -1.3511
  517TIP3   OH222965   4.722   2.425   2.420  0.0900  0.2033  0.0345
  517TIP3    H122966   4.773   2.464   2.349  0.1154  0.0896 -0.0104
  517TIP3    H222967   4.772   2.348   2.446 -0.5436 -0.4494 -0.6624
  518TIP3   OH222968   3.992   2.953   5.630 -1.0886  0.8814  0.0016
  518TIP3    H122969   4.049   3.021   5.595 -1.1100  1.2065  0.5791
  518TIP3    H222970   4.045   2.908   5.695 -0.4532 -0.9122 -1.7282
  519TIP3   OH222971   3.382   6.089   4.747  0.8377  0.0685  0.0772
  519TIP3    H122972   3.346   6.000   4.754 -0.1103  0.4261 -0.1340
  519TIP3    H222973   3.420   6.092   4.659 -0.0853  0.2132 -0.3223
  520TIP3   OH222974   1.813   5.734   3.309 -0.5454  0.2660 -0.2597
  520TIP3    H122975   1.897   5.716   3.351 -1.5989 -0.4398  1.5629
  520TIP3    H222976   1.831   5.808   3.251  0.8097  1.5925  1.8100
  521TIP3   OH222977   4.016   3.591  15.664 -0.3204 -0.4693  0.1558
  521TIP3    H122978   4.030   3.626  15.576 -1.7223  0.1633  0.1740
  521TIP3    H222979   3.927   3.619  15.687 -0.8946 -2.7065  0.7983
  522TIP3   OH222980   4.886   3.731   1.397 -0.4975 -0.0023  0.1019
  522TIP3    H122981   4.845   3.772   1.473  2.0638 -1.0917  2.1923
  522TIP3    H222982   4.978   3.757   1.403  0.2446 -2.1594 -1.1767
  523TIP3   OH222983   6.059   0.479  16.757  0.5624  0.5468 -0.3191
  523TIP3    H122984   5.974   0.454  16.721  1.1875 -1.2385 -0.6265
  523TIP3    H222985   6.039   0.546  16.822 -1.3480 -1.5636  1.3616
  524TIP3   OH222986   6.625   2.884   3.392 -0.3456 -0.5357  0.3033
  524TIP3    H122987   6.580   2.956   3.436 -0.0859 -0.1469 -0.0573
  524TIP3    H222988   6.666   2.925   3.316 -1.3435 -1.3167 -0.6750
  525TIP3   OH222989   5.404   6.558  12.123  0.0428  0.0253  0.0656
  525TIP3    H122990   5.498   6.569  12.138 -0.2311  1.2641  0.9114
  525TIP3    H222991   5.390   6.591  12.034  0.4315 -0.3531 -0.1421
  526TIP3   OH222992   6.448   5.253   2.591  0.1397  0.2683  0.0563
  526TIP3    H122993   6.437   5.159   2.576 -0.1530  0.1674  0.8610
  526TIP3    H222994   6.529   5.260   2.641 -0.5484  0.3168  1.1908
  527TIP3   OH222995   4.853   1.526   1.741  0.8959  0.3031  0.2813
  527TIP3    H122996   4.835   1.557   1.830  0.1760 -1.5586  0.8065
  527TIP3    H222997   4.866   1.606   1.690  0.8867  1.4056  1.9701
  528TIP3   OH222998   5.031   4.279   2.468  0.3260  0.1375 -0.0255
  528TIP3    H122999   5.016   4.254   2.377 -0.5472  1.5842 -0.2832
  528TIP3    H223000   5.121   4.251   2.486  0.9172  0.9437 -1.6934
  529TIP3   OH223001   5.897   3.404  12.626  0.5007  0.1843 -0.2341
  529TIP3    H123002   5.979   3.434  12.587 -0.2128  1.8232 -0.5133
  529TIP3    H223003   5.844   3.376  12.552  0.1955  0.6786 -0.2049
  530TIP3   OH223004   4.927   2.100  12.028  0.3158 -0.0166 -0.3957
  530TIP3    H123005   4.962   2.170  11.973 -0.2068  0.0007 -0.7068
  530TIP3    H223006   4.882   2.042  11.967  0.4487 -0.4382 -0.0910
  531TIP3   OH223007   4.341   3.960  13.664 -0.1265 -0.5664  0.1982
  531TIP3    H123008   4.254   3.979  13.701 -1.5555 -1.1961 -2.6576
  531TIP3    H223009   4.361   4.036  13.609  1.3758 -0.2086  1.2225
  532TIP3   OH223010   0.748   1.451  10.955 -0.0990 -0.2294 -0.0468
  532TIP3    H123011   0.786   1.377  10.908 -0.9088 -0.3665 -0.5038
  532TIP3    H223012   0.785   1.528  10.913  1.1021 -0.3678  0.7289
  533TIP3   OH223013   3.538   3.941   2.432  0.2805  0.1478 -0.0848
  533TIP3    H123014   3.532   3.903   2.520 -0.8486 -0.1599 -0.2887
  533TIP3    H223015   3.600   4.014   2.442  0.5341 -0.1835  0.8555
  534TIP3   OH223016   0.872   5.519  16.006 -0.8620 -0.7055  0.1390
  534TIP3    H123017   0.954   5.514  16.055  0.9217  1.1286 -2.5210
  534TIP3    H223018   0.842   5.609  16.018 -1.0018 -0.5624 -1.1437
  535TIP3   OH223019   2.652   1.939  13.972 -0.2336  0.4003  0.2032
  535TIP3    H123020   2.697   2.015  14.007  0.4767  0.0111  0.1451
  535TIP3    H223021   2.671   1.941  13.878  1.2263 -0.7893  0.4451
  536TIP3   OH223022   1.628   4.776   1.821  0.1402 -0.6547 -0.1568
  536TIP3    H123023   1.605   4.703   1.764 -1.8817 -0.9920  1.0375
  536TIP3    H223024   1.544   4.808   1.854  1.2547 -1.3902  3.7570
  537TIP3   OH223025   5.958   5.359  12.354  0.0233  0.1858 -0.4174
  537TIP3    H123026   5.925   5.438  12.313 -1.1864 -0.0486  0.0819
  537TIP3    H223027   5.940   5.289  12.291 -1.3000 -0.0835  0.2409
  538TIP3   OH223028   2.913   5.845   3.779 -0.7028  0.0997  0.0810
  538TIP3    H123029   2.863   5.845   3.861 -0.8835  0.8071 -0.0241
  538TIP3    H223030   2.926   5.938   3.759  0.9105 -0.0694  0.2578
  539TIP3   OH223031   5.249   0.800  14.303 -0.5204 -0.5091 -0.3110
  539TIP3    H123032   5.317   0.734  14.285  0.2249  0.1247  0.1206
  539TIP3    H223033   5.298   0.875  14.335 -1.2913  0.5244 -1.5199
  540TIP3   OH223034   0.078   0.899  16.551  0.1806  0.2491  0.3788
  540TIP3    H123035   0.156   0.914  16.498 -1.1650 -0.3853 -1.8524
  540TIP3    H223036   0.072   0.804  16.559 -0.3536  0.2927  0.5468
  541TIP3   OH223037   3.570   3.760   0.192 -0.1024  0.0485  0.1655
  541TIP3    H123038   3.502   3.827   0.192  0.4977  0.6600 -0.4157
  541TIP3    H223039   3.612   3.767   0.106  1.9957  1.0147  1.2318
  542TIP3   OH223040   3.270   5.072  14.019  0.0891  0.1614  0.1797
  542TIP3    H123041   3.261   5.137  14.089 -1.8425  1.0736 -0.8943
  542TIP3    H223042   3.217   4.998  14.049  0.0359  0.1703  0.1057
  543TIP3   OH223043   5.559   3.513  12.748  0.1198  0.0480 -0.4794
  543TIP3    H123044   5.466   3.512  12.773  0.5017  0.0881  0.9987
  543TIP3    H223045   5.559   3.545  12.658 -1.1914  1.6750  0.0679
  544TIP3   OH223046   3.162   4.886   0.228  0.3502  0.3579  0.5294
  544TIP3    H123047   3.090   4.849   0.177 -1.7023  2.4144  1.8503
  544TIP3    H223048   3.193   4.959   0.175  2.0560 -1.0189 -0.4207
  545TIP3   OH223049   2.779   3.878   5.971 -0.3959 -0.2782  0.0753
  545TIP3    H123050   2.840   3.859   6.043  0.9156 -1.3084 -1.2843
  545TIP3    H223051   2.766   3.794   5.928 -0.8331  0.4146 -1.1584
  546TIP3   OH223052   0.817   6.161   2.983 -0.0922  0.5666  0.3334
  546TIP3    H123053   0.802   6.254   2.998  1.7530  1.0568 -0.6588
  546TIP3    H223054   0.839   6.126   3.069 -2.0559  0.7680  0.9423
  547TIP3   OH223055   5.848   4.030   6.552 -0.5018  0.5643 -0.0473
  547TIP3    H123056   5.784   3.959   6.545 -0.3758  0.2368  1.7932
  547TIP3    H223057   5.910   3.999   6.619  0.1075  1.9859  0.0630
  548TIP3   OH223058   2.619   3.033  16.199 -0.5523 -0.1722  0.3800
  548TIP3    H123059   2.550   3.098  16.206  0.5410  1.0116  0.3006
  548TIP3    H223060   2.611   2.998  16.110  1.1534  2.4876 -0.8760
  549TIP3   OH223061   2.002   1.522  17.196 -0.0773  0.1008 -0.0522
  549TIP3    H123062   1.934   1.460  17.219  1.4239 -1.4140  0.3818
  549TIP3    H223063   1.981   1.601  17.246 -2.3616  0.1970 -1.1141
  550TIP3   OH223064   2.621   1.038   4.948 -0.8250 -0.4857 -0.1774
  550TIP3    H123065   2.640   1.084   4.866  1.3870  0.2790  0.7246
  550TIP3    H223066   2.528   1.057   4.965 -0.8728  0.7151 -1.6396
  551TIP3   OH223067   0.365   2.466  12.458  0.4102  0.5784 -0.0703
  551TIP3    H123068   0.395   2.504  12.540 -0.8481  0.8188  0.2814
  551TIP3    H223069   0.446   2.442  12.412  1.1177  0.1454  1.3707
  552TIP3   OH223070   2.998   5.613   4.322 -0.4032 -0.3793 -0.2643
  552TIP3    H123071   2.942   5.657   4.386 -1.0729 -0.7461 -0.5837
  552TIP3    H223072   2.974   5.521   4.329 -0.8637 -0.3590 -1.4026
  553TIP3   OH223073   3.865   5.914  12.520 -0.1280 -0.4186 -0.2611
  553TIP3    H123074   3.817   5.838  12.553 -0.2358  0.2268  1.1220
  553TIP3    H223075   3.811   5.989  12.546  0.7607  0.2122 -0.2224
  554TIP3   OH223076   6.205   5.924  14.204 -0.6273 -0.2944 -0.0608
  554TIP3    H123077   6.203   5.833  14.173 -1.4117 -0.4219  0.3594
  554TIP3    H223078   6.279   5.925  14.266 -1.3027 -0.9230  0.7710
  555TIP3   OH223079   5.952   0.666  11.646  0.2518 -0.1968 -0.2686
  555TIP3    H123080   5.877   0.659  11.704  0.4631  0.3817  0.0839
  555TIP3    H223081   5.978   0.576  11.628  0.2363 -0.3731  0.6071
  556TIP3   OH223082   6.403   1.670  12.449 -0.4116 -0.6234  0.0842
  556TIP3    H123083   6.384   1.760  12.475  1.3213 -0.3785  0.5764
  556TIP3    H223084   6.330   1.645  12.392  0.0346  1.7652 -1.6057
  557TIP3   OH223085   0.927   3.721  13.297 -0.5716 -0.0658  0.5516
  557TIP3    H123086   1.013   3.759  13.315 -0.0220 -0.9302 -0.2225
  557TIP3    H223087   0.924   3.642  13.351 -0.6347 -0.3607  0.1195
  558TIP3   OH223088   5.543   4.549   1.516  0.4611 -0.4739 -0.7285
  558TIP3    H123089   5.470   4.608   1.497  1.0150 -0.4439 -2.8527
  558TIP3    H223090   5.611   4.605   1.552  0.3047 -0.1153 -0.9942
  559TIP3   OH223091   0.592   5.766  15.285 -0.0016  0.3579  0.0860
  559TIP3    H123092   0.579   5.672  15.288  1.2439  0.1321 -1.4680
  559TIP3    H223093   0.575   5.795  15.375  0.5488 -1.4581  0.8005
  560TIP3   OH223094   4.854   4.006   0.947 -0.9022  0.1688  0.1301
  560TIP3    H123095   4.917   4.026   1.016 -2.3608  0.0334  1.5274
  560TIP3    H223096   4.906   4.007   0.867  0.2964  3.2016  0.8630
  561TIP3   OH223097   1.567   5.765   2.785 -0.1446  0.6642  0.4065
  561TIP3    H123098   1.532   5.842   2.829  0.6317  0.9629  0.5109
  561TIP3    H223099   1.514   5.692   2.818 -2.4626  1.4298 -1.4959
  562TIP3   OH223100   0.964   0.408  14.350 -0.0362 -0.4717 -0.2713
  562TIP3    H123101   1.010   0.374  14.273  0.5483  0.6975 -0.4520
  562TIP3    H223102   1.003   0.495  14.365 -0.3455 -0.5690  1.1628
  563TIP3   OH223103   0.945   4.994  14.792 -0.5362 -0.5387  0.2592
  563TIP3    H123104   0.891   4.935  14.844 -2.4369  0.4557 -0.5206
  563TIP3    H223105   0.960   5.069  14.849 -2.2366  0.3488 -0.4161
  564TIP3   OH223106   2.290   2.264  11.988 -0.1337  0.3359  0.5172
  564TIP3    H123107   2.368   2.252  12.043  1.0797  1.6790 -0.8442
  564TIP3    H223108   2.290   2.189  11.929 -0.1402  0.0847  0.8351
  565TIP3   OH223109   2.913   2.317   3.332  0.9653 -0.0665 -0.3922
  565TIP3    H123110   2.875   2.271   3.258 -1.0983  0.4260  0.3383
  565TIP3    H223111   2.998   2.348   3.300  0.7072 -1.0821 -2.0819
  566TIP3   OH223112   5.325   0.198  15.202  0.6030 -0.0552 -0.0713
  566TIP3    H123113   5.242   0.154  15.220  0.7293 -0.3970 -0.3317
  566TIP3    H223114   5.301   0.290  15.189  0.3671 -0.0108  0.6631
  567TIP3   OH223115   6.002   1.458   4.582  0.0804 -0.1166 -0.2699
  567TIP3    H123116   5.918   1.475   4.623 -0.1272  0.6236 -0.9994
  567TIP3    H223117   6.067   1.491   4.644 -0.1592 -0.8174  0.3534
  568TIP3   OH223118   5.854   0.205   3.686  0.9353  0.4021 -0.4666
  568TIP3    H123119   5.782   0.267   3.693  0.4677  0.1806 -2.9035
  568TIP3    H223120   5.827   0.144   3.617  2.3349 -1.2209  0.3648
  569TIP3   OH223121   2.846   4.738   1.219  0.1491 -0.4660  0.3938
  569TIP3    H123122   2.863   4.648   1.248  0.5251 -0.8367 -0.9059
  569TIP3    H223123   2.931   4.770   1.188  0.1111  0.5027  1.2882
  570TIP3   OH223124   6.423   1.551   3.850 -0.3493 -0.1267  0.1522
  570TIP3    H123125   6.511   1.579   3.875 -0.1864 -0.5644  0.0658
  570TIP3    H223126   6.373   1.554   3.932 -0.3742  0.5498  0.1230
  571TIP3   OH223127   6.768   3.830  11.612  0.0157 -0.7094 -0.0434
  571TIP3    H123128   6.795   3.899  11.552  1.2146 -0.7146  0.4734
  571TIP3    H223129   6.738   3.876  11.690 -1.4026 -0.7070 -0.5883
  572TIP3   OH223130   1.925   0.748   0.465 -0.4738 -0.2122  0.2394
  572TIP3    H123131   1.931   0.736   0.371 -0.1951 -2.8199  0.5441
  572TIP3    H223132   1.873   0.827   0.476  3.0567  2.5537 -2.1138
  573TIP3   OH223133   3.456   4.218   2.155 -0.0172 -0.8667  0.5630
  573TIP3    H123134   3.416   4.293   2.199 -0.6116 -1.7840  1.6451
  573TIP3    H223135   3.547   4.242   2.143 -0.2282  0.0696  0.8115
  574TIP3   OH223136   1.453   4.456   0.413  0.0506 -0.6080  0.5323
  574TIP3    H123137   1.449   4.379   0.357  2.8278 -0.3960 -0.0305
  574TIP3    H223138   1.407   4.524   0.364  1.6823 -0.6678 -1.1143
  575TIP3   OH223139   2.366   5.766  13.479  0.3635  0.0932  0.4103
  575TIP3    H123140   2.299   5.701  13.495 -0.9120  1.2572 -0.1072
  575TIP3    H223141   2.412   5.735  13.401  0.9250 -1.0680  1.1747
  576TIP3   OH223142   2.829   2.550  12.093 -0.1810 -0.3197 -0.7204
  576TIP3    H123143   2.859   2.459  12.099  0.5809 -0.0916 -0.9320
  576TIP3    H223144   2.896   2.601  12.140 -0.6620  0.1175 -0.5030
  577TIP3   OH223145   4.422   2.016   4.941 -0.5526 -0.1023  0.1624
  577TIP3    H123146   4.452   2.056   4.859 -0.3461  1.7322  1.0971
  577TIP3    H223147   4.502   1.987   4.984 -0.5337  0.2527  0.3702
  578TIP3   OH223148   5.278   5.773  15.979  0.1554 -0.1844 -0.5876
  578TIP3    H123149   5.237   5.834  15.918  1.1761  1.6813  0.5648
  578TIP3    H223150   5.320   5.707  15.923 -0.2320  0.6338 -1.8526
  579TIP3   OH223151   3.556   5.104  17.039  0.1564 -0.8092 -0.3966
  579TIP3    H123152   3.577   5.171  17.104  1.4223 -1.0111 -0.5950
  579TIP3    H223153   3.494   5.147  16.979 -1.6677 -0.8652  1.3756
  580TIP3   OH223154   6.342   0.559  13.988 -0.3227 -0.1379  0.0014
  580TIP3    H123155   6.396   0.569  13.910  0.4211 -1.2027  0.3721
  580TIP3    H223156   6.397   0.592  14.059  0.1812 -2.0123  0.5033
  581TIP3   OH223157   2.053   0.956  15.110  0.4696 -0.1418  0.3924
  581TIP3    H123158   2.105   0.914  15.042  0.2315 -0.7129  0.5643
  581TIP3    H223159   2.113   1.018  15.152  0.9225 -0.5731  0.3876
  582TIP3   OH223160   5.167   2.627  15.000 -0.2609  0.7178  0.0413
  582TIP3    H123161   5.119   2.640  15.082  0.7239  1.8172  0.4600
  582TIP3    H223162   5.203   2.713  14.980  0.9983  0.0500 -0.6075
  583TIP3   OH223163   2.209   5.629  13.933 -0.3160 -0.2157 -0.6988
  583TIP3    H123164   2.264   5.699  13.898 -1.1523  0.8808  0.1248
  583TIP3    H223165   2.119   5.657  13.914 -0.7236 -0.3133  0.9536
  584TIP3   OH223166   1.295   6.355   3.723 -0.0134  0.3599 -0.0017
  584TIP3    H123167   1.276   6.436   3.770 -1.8815  0.4787 -0.9109
  584TIP3    H223168   1.257   6.286   3.778  0.2365  0.2439  0.0262
  585TIP3   OH223169   4.649   0.538   3.087  0.1258  0.0209 -0.8025
  585TIP3    H123170   4.578   0.484   3.123 -0.4183  1.1177 -0.1834
  585TIP3    H223171   4.700   0.478   3.032  0.3051 -1.4272  0.8949
  586TIP3   OH223172   6.034   5.010   1.150 -0.0266 -0.2302  0.1869
  586TIP3    H123173   5.985   4.931   1.174 -1.4617  0.5403 -0.1237
  586TIP3    H223174   6.104   4.978   1.093 -0.5596 -1.2891  0.0985
  587TIP3   OH223175   0.815   5.890   5.663 -0.5269 -0.7783 -0.1113
  587TIP3    H123176   0.764   5.937   5.597 -0.0265 -0.3738 -0.2085
  587TIP3    H223177   0.878   5.954   5.695  0.1394 -1.3793 -0.2174
  588TIP3   OH223178   5.710   6.093  13.296  0.2297 -0.3763  0.0652
  588TIP3    H123179   5.668   6.174  13.323  2.1317 -0.0140  2.0754
  588TIP3    H223180   5.649   6.054  13.233 -1.4163  1.8312  0.2403
  589TIP3   OH223181   2.167   3.702  15.064  0.3948 -0.0531 -0.4846
  589TIP3    H123182   2.205   3.746  15.140 -0.7232  0.2438 -0.0913
  589TIP3    H223183   2.205   3.614  15.067  2.6101  0.8269 -1.2627
  590TIP3   OH223184   0.055   5.054  14.452  1.1368 -0.2034  0.5754
  590TIP3    H123185   0.120   5.123  14.444  0.3668  0.5589  0.8796
  590TIP3    H223186   0.027   5.058  14.544 -2.3370  2.2015 -0.4935
  591TIP3   OH223187   2.212   0.340   5.288  0.8526  0.2398 -0.2831
  591TIP3    H123188   2.210   0.287   5.208 -0.5764 -0.5576  0.2828
  591TIP3    H223189   2.274   0.295   5.345 -0.7502 -1.1273  0.3997
  592TIP3   OH223190   4.283   0.365   5.564  0.4114 -0.1535  0.2188
  592TIP3    H123191   4.256   0.417   5.640 -0.6054 -1.1179  0.5281
  592TIP3    H223192   4.288   0.429   5.492 -0.3812  0.4518  0.6926
  593TIP3   OH223193   3.186   2.397   4.831  0.1066 -0.2593  0.0071
  593TIP3    H123194   3.255   2.456   4.802  0.6137 -1.0481 -0.3962
  593TIP3    H223195   3.225   2.346   4.902 -0.1257 -0.5551 -0.0743
  594TIP3   OH223196   0.868   3.074  16.008 -0.3962  0.2050 -0.3858
  594TIP3    H123197   0.782   3.078  15.966 -0.8681 -0.3358  0.5250
  594TIP3    H223198   0.922   3.137  15.959 -1.2552  0.4120 -1.0689
  595TIP3   OH223199   5.889   4.817   0.197 -0.1967 -0.2361 -0.0906
  595TIP3    H123200   5.956   4.886   0.190  0.7054 -0.9156  1.6946
  595TIP3    H223201   5.823   4.853   0.256 -0.2237 -0.5065  0.0452
  596TIP3   OH223202   3.324   3.201  12.634  0.2215  0.1765 -0.2227
  596TIP3    H123203   3.290   3.142  12.701  1.0369 -0.3727 -0.2756
  596TIP3    H223204   3.327   3.148  12.554 -0.3700  0.7088 -0.6043
  597TIP3   OH223205   6.502   2.762   5.494  0.5836 -0.1014 -0.0400
  597TIP3    H123206   6.406   2.765   5.498  0.5511  0.5086 -1.0070
  597TIP3    H223207   6.521   2.683   5.444  0.6025 -0.5144  0.6171
  598TIP3   OH223208   5.866   1.117  17.151 -0.3337 -0.0381  0.4793
  598TIP3    H123209   5.894   1.099  17.062  0.6515 -0.9885  0.9723
  598TIP3    H223210   5.872   1.033  17.196 -1.6276  0.2472  1.2327
  599TIP3   OH223211   0.821   3.904   1.367 -0.2471  0.1028  0.0428
  599TIP3    H123212   0.751   3.840   1.355  0.4148 -0.6781  0.3207
  599TIP3    H223213   0.831   3.912   1.462  1.1608 -1.0288  0.0063
  600TIP3   OH223214   4.231   5.977   4.875 -0.5519  0.2447 -0.0708
  600TIP3    H123215   4.283   6.019   4.944 -3.2257  1.6275  1.1904
  600TIP3    H223216   4.253   5.884   4.881  1.8673  0.8155  0.2988
  601TIP3   OH223217   2.905   4.566  12.723  0.0886  0.0838 -0.4077
  601TIP3    H123218   2.874   4.478  12.702 -0.5096  0.4208 -0.9639
  601TIP3    H223219   3.000   4.562  12.711  0.0496 -0.4639 -0.5227
  602TIP3   OH223220   4.954   0.625   4.476 -0.0864 -0.1261  0.1159
  602TIP3    H123221   4.919   0.706   4.439  0.4013  0.6260  1.2812
  602TIP3    H223222   5.003   0.652   4.553 -0.3143 -1.5845  0.8040
  603TIP3   OH223223   3.153   5.932  13.732  0.0183  0.4711  0.2292
  603TIP3    H123224   3.211   5.954  13.659 -1.6717 -1.1102 -1.6638
  603TIP3    H223225   3.119   5.845  13.710 -0.7985  0.1142  2.7470
  604TIP3   OH223226   1.023   6.528  13.165 -0.6636 -0.9119  0.4554
  604TIP3    H123227   1.029   6.571  13.079  0.0567 -1.2626  0.3281
  604TIP3    H223228   1.109   6.489  13.178 -1.2454 -2.1324  0.6734
  605TIP3   OH223229   6.537   6.357   3.170  0.0105  0.3605  0.2112
  605TIP3    H123230   6.582   6.295   3.113 -0.0038 -0.4018  1.0064
  605TIP3    H223231   6.576   6.342   3.256 -0.5726  0.8844  0.5709
  606TIP3   OH223232   5.378   2.596  14.107 -0.5546  0.0812  0.0730
  606TIP3    H123233   5.370   2.623  14.015 -1.5649 -1.2739 -0.2661
  606TIP3    H223234   5.318   2.654  14.154 -0.6648  0.2375 -0.2539
  607TIP3   OH223235   2.186   3.126  10.883 -0.4910 -0.4315  0.1058
  607TIP3    H123236   2.094   3.114  10.904 -0.2228 -1.7524  0.5071
  607TIP3    H223237   2.186   3.156  10.792 -1.2574 -1.6317 -0.2958
  608TIP3   OH223238   0.468   0.124  13.243 -0.3396 -0.0006  0.1516
  608TIP3    H123239   0.559   0.097  13.251 -0.2861 -0.3220 -1.4815
  608TIP3    H223240   0.468   0.187  13.171 -1.4866 -0.4033 -0.2115
  609TIP3   OH223241   2.387   6.187  16.419  0.1739 -0.2153  0.1260
  609TIP3    H123242   2.327   6.181  16.345 -0.8323 -0.8475  0.9726
  609TIP3    H223243   2.452   6.118  16.403 -0.0018 -0.3059 -0.2077
  610TIP3   OH223244   4.274   1.866   1.984  0.4539  0.0170 -0.7122
  610TIP3    H123245   4.215   1.832   2.051 -0.1567 -0.2777 -1.3819
  610TIP3    H223246   4.343   1.911   2.032 -0.8925  1.2953  0.0523
  611TIP3   OH223247   4.411   0.752  11.683  0.3442 -0.0906 -0.2352
  611TIP3    H123248   4.405   0.657  11.692 -1.5436 -0.1281 -1.5982
  611TIP3    H223249   4.473   0.779  11.751 -2.4450 -1.8344  3.1583
  612TIP3   OH223250   5.447   5.631  11.209 -0.0185  0.4598 -0.5839
  612TIP3    H123251   5.436   5.651  11.302 -1.2566  0.4448 -0.7156
  612TIP3    H223252   5.422   5.713  11.165 -1.5530 -0.2165 -0.9853
  613TIP3   OH223253   5.817   4.722  12.276 -0.8525  0.9608 -0.7459
  613TIP3    H123254   5.756   4.649  12.268 -0.2543  0.6130 -2.4335
  613TIP3    H223255   5.842   4.742  12.186  0.9558  1.5794 -0.1321
  614TIP3   OH223256   0.293   3.391  13.943  0.4663 -0.1785  0.0269
  614TIP3    H123257   0.383   3.420  13.929  0.4064  0.7628  1.4483
  614TIP3    H223258   0.240   3.451  13.891  0.5605  0.2118  0.3819
  615TIP3   OH223259   5.633   1.448  12.302  0.0296 -0.0716 -0.5166
  615TIP3    H123260   5.703   1.402  12.350  1.0216  1.3699 -0.5442
  615TIP3    H223261   5.612   1.390  12.229 -2.5182 -3.0138  2.3662
  616TIP3   OH223262   6.723   5.596  15.891  0.1138 -0.3385 -0.4783
  616TIP3    H123263   6.766   5.515  15.919  0.4046 -0.5425 -1.4859
  616TIP3    H223264   6.764   5.665  15.943 -0.1910 -0.8511  0.4366
  617TIP3   OH223265   1.180   6.336  11.371  0.6310 -0.1207 -0.5938
  617TIP3    H123266   1.104   6.278  11.380  0.0695  0.8612  1.2189
  617TIP3    H223267   1.154   6.398  11.303  0.5980 -1.0028 -1.3932
  618TIP3   OH223268   3.228   1.647   1.411 -0.4454  0.1293 -0.0805
  618TIP3    H123269   3.219   1.629   1.504 -0.7422  0.3865 -0.0577
  618TIP3    H223270   3.199   1.738   1.401  0.6028  0.4540 -0.2587
  619TIP3   OH223271   2.787   4.837   3.700 -0.2006  0.7265 -0.1515
  619TIP3    H123272   2.693   4.852   3.700  0.2424  3.9368  0.0286
  619TIP3    H223273   2.807   4.806   3.612 -1.3188  0.8219 -0.4377
  620TIP3   OH223274   0.902   0.945   5.582  0.2344  0.2443 -0.7746
  620TIP3    H123275   0.934   0.903   5.662 -1.8729  0.4827  0.2013
  620TIP3    H223276   0.926   1.037   5.592  2.7551 -0.2626 -1.8524
  621TIP3   OH223277   5.302   2.483   4.581 -0.5319 -0.0272  0.5063
  621TIP3    H123278   5.231   2.539   4.552  0.1727 -0.0532 -1.3305
  621TIP3    H223279   5.293   2.403   4.528  0.5958 -0.1980  0.5627
  622TIP3   OH223280   0.947   4.097   0.554  0.1496  0.1687  0.2055
  622TIP3    H123281   0.918   4.104   0.463 -1.2380 -1.8877  0.4494
  622TIP3    H223282   0.897   4.164   0.600  1.5257  1.8382 -0.6807
  623TIP3   OH223283   2.766   0.895  11.200  0.1934  0.1100 -0.0882
  623TIP3    H123284   2.745   0.880  11.292  2.2927 -0.8818  0.2721
  623TIP3    H223285   2.714   0.971  11.175 -3.0265 -1.6671  0.9402
  624TIP3   OH223286   4.310   0.743  17.043 -0.4663 -0.2813 -0.0230
  624TIP3    H123287   4.290   0.786  16.959  0.8448 -0.3302 -0.3748
  624TIP3    H223288   4.317   0.815  17.106 -0.8087 -0.1898 -0.0911
  625TIP3   OH223289   5.979   1.210  14.003 -0.5607 -0.7931  0.8933
  625TIP3    H123290   6.007   1.298  14.026 -2.1626 -0.0101 -0.0064
  625TIP3    H223291   5.988   1.206  13.908  0.7350 -2.0658  1.0501
  626TIP3   OH223292   3.182   2.535  11.227 -0.5140 -0.0099  0.0980
  626TIP3    H123293   3.257   2.557  11.282 -1.2395 -0.6699  1.3879
  626TIP3    H223294   3.182   2.440  11.225 -1.1613 -0.0032 -0.1074
  627TIP3   OH223295   5.584   3.479   2.151 -0.0081 -0.3432 -0.3182
  627TIP3    H123296   5.575   3.566   2.190 -0.5670 -1.9822  3.3613
  627TIP3    H223297   5.638   3.494   2.073 -1.8149  3.5971 -0.9564
  628TIP3   OH223298   3.226   5.816  14.521 -0.0700  0.8226 -0.3237
  628TIP3    H123299   3.167   5.762  14.469 -0.3877  2.0512 -1.2601
  628TIP3    H223300   3.312   5.775  14.510 -0.4465  0.0357 -0.3470
  629TIP3   OH223301   2.732   4.757   0.017 -0.3207 -0.0468  0.1483
  629TIP3    H123302   2.703   4.672  -0.016 -0.6082 -0.6067  1.8298
  629TIP3    H223303   2.652   4.809   0.026 -0.3657 -0.2566  0.9860
  630TIP3   OH223304   4.290   4.312   4.448  0.0640 -0.7172  0.2194
  630TIP3    H123305   4.364   4.280   4.501  1.0141  0.3668 -0.4374
  630TIP3    H223306   4.305   4.276   4.361  1.6884  2.2412 -0.7948
  631TIP3   OH223307   2.378   2.433   3.144  0.0694 -0.2224  0.0668
  631TIP3    H123308   2.467   2.413   3.116  0.6592  0.0831  1.6860
  631TIP3    H223309   2.330   2.351   3.132  0.5174 -0.3419 -0.9552
  632TIP3   OH223310   4.266   4.099  11.804 -0.3355  0.0485 -0.0909
  632TIP3    H123311   4.254   4.022  11.860  0.0162 -0.1503 -0.2887
  632TIP3    H223312   4.360   4.114  11.803 -0.4013  0.4536 -0.0908
  633TIP3   OH223313   4.393   0.896  12.368  0.0124 -0.8532  0.3947
  633TIP3    H123314   4.363   0.986  12.373  1.3148 -0.4197  0.7787
  633TIP3    H223315   4.447   0.893  12.289 -0.1025 -1.3162  0.3321
  634TIP3   OH223316   5.282   2.945  14.071 -0.6361 -0.0329  0.2436
  634TIP3    H123317   5.242   2.938  14.158 -0.6976 -1.3706  0.1123
  634TIP3    H223318   5.216   2.992  14.019 -0.3802  1.2259  1.0475
  635TIP3   OH223319   5.718   2.909  16.235 -0.0559  0.0463  0.1000
  635TIP3    H123320   5.657   2.842  16.203  1.4124 -0.8476 -0.9261
  635TIP3    H223321   5.790   2.906  16.173  0.8092  1.4222  1.0276
  636TIP3   OH223322   4.329   1.126  13.578 -0.1032  0.5307 -0.0148
  636TIP3    H123323   4.311   1.178  13.657  0.2080  0.7279 -0.0737
  636TIP3    H223324   4.283   1.173  13.508  0.7350  1.0966 -0.1842
  637TIP3   OH223325   1.009   1.000  15.657 -0.1954  0.2313 -0.1357
  637TIP3    H123326   0.923   1.019  15.694  0.3369  2.7401 -0.1057
  637TIP3    H223327   1.007   1.039  15.569  0.2325 -1.4533 -0.9140
  638TIP3   OH223328   5.402   3.308   0.856 -0.6134  0.6544 -0.0871
  638TIP3    H123329   5.360   3.329   0.773  1.6294 -1.7176 -1.9088
  638TIP3    H223330   5.365   3.224   0.881  0.6128  0.1032 -0.0597
  639TIP3   OH223331   3.600   4.505   0.293 -0.7548 -0.5814 -0.0702
  639TIP3    H123332   3.643   4.589   0.306 -0.3485 -0.6707 -0.8555
  639TIP3    H223333   3.559   4.511   0.207 -0.6589 -1.2207 -0.1660
  640TIP3   OH223334   5.437   1.746   1.645  0.2031 -0.0786  0.1782
  640TIP3    H123335   5.419   1.732   1.552 -0.2413  0.5997  0.1590
  640TIP3    H223336   5.417   1.838   1.660  2.0934  0.2950  0.5408
  641TIP3   OH223337   3.465   4.965   5.904 -0.7407 -0.0039 -0.1798
  641TIP3    H123338   3.555   4.974   5.936 -0.8202  1.1886 -0.2784
  641TIP3    H223339   3.471   4.898   5.836  0.4299  1.4074 -1.5156
  642TIP3   OH223340   3.307   4.887   0.595  0.3648  0.1792  0.0343
  642TIP3    H123341   3.331   4.819   0.658 -1.4238 -1.0768 -0.6039
  642TIP3    H223342   3.287   4.964   0.648 -0.1403 -0.5699  0.9411
  643TIP3   OH223343   1.156   4.094   2.014 -0.4953  0.0862 -0.1812
  643TIP3    H123344   1.166   4.164   1.948 -2.1263  0.2265 -0.2913
  643TIP3    H223345   1.144   4.014   1.963 -0.4741 -0.0000 -0.0516
  644TIP3   OH223346   0.102   0.811   1.040 -0.4182 -0.6881 -0.3285
  644TIP3    H123347   0.050   0.886   1.070  1.1875  0.2442  0.1585
  644TIP3    H223348   0.130   0.835   0.952  1.8182  0.2258  0.5904
  645TIP3   OH223349   0.227   6.282   3.544 -0.1951 -0.4314  0.1990
  645TIP3    H123350   0.209   6.253   3.633  1.0072 -0.3026  0.5048
  645TIP3    H223351   0.320   6.263   3.531 -0.4625 -0.8675 -1.1902
  646TIP3   OH223352   5.550   2.015  16.465  0.2402 -0.4198  0.4310
  646TIP3    H123353   5.530   1.997  16.556  0.7015  0.9357  0.8139
  646TIP3    H223354   5.633   2.063  16.468 -1.5326  2.8621 -0.4297
  647TIP3   OH223355   6.784   4.774   6.117 -0.7427  0.4604  0.3173
  647TIP3    H123356   6.785   4.820   6.033 -2.9075 -0.1151 -0.0685
  647TIP3    H223357   6.691   4.757   6.133 -0.2974  0.0156  2.5330
  648TIP3   OH223358   4.236   0.768  12.910 -0.2235 -0.4174  0.0745
  648TIP3    H123359   4.142   0.762  12.892  0.1112 -0.5422 -1.6257
  648TIP3    H223360   4.257   0.861  12.898 -0.1399 -0.3700  0.5632
  649TIP3   OH223361   1.969   3.618   6.932 -0.5498  0.0987  0.2627
  649TIP3    H123362   1.968   3.714   6.924  0.5929  0.1453  0.5162
  649TIP3    H223363   2.044   3.590   6.879 -0.7843 -0.6412  0.3167
  650TIP3   OH223364   0.552   1.948   4.452  0.0531  0.4604 -0.1547
  650TIP3    H123365   0.647   1.953   4.446  0.0693 -0.2890 -0.5205
  650TIP3    H223366   0.535   1.888   4.524 -0.1231 -1.8878 -2.0870
  651TIP3   OH223367   0.795   4.507   4.651 -0.4779  0.7470 -0.5684
  651TIP3    H123368   0.731   4.570   4.618 -0.2318  0.2878 -1.9582
  651TIP3    H223369   0.880   4.544   4.626 -0.1007  1.8480  2.1160
  652TIP3   OH223370   0.264   2.042   0.541 -0.2718 -0.1721 -0.1478
  652TIP3    H123371   0.222   1.963   0.505  0.3335 -0.3334 -0.5126
  652TIP3    H223372   0.198   2.110   0.531 -0.5669 -0.4912 -0.4273
  653TIP3   OH223373   1.323   3.231  15.845  0.2153 -0.0612 -0.1457
  653TIP3    H123374   1.371   3.168  15.898  1.5104  0.0260 -1.1926
  653TIP3    H223375   1.232   3.224  15.876 -0.0675 -3.8512 -1.5735
  654TIP3   OH223376   3.493   3.303  14.951  0.0883  0.2412 -0.0252
  654TIP3    H123377   3.538   3.238  14.897 -1.0256  0.9444 -1.8395
  654TIP3    H223378   3.529   3.290  15.039  0.3425 -2.3966 -0.4794
  655TIP3   OH223379   2.027   1.372  16.540  0.0383 -0.5411 -0.5717
  655TIP3    H123380   1.969   1.448  16.538 -0.3757 -0.8827 -1.6225
  655TIP3    H223381   2.111   1.405  16.508 -0.6427 -0.9406 -2.8447
  656TIP3   OH223382   3.771   3.056   4.369 -0.6797 -0.2618 -0.1668
  656TIP3    H123383   3.753   3.044   4.462  0.0643  0.7093  0.1096
  656TIP3    H223384   3.685   3.052   4.327 -1.4596  3.0588  0.9892
  657TIP3   OH223385   1.893   5.047  11.745  1.0556  0.6560  0.1341
  657TIP3    H123386   1.822   5.039  11.809 -0.5356  0.6499 -1.5744
  657TIP3    H223387   1.963   5.093  11.792 -0.4829  1.6199  1.5411
  658TIP3   OH223388   6.459   6.546   2.981  0.0360 -0.0091 -0.0353
  658TIP3    H123389   6.462   6.479   3.049 -0.9950 -0.0711 -0.0532
  658TIP3    H223390   6.369   6.546   2.951  0.6092 -0.3721 -1.8130
  659TIP3   OH223391   5.558   2.631  16.673 -0.2275  0.0441  0.3848
  659TIP3    H123392   5.625   2.685  16.631 -0.4853 -0.3892 -0.6037
  659TIP3    H223393   5.556   2.550  16.622 -0.9151 -0.2865  0.9165
  660TIP3   OH223394   6.331   1.818   2.968  0.6006  0.9152 -0.7299
  660TIP3    H123395   6.258   1.780   2.919  1.5562 -0.7950 -0.8522
  660TIP3    H223396   6.316   1.790   3.058  1.1240  0.5234 -0.7634
  661TIP3   OH223397   0.478   2.447   5.635  0.0595 -0.2365 -0.1395
  661TIP3    H123398   0.528   2.369   5.612  2.7322  0.6412  2.3060
  661TIP3    H223399   0.543   2.506   5.674 -2.0186  2.9082 -1.2501
  662TIP3   OH223400   0.861   4.917  16.846  0.1451 -0.5513 -0.8783
  662TIP3    H123401   0.833   4.843  16.792 -1.3191 -0.3377 -0.4219
  662TIP3    H223402   0.884   4.985  16.783 -2.0429 -0.1277 -1.2651
  663TIP3   OH223403   0.804   4.784  13.664 -0.2366  0.3193  0.5728
  663TIP3    H123404   0.896   4.767  13.684  0.3113  1.2460 -1.0502
  663TIP3    H223405   0.790   4.875  13.690  0.0061  0.9729 -1.4981
  664TIP3   OH223406   2.202   2.695   3.136 -0.1408  0.1084 -0.2119
  664TIP3    H123407   2.279   2.749   3.117 -0.6477  0.1078 -2.3788
  664TIP3    H223408   2.236   2.607   3.147  0.1778  0.1096 -1.1715
  665TIP3   OH223409   6.726   3.346   2.394 -0.4858  0.3365  0.4803
  665TIP3    H123410   6.800   3.288   2.406  0.9218  2.2313  1.1489
  665TIP3    H223411   6.649   3.288   2.397  0.9701 -1.7135 -0.8716
  666TIP3   OH223412   2.311   0.495  11.294  0.1172 -0.0524  0.3205
  666TIP3    H123413   2.334   0.510  11.386 -0.3647 -0.5824  0.5301
  666TIP3    H223414   2.264   0.574  11.268 -3.4419 -1.5988  1.7609
  667TIP3   OH223415   3.765   4.163  14.537 -0.2333  0.7993 -0.8321
  667TIP3    H123416   3.807   4.193  14.457  0.6300 -3.3217 -2.0776
  667TIP3    H223417   3.709   4.090  14.509 -1.1785  0.3193  2.0721
  668TIP3   OH223418   3.133   2.961  13.140  0.6044  0.1448  0.0440
  668TIP3    H123419   3.103   3.048  13.166 -1.0274 -0.8801  1.6916
  668TIP3    H223420   3.166   2.922  13.221 -3.3593 -2.6160  0.4510
  669TIP3   OH223421   4.217   6.540  16.405 -0.6435  0.3312  0.3978
  669TIP3    H123422   4.157   6.486  16.458 -0.5409  1.9029  2.1731
  669TIP3    H223423   4.288   6.562  16.465  0.7120  0.1683 -1.1174
  670TIP3   OH223424   6.280   5.550   1.701  0.4197 -0.0164  0.1322
  670TIP3    H123425   6.364   5.523   1.739 -0.1782 -0.2834  1.3152
  670TIP3    H223426   6.217   5.533   1.771 -0.4967  0.9952 -0.4414
  671TIP3   OH223427   1.561   1.780   2.092 -0.4461 -0.9919 -0.2971
  671TIP3    H123428   1.557   1.867   2.132  1.0209 -0.3370 -1.5691
  671TIP3    H223429   1.610   1.727   2.156  0.4277 -0.3744 -0.4534
  672TIP3   OH223430   5.036   5.676   2.801  0.0173 -0.2516 -0.6500
  672TIP3    H123431   5.099   5.695   2.732  0.6507  0.3605  0.0968
  672TIP3    H223432   5.008   5.761   2.833  0.9239 -0.5251  0.9324
  673TIP3   OH223433   0.824   5.456  14.322  0.0268  0.2132  0.2155
  673TIP3    H123434   0.901   5.508  14.344  0.5115 -0.5880  0.4354
  673TIP3    H223435   0.840   5.428  14.231 -0.2094  0.4179  0.1132
  674TIP3   OH223436   0.682   0.607  13.778  0.4845 -0.6853  0.1528
  674TIP3    H123437   0.706   0.627  13.687  0.5105  0.1863  0.3471
  674TIP3    H223438   0.596   0.567  13.772 -0.9080  2.2150 -0.0223
  675TIP3   OH223439   2.569   4.176   0.170  0.3763  0.5123 -0.3004
  675TIP3    H123440   2.514   4.116   0.119  0.4751 -0.0342  0.2367
  675TIP3    H223441   2.652   4.178   0.123 -0.2490  1.7336 -1.4031
  676TIP3   OH223442   0.450   5.610   0.458 -0.5113  0.6872  0.4996
  676TIP3    H123443   0.504   5.573   0.389 -0.6423 -0.5885  1.0602
  676TIP3    H223444   0.361   5.580   0.438 -0.3069 -1.0768  2.1068
  677TIP3   OH223445   5.538   5.266   1.589  0.0395 -0.1321  0.0417
  677TIP3    H123446   5.448   5.277   1.559  0.4249 -1.7827 -1.8466
  677TIP3    H223447   5.588   5.331   1.540 -0.0864  0.5687  0.8500
  678TIP3   OH223448   1.043   2.767  14.207 -0.0398  0.0225  0.3749
  678TIP3    H123449   1.094   2.835  14.253 -0.0664  0.6379 -0.4965
  678TIP3    H223450   1.005   2.813  14.132 -0.0339 -0.9766 -0.2373
  679TIP3   OH223451   5.246   2.768  11.594 -0.8452  0.2748  0.1014
  679TIP3    H123452   5.341   2.780  11.595 -0.7953  0.1085 -1.2350
  679TIP3    H223453   5.234   2.673  11.591 -1.0580  0.2940  0.3005
  680TIP3   OH223454   1.330   0.730  14.775 -0.3449  0.4309 -0.2370
  680TIP3    H123455   1.287   0.739  14.690 -0.3271 -2.5130 -0.6039
  680TIP3    H223456   1.258   0.716  14.837 -0.2326  0.8306 -0.0101
  681TIP3   OH223457   6.669   6.200   1.271 -0.7605 -0.0265  0.3014
  681TIP3    H123458   6.638   6.191   1.362  0.5141  3.2048  1.1294
  681TIP3    H223459   6.614   6.270   1.235  1.3023  1.4152 -0.1489
  682TIP3   OH223460   3.071   5.628  13.145 -0.0712  0.7123  0.2406
  682TIP3    H123461   3.029   5.583  13.072 -0.0906 -0.6717  1.0863
  682TIP3    H223462   3.117   5.701  13.104 -0.1032 -0.0192 -1.1482
  683TIP3   OH223463   3.352   3.875   4.522 -0.4106  0.5440 -0.0308
  683TIP3    H123464   3.316   3.955   4.560 -0.3020  0.8862 -0.6394
  683TIP3    H223465   3.312   3.871   4.435 -1.6112 -0.8687  0.5617
  684TIP3   OH223466   3.426   6.339  14.486 -0.1399 -0.3287  0.6919
  684TIP3    H123467   3.373   6.337  14.406  1.0176  0.4466 -0.1096
  684TIP3    H223468   3.493   6.405  14.469  1.8806 -2.1911  1.1760
  685TIP3   OH223469   2.400   0.532  15.699  0.5020 -0.4615 -0.0720
  685TIP3    H123470   2.369   0.460  15.755  1.0086  0.8068  1.8841
  685TIP3    H223471   2.492   0.513  15.685  0.3831 -0.7609 -0.4705
  686TIP3   OH223472   0.344   2.816   2.459 -0.1240  0.5641 -0.1612
  686TIP3    H123473   0.388   2.744   2.504  1.1586  0.6651 -1.2273
  686TIP3    H223474   0.395   2.893   2.483  0.1830  0.7107 -1.2719
  687TIP3   OH223475   3.824   0.502   5.361  0.2408 -0.3191 -0.3195
  687TIP3    H123476   3.733   0.531   5.357  0.3769  0.4976  1.6042
  687TIP3    H223477   3.869   0.570   5.412  1.9163 -0.7268 -1.1976
  688TIP3   OH223478   6.036   3.410  14.493 -0.3716 -0.3445  0.4473
  688TIP3    H123479   6.039   3.494  14.446 -1.1159 -0.1854  0.6895
  688TIP3    H223480   5.943   3.388  14.497 -0.1660 -1.2753  0.2235
  689TIP3   OH223481   2.479   0.587  13.109 -0.5009  0.1898 -0.8806
  689TIP3    H123482   2.450   0.497  13.090 -1.4949  0.1627  0.6030
  689TIP3    H223483   2.404   0.642  13.086 -0.9463  0.3475  0.8703
  690TIP3   OH223484   4.957   5.905  14.978 -0.0122 -0.3851  0.3137
  690TIP3    H123485   4.959   5.999  14.995 -1.0511 -0.4706  0.9396
  690TIP3    H223486   5.038   5.887  14.930 -0.3103  1.0065 -0.7188
  691TIP3   OH223487   3.675   3.144  14.824 -0.1104  0.1636 -0.0676
  691TIP3    H123488   3.691   3.188  14.741 -1.6105  0.9401  0.0296
  691TIP3    H223489   3.753   3.090  14.838  1.0956  1.6091 -0.9520
  692TIP3   OH223490   4.004   3.347   1.763  0.0548 -0.4054  0.2800
  692TIP3    H123491   4.084   3.305   1.731 -0.3812 -0.1173 -1.2136
  692TIP3    H223492   4.035   3.428   1.804  0.4174  0.3435 -1.4450
  693TIP3   OH223493   0.284   4.617   2.622  0.2018  0.6776  0.3507
  693TIP3    H123494   0.262   4.589   2.711 -2.0321  1.6196  0.1246
  693TIP3    H223495   0.334   4.544   2.586 -2.3516 -1.4953  1.0225
  694TIP3   OH223496   3.420   5.792  11.117 -0.1303  0.1638  0.3850
  694TIP3    H123497   3.485   5.809  11.185 -0.8838 -0.1644  1.1973
  694TIP3    H223498   3.436   5.859  11.051  0.3024  0.7774  1.1097
  695TIP3   OH223499   0.169   1.177   4.687  0.5074 -0.2288  0.0450
  695TIP3    H123500   0.198   1.092   4.720  0.4237 -0.6870 -1.0437
  695TIP3    H223501   0.092   1.156   4.633  0.8965  0.4678 -0.7795
  696TIP3   OH223502   2.985   3.900  13.650 -0.1218 -0.4567 -0.0697
  696TIP3    H123503   3.061   3.946  13.687  0.9924 -1.6372 -0.8322
  696TIP3    H223504   3.002   3.808  13.668 -0.3523 -0.9159 -2.0667
  697TIP3   OH223505   6.034   6.634   1.116  0.2840 -0.5010  0.0065
  697TIP3    H123506   6.057   6.712   1.167  1.6262 -0.7512 -0.1847
  697TIP3    H223507   6.109   6.622   1.057 -0.5510 -1.1154 -0.9400
  698TIP3   OH223508   4.734   3.294   3.392 -0.0834  0.1326 -0.1004
  698TIP3    H123509   4.786   3.343   3.456 -0.5374 -0.8139  1.0029
  698TIP3    H223510   4.677   3.361   3.353  2.7485  1.4215 -2.2190
  699TIP3   OH223511   5.041   2.235   5.768  0.3806 -0.2081 -0.3419
  699TIP3    H123512   5.096   2.313   5.761 -0.4903  0.2084 -3.5325
  699TIP3    H223513   4.951   2.269   5.763 -0.2327 -1.0062  3.3854
  700TIP3   OH223514   3.132   2.020  16.660  0.2038 -0.0431 -0.1295
  700TIP3    H123515   3.214   2.014  16.709 -0.5441 -2.0418  0.9437
  700TIP3    H223516   3.074   2.072  16.717  0.6263  1.0964 -0.7391
  701TIP3   OH223517   4.319   0.709  13.983  0.0459 -0.9140  0.2215
  701TIP3    H123518   4.314   0.802  14.001 -2.2137 -1.2063  1.1976
  701TIP3    H223519   4.234   0.686  13.945  1.0662 -2.3193 -1.3533
  702TIP3   OH223520   5.463   0.291   2.130  0.4740  0.8982 -0.2318
  702TIP3    H123521   5.537   0.236   2.155  1.7450  1.5195 -2.4801
  702TIP3    H223522   5.413   0.303   2.211  1.8361 -1.0173  0.9239
  703TIP3   OH223523   4.169   0.460  15.140  0.4301 -0.3246  0.4534
  703TIP3    H123524   4.255   0.494  15.163  1.4418 -2.4801 -0.0125
  703TIP3    H223525   4.109   0.500  15.203  1.5501  2.2435 -0.0716
  704TIP3   OH223526   6.141   1.593  13.444 -0.0357  0.2032 -0.1903
  704TIP3    H123527   6.175   1.630  13.362  0.0906  1.1300  0.2717
  704TIP3    H223528   6.165   1.657  13.510  0.9099 -1.1086  0.7605
  705TIP3   OH223529   5.455   5.764   1.967  0.1121  0.7466  0.2435
  705TIP3    H123530   5.423   5.799   2.050 -1.3670  0.1082 -0.0369
  705TIP3    H223531   5.510   5.833   1.931 -1.5269  2.1596  0.4128
  706TIP3   OH223532   5.676   5.656   0.135 -0.7567  0.2715 -0.0158
  706TIP3    H123533   5.667   5.563   0.159  0.7962 -0.4507 -2.0705
  706TIP3    H223534   5.764   5.679   0.164 -1.4269  1.3492  1.1900
  707TIP3   OH223535   5.341   3.276  12.950 -0.0871  0.3884 -0.2666
  707TIP3    H123536   5.361   3.306  13.038 -0.6972  1.9868 -0.6578
  707TIP3    H223537   5.297   3.350  12.909 -0.6395 -0.6651 -1.6152
  708TIP3   OH223538   4.842   4.480   3.267  0.7898 -0.3798  0.1418
  708TIP3    H123539   4.832   4.573   3.244  2.5545 -0.3972 -0.7596
  708TIP3    H223540   4.812   4.433   3.189 -0.1622 -0.5731  0.6206
  709TIP3   OH223541   6.107   4.056  11.150 -0.0773  0.2303  0.3826
  709TIP3    H123542   6.098   3.961  11.143 -0.3844  0.1918  1.2270
  709TIP3    H223543   6.026   4.090  11.112  0.3890  0.1930 -0.6800
  710TIP3   OH223544   2.130   6.693  15.681 -0.5491  0.0243  1.0302
  710TIP3    H123545   2.113   6.765  15.741 -0.0848  1.5497 -0.6320
  710TIP3    H223546   2.046   6.648  15.672 -1.6993  2.3813 -0.5135
  711TIP3   OH223547   6.653   6.232  13.119  0.7016 -0.2823  0.2687
  711TIP3    H123548   6.665   6.148  13.074  1.4651 -0.2939  0.4834
  711TIP3    H223549   6.647   6.296  13.048 -2.5830 -0.7996 -0.0215
  712TIP3   OH223550   1.194   2.000   3.100  0.0085 -0.1262  0.0264
  712TIP3    H123551   1.278   1.981   3.058  0.1229 -1.5552  0.8837
  712TIP3    H223552   1.141   1.922   3.083 -1.1961  0.8081 -0.6059
  713TIP3   OH223553   5.377   0.704   0.049  0.2728 -0.1877  0.7199
  713TIP3    H123554   5.359   0.691   0.142 -0.4710 -3.1444  0.1973
  713TIP3    H223555   5.457   0.654   0.033 -0.3320 -0.7884 -0.4982
  714TIP3   OH223556   2.048   4.010   3.339  0.7438  0.0076 -0.5632
  714TIP3    H123557   2.023   4.020   3.430 -0.0600 -0.7269 -0.6951
  714TIP3    H223558   2.144   4.014   3.339  0.7366  0.0993  0.2964
  715TIP3   OH223559   2.044   4.315  10.786 -0.3341 -0.0800 -0.3961
  715TIP3    H123560   1.972   4.332  10.725  2.0275  1.5861 -2.8461
  715TIP3    H223561   2.113   4.277  10.731  0.7925 -1.3725  1.8414
  716TIP3   OH223562   0.935   3.954   6.070  0.1779  0.0081 -0.2254
  716TIP3    H123563   0.957   3.926   6.159  0.5462 -0.5261 -0.4853
  716TIP3    H223564   0.919   4.049   6.079 -1.8478 -0.3922  0.8009
  717TIP3   OH223565   0.593   1.578   6.526 -0.3922  1.0880 -0.5055
  717TIP3    H123566   0.638   1.514   6.582 -1.0027  0.4070 -0.7854
  717TIP3    H223567   0.544   1.633   6.587 -1.0718  0.3349 -0.3564
  718TIP3   OH223568   0.372   1.049  12.151 -0.0809  0.1648  0.0232
  718TIP3    H123569   0.341   1.122  12.098 -1.8759  0.3917  1.3418
  718TIP3    H223570   0.318   0.975  12.123  1.0900 -0.4445 -0.6448
  719TIP3   OH223571   6.673   2.962  15.350  0.1808 -0.5839  0.4719
  719TIP3    H123572   6.750   2.906  15.334 -0.0088 -0.5050 -0.7673
  719TIP3    H223573   6.624   2.916  15.419  0.7615 -1.2108  0.4755
  720TIP3   OH223574   6.745   5.471   4.984 -0.2986 -0.0345  0.1528
  720TIP3    H123575   6.703   5.551   5.017  1.6035  0.8227  0.5699
  720TIP3    H223576   6.812   5.503   4.924 -0.7412 -1.4101 -1.0719
  721TIP3   OH223577   0.860   2.352  10.192 -0.4175  0.2945 -0.0609
  721TIP3    H123578   0.922   2.306  10.135 -0.9948  0.6114 -0.9582
  721TIP3    H223579   0.885   2.326  10.280  0.9630  0.3702 -0.4147
  722TIP3   OH223580   4.251   6.740  15.165 -0.2901  0.1027 -0.2649
  722TIP3    H123581   4.233   6.834  15.159 -0.0521  0.1381 -0.4226
  722TIP3    H223582   4.339   6.735  15.202 -0.8829 -0.0797  1.1305
  723TIP3   OH223583   5.076   6.575  12.545  0.1897  0.3159 -0.8031
  723TIP3    H123584   5.133   6.605  12.474  2.0491  0.5004  0.7371
  723TIP3    H223585   5.023   6.651  12.567  0.6544  0.6994 -1.0069
  724TIP3   OH223586   3.681   1.848   4.525 -0.0630 -0.2744 -0.2282
  724TIP3    H123587   3.672   1.754   4.507 -2.5774  0.2358 -1.8223
  724TIP3    H223588   3.710   1.886   4.442  1.5523  0.3005  0.5814
  725TIP3   OH223589   5.415   4.321   0.843  0.0391 -0.3818  0.5745
  725TIP3    H123590   5.474   4.396   0.848 -0.7258  0.2778 -0.0187
  725TIP3    H223591   5.465   4.254   0.798  0.0982  0.4253 -0.5884
  726TIP3   OH223592   3.434   2.432   1.366  0.4597  0.3385 -0.4078
  726TIP3    H123593   3.476   2.473   1.442  0.0197  0.6098 -0.3087
  726TIP3    H223594   3.373   2.498   1.334 -0.4593 -0.3391 -0.0705
  727TIP3   OH223595   0.515   0.558   4.927 -0.6629  0.2416  0.1046
  727TIP3    H123596   0.461   0.539   4.850  0.2177 -2.8257  0.1939
  727TIP3    H223597   0.456   0.548   5.002 -0.2908 -1.9661  0.1292
  728TIP3   OH223598   0.636   1.518  15.454  0.5888  0.2538  0.0780
  728TIP3    H123599   0.575   1.450  15.426 -0.3181  1.1047 -0.0210
  728TIP3    H223600   0.722   1.485  15.429  0.3190 -1.6013  1.4677
  729TIP3   OH223601   4.389   6.682   2.043  0.6076 -0.0862 -0.2718
  729TIP3    H123602   4.410   6.747   1.976 -0.3465 -0.1541 -0.6459
  729TIP3    H223603   4.343   6.612   1.995 -1.9293  0.8074  0.7797
  730TIP3   OH223604   5.665   2.999   6.503  0.1263 -0.0404  0.7297
  730TIP3    H123605   5.616   3.036   6.577  1.0200  0.4575  1.0850
  730TIP3    H223606   5.751   3.040   6.509 -0.1123  0.7756 -1.1861
  731TIP3   OH223607   6.749   3.780   3.695 -0.1557  0.7117  0.1546
  731TIP3    H123608   6.714   3.861   3.732 -1.4252  0.3730 -0.2760
  731TIP3    H223609   6.731   3.786   3.602  1.1033  0.5942 -0.1047
  732TIP3   OH223610   2.840   6.525  12.655 -0.1560  0.7081 -0.4045
  732TIP3    H123611   2.912   6.530  12.719 -0.0138  1.3317 -0.6139
  732TIP3    H223612   2.876   6.564  12.576 -0.5229  0.4403 -0.7006
  733TIP3   OH223613   6.539   5.340  13.624 -0.2823  0.2962  0.3358
  733TIP3    H123614   6.450   5.322  13.593 -0.2788  3.4005 -1.7765
  733TIP3    H223615   6.596   5.314  13.551  0.2280  1.7948  0.1833
  734TIP3   OH223616   0.041   3.071   2.649  0.3190 -0.8104  0.7148
  734TIP3    H123617  -0.045   3.047   2.615  0.2876  0.2334  0.0147
  734TIP3    H223618   0.100   3.061   2.575  0.6273 -0.5881  0.9285
  735TIP3   OH223619   2.540   1.395  15.616  1.0262 -0.1915  0.7745
  735TIP3    H123620   2.447   1.418  15.617  1.5138  2.2743 -2.1813
  735TIP3    H223621   2.553   1.352  15.531  2.7953  0.5554  0.6373
  736TIP3   OH223622   1.774   1.491  15.076 -0.4792 -0.3634 -0.4855
  736TIP3    H123623   1.716   1.456  15.144  0.0753  1.0351  0.7205
  736TIP3    H223624   1.757   1.436  15.000 -0.1829 -2.7889  1.1471
  737TIP3   OH223625   1.123   2.062  11.883  0.4182  0.0159  0.0421
  737TIP3    H123626   1.084   1.975  11.890  0.3290  0.0057 -0.5421
  737TIP3    H223627   1.065   2.109  11.822 -0.3722  0.9468  1.4696
  738TIP3   OH223628   1.389   4.060  16.656  0.0040  0.0350 -0.4604
  738TIP3    H123629   1.340   4.138  16.682  0.5403  0.8178 -1.7583
  738TIP3    H223630   1.455   4.050  16.724 -0.9765 -0.1373  0.4819
  739TIP3   OH223631   5.737   0.786   2.585  0.1065 -0.1904 -0.3246
  739TIP3    H123632   5.655   0.809   2.541  0.6856  0.8270 -0.8660
  739TIP3    H223633   5.785   0.869   2.592  0.6542 -0.6016  0.8960
  740TIP3   OH223634   5.512   3.927  16.530 -0.8323  0.3651 -0.0475
  740TIP3    H123635   5.595   3.968  16.554 -0.3010 -0.8923  0.3184
  740TIP3    H223636   5.447   3.997  16.540  0.0659  1.1518  0.4059
  741TIP3   OH223637   0.227   4.906  14.889  0.3034 -0.4877 -0.3107
  741TIP3    H123638   0.206   4.897  14.796  1.9895 -1.5814 -0.6035
  741TIP3    H223639   0.141   4.909  14.933 -0.4934  0.4050 -1.9250
  742TIP3   OH223640   6.331   0.157  15.893 -0.7126  0.0317  0.1216
  742TIP3    H123641   6.237   0.146  15.907 -0.4638  0.8589  2.5005
  742TIP3    H223642   6.370   0.074  15.923 -0.6873 -0.5107 -1.3293
  743TIP3   OH223643   2.769   6.377  12.346  0.0229 -0.2737 -0.1747
  743TIP3    H123644   2.686   6.339  12.373 -0.5898  0.0675 -1.5185
  743TIP3    H223645   2.744   6.459  12.303  1.1411  0.4268  0.5124
  744TIP3   OH223646   4.622   2.147  14.663  0.2908 -0.3004 -0.2544
  744TIP3    H123647   4.575   2.068  14.690 -1.4888  0.2460 -1.6672
  744TIP3    H223648   4.698   2.115  14.616 -0.0126 -1.1806 -0.1564
  745TIP3   OH223649   3.301   4.059   3.649  0.1671 -0.2341 -0.6222
  745TIP3    H123650   3.282   4.144   3.690 -0.1172 -0.1160 -0.9993
  745TIP3    H223651   3.259   3.995   3.706  2.0315 -0.2891  0.7632
  746TIP3   OH223652   0.114   3.937   1.518  0.0868  0.2609  0.9508
  746TIP3    H123653   0.068   3.854   1.502  0.5362 -0.0059  1.0208
  746TIP3    H223654   0.084   3.965   1.604  0.8836 -0.4772  1.4809
  747TIP3   OH223655   0.073   4.961   0.020 -0.1532  0.2475 -0.5596
  747TIP3    H123656   0.063   4.996  -0.069  1.3459 -0.2199 -0.9276
  747TIP3    H223657   0.068   4.866   0.009  0.4032  0.1740 -0.2033
  748TIP3   OH223658   3.527   4.468  15.573 -0.0320 -0.3618  0.5688
  748TIP3    H123659   3.604   4.478  15.516  0.9728  0.4519  2.0528
  748TIP3    H223660   3.517   4.553  15.615 -2.9574  0.1967 -1.0713
  749TIP3   OH223661   1.726   0.061  14.748 -0.5824 -0.6983  0.4477
  749TIP3    H123662   1.789  -0.011  14.758  0.9062  0.6533  0.9993
  749TIP3    H223663   1.765   0.117  14.682 -0.6949  0.6841  1.5350
  750TIP3   OH223664   2.692   6.081  14.169  0.3342  0.6558  0.0999
  750TIP3    H123665   2.659   6.144  14.106  1.4697  2.2197  1.0306
  750TIP3    H223666   2.769   6.043  14.128  0.4709  0.9128  0.1197
  751TIP3   OH223667   3.508   1.059  13.272 -0.3480 -0.9542  0.3093
  751TIP3    H123668   3.447   1.095  13.336 -0.3810  0.7159 -0.6366
  751TIP3    H223669   3.453   1.006  13.214 -0.6751 -0.6354  0.3237
  752TIP3   OH223670   2.020   2.973   5.030 -0.0221  0.7132  0.4579
  752TIP3    H123671   2.060   2.930   4.955 -0.5921  0.5646  0.2370
  752TIP3    H223672   1.939   2.924   5.046 -0.6762  1.6974  0.2096
  753TIP3   OH223673   3.272   4.266   6.709  0.1774  0.1398  0.6169
  753TIP3    H123674   3.253   4.173   6.694 -0.1621  0.2245  0.5372
  753TIP3    H223675   3.318   4.294   6.630  1.5878 -0.3306  1.2367
  754TIP3   OH223676   2.157   0.145   0.367  0.2880 -0.3039 -0.6614
  754TIP3    H123677   2.061   0.137   0.367  0.2333  0.3070 -1.6081
  754TIP3    H223678   2.175   0.221   0.312  1.2268  0.8000  1.1052
  755TIP3   OH223679   0.123   1.527  16.426 -0.5308 -0.2824  0.0064
  755TIP3    H123680   0.106   1.445  16.380 -0.9918 -0.2872  0.1849
  755TIP3    H223681   0.097   1.510  16.516  3.0619 -1.1945  0.9380
  756TIP3   OH223682   3.951   6.758  16.996 -0.3339  0.2978  0.0782
  756TIP3    H123683   4.009   6.684  17.014  0.3889  1.0303  0.8366
  756TIP3    H223684   3.863   6.721  16.996  0.0044 -0.5205  0.6818
  757TIP3   OH223685   5.794   6.510  16.105 -0.4150 -0.3337  0.7901
  757TIP3    H123686   5.727   6.481  16.165  1.1188 -0.0120  2.7054
  757TIP3    H223687   5.815   6.433  16.052 -1.5925 -0.6754  0.8136
  758TIP3   OH223688   1.393   1.462  11.063 -0.4325 -0.6491  0.4718
  758TIP3    H123689   1.412   1.422  10.977  0.0987  0.4910  0.0457
  758TIP3    H223690   1.298   1.471  11.064 -0.5205 -1.4960  0.3787
  759TIP3   OH223691   3.513   3.128   4.259  0.3132  0.7771 -0.4177
  759TIP3    H123692   3.494   3.128   4.166 -1.2056 -0.9798 -0.1424
  759TIP3    H223693   3.444   3.181   4.298  0.5183  0.8985 -0.2166
  760TIP3   OH223694   4.346   0.202  12.907  0.4312  0.3459  0.6074
  760TIP3    H123695   4.364   0.250  12.988 -0.9943  1.4053  0.3058
  760TIP3    H223696   4.257   0.228  12.882  0.8064 -0.0585 -1.2383
  761TIP3   OH223697   5.370   2.045  17.131 -0.3715  0.0651  0.5009
  761TIP3    H123698   5.418   1.969  17.099 -1.2827 -0.4612  0.3680
  761TIP3    H223699   5.289   2.045  17.081 -0.2941  1.2468  0.3534
  762TIP3   OH223700   3.188   6.767  12.404  0.0056 -0.2556 -0.6049
  762TIP3    H123701   3.102   6.795  12.373 -0.3118  0.5843  0.9819
  762TIP3    H223702   3.240   6.848  12.406  1.0163 -0.8458 -2.0944
  763TIP3   OH223703   5.316   6.609  15.014  0.0418 -0.5372 -0.7860
  763TIP3    H123704   5.390   6.654  14.974 -0.5189  0.4381 -0.7452
  763TIP3    H223705   5.282   6.552  14.945  1.4535 -1.7957 -0.4957
  764TIP3   OH223706   4.324   1.045  16.163 -0.0192 -0.6466 -0.4283
  764TIP3    H123707   4.296   1.132  16.191  0.7509  0.0481 -1.7677
  764TIP3    H223708   4.353   1.002  16.243 -0.5427  0.2712  0.2610
  765TIP3   OH223709   2.597   1.492  12.512  0.5888  0.3379 -0.4497
  765TIP3    H123710   2.611   1.461  12.422 -0.0582 -0.2891 -0.3397
  765TIP3    H223711   2.523   1.553  12.505 -1.7018 -2.2592  0.1472
  766TIP3   OH223712   2.388   1.206   2.959 -0.1710 -0.0322  0.1951
  766TIP3    H123713   2.385   1.299   2.939  1.8276 -0.0239 -0.1066
  766TIP3    H223714   2.434   1.166   2.885  1.4827 -0.8585  1.6202
  767TIP3   OH223715   2.793   2.772   0.557 -0.0809  0.3259 -0.5434
  767TIP3    H123716   2.760   2.818   0.634  1.7084 -0.0153  0.4561
  767TIP3    H223717   2.881   2.808   0.543  0.2235 -0.7286 -1.4548
  768TIP3   OH223718   5.767   6.004   4.092 -0.8650  0.0406 -0.4347
  768TIP3    H123719   5.765   6.067   4.020  1.0544  0.5987 -0.0234
  768TIP3    H223720   5.840   6.032   4.147  0.2727 -2.7424 -0.4150
  769TIP3   OH223721   2.761   1.692   0.805  0.8904 -0.0061 -0.0031
  769TIP3    H123722   2.704   1.747   0.858 -1.8477 -0.6422 -2.1705
  769TIP3    H223723   2.804   1.752   0.744 -1.1332 -0.0583 -1.5257
  770TIP3   OH223724   3.911   5.306   3.274 -0.3519 -0.2178 -0.3746
  770TIP3    H123725   3.942   5.286   3.186  1.8095  1.8476 -0.1391
  770TIP3    H223726   3.945   5.394   3.292 -1.7736 -0.1113  2.0654
  771TIP3   OH223727   5.661   0.644  11.582  0.2146 -0.2710  0.0949
  771TIP3    H123728   5.628   0.614  11.666 -0.8784  1.0630  0.1499
  771TIP3    H223729   5.609   0.596  11.517 -1.4772  1.4175  0.1814
  772TIP3   OH223730   0.236   3.385   0.458  0.3549  0.0197  0.1801
  772TIP3    H123731   0.142   3.374   0.446  0.1612  1.5554  0.2199
  772TIP3    H223732   0.269   3.412   0.372  0.5369  0.8635  0.5079
  773TIP3   OH223733   1.502   1.043   4.666 -0.3694 -0.2019 -0.2288
  773TIP3    H123734   1.504   1.136   4.641 -1.4378  0.4344  1.9030
  773TIP3    H223735   1.592   1.023   4.689 -0.6378  1.1927  2.2312
  774TIP3   OH223736   6.077   2.430  14.865 -0.4690 -0.5007 -0.3318
  774TIP3    H123737   6.064   2.525  14.855 -0.7036 -0.3926  0.8862
  774TIP3    H223738   6.162   2.413  14.824 -0.6814  0.1363 -1.0602
  775TIP3   OH223739   5.627   6.320  16.861  0.2180  0.3163 -0.2997
  775TIP3    H123740   5.663   6.270  16.787  2.4605  1.6143 -0.1418
  775TIP3    H223741   5.685   6.298  16.934 -1.0770  0.2221  0.7176
  776TIP3   OH223742   5.072   0.501   2.415 -0.1516  0.0065  0.1213
  776TIP3    H123743   5.067   0.519   2.509 -0.3477 -0.6638  0.2373
  776TIP3    H223744   5.052   0.586   2.374 -2.3494 -0.2153  0.6621
  777TIP3   OH223745   0.693   6.742  13.235 -0.1543  0.3134  0.5945
  777TIP3    H123746   0.649   6.658  13.249 -0.0126  0.2463  0.6374
  777TIP3    H223747   0.667   6.768  13.147 -0.1926  0.2212  0.5777
  778TIP3   OH223748   6.305   2.120  15.256 -0.3401  0.2653  0.2030
  778TIP3    H123749   6.272   2.068  15.182  0.7922 -1.7705  1.0897
  778TIP3    H223750   6.231   2.125  15.317 -1.1057  1.4929 -0.7948
  779TIP3   OH223751   3.684   5.181  10.864 -0.4609  0.2893 -0.0633
  779TIP3    H123752   3.603   5.187  10.815 -1.2253  0.6636  1.2217
  779TIP3    H223753   3.736   5.256  10.836 -0.3860 -0.1631 -1.1681
  780TIP3   OH223754   3.609   2.524  17.105  0.7209  0.2895 -0.5891
  780TIP3    H123755   3.589   2.474  17.026 -0.3271  0.9367 -0.7328
  780TIP3    H223756   3.691   2.569  17.084  2.4655 -2.4397  0.0502
  781TIP3   OH223757   1.694   1.707  17.049  0.9317  0.1265  0.0098
  781TIP3    H123758   1.778   1.702  17.003  1.6598 -1.1809  1.4343
  781TIP3    H223759   1.706   1.777  17.113 -0.3459  2.4917 -2.2303
  782TIP3   OH223760   3.228   1.108   0.763 -1.1772  0.6052  0.5216
  782TIP3    H123761   3.261   1.178   0.706 -3.1873  0.1321 -1.2860
  782TIP3    H223762   3.208   1.152   0.845  0.7323  1.5157  0.5169
  783TIP3   OH223763   5.319   6.607  13.297 -0.3534  0.1713 -0.3607
  783TIP3    H123764   5.353   6.552  13.368  3.1392  0.5777 -1.6093
  783TIP3    H223765   5.259   6.668  13.341  1.8879  0.5686  2.3317
  784TIP3   OH223766   0.066   4.513  15.118  0.1838 -0.4317 -0.2685
  784TIP3    H123767   0.002   4.449  15.086  0.3826 -2.0498  2.3626
  784TIP3    H223768   0.018   4.566  15.181  0.2462  1.5601 -1.8280
  785TIP3   OH223769   5.516   4.510  13.998  0.1122  0.0688  0.4864
  785TIP3    H123770   5.549   4.499  14.087  1.0196 -1.1690  0.0061
  785TIP3    H223771   5.445   4.446  13.990  1.5255 -1.4175 -0.4021
  786TIP3   OH223772   4.876   2.561  12.934  0.0894 -0.0055 -1.0039
  786TIP3    H123773   4.787   2.570  12.968  0.4746  1.1109 -0.2536
  786TIP3    H223774   4.913   2.487  12.982 -0.8215 -1.2160 -2.1648
  787TIP3   OH223775   0.163   1.744  10.750 -0.1790 -0.3351  0.2329
  787TIP3    H123776   0.207   1.677  10.803  2.0238 -1.4372 -2.8940
  787TIP3    H223777   0.112   1.695  10.686 -0.5370  0.9728 -0.5065
  788TIP3   OH223778   4.562   0.014   6.001 -0.1418  0.0252  0.4090
  788TIP3    H123779   4.558  -0.082   6.007  0.2568 -0.0709 -0.7601
  788TIP3    H223780   4.476   0.043   6.031 -0.4435 -0.7265  0.2882
  789TIP3   OH223781   4.235   4.499   3.475 -0.6326  0.4629  0.0211
  789TIP3    H123782   4.246   4.513   3.569 -1.5570 -3.9710  0.9146
  789TIP3    H223783   4.304   4.437   3.452 -1.8860 -0.3388 -1.7083
  790TIP3   OH223784   1.653   5.048   5.772  0.7429 -0.5666  0.4453
  790TIP3    H123785   1.666   4.953   5.769 -1.3503 -0.8811  0.4927
  790TIP3    H223786   1.559   5.059   5.764  1.1945  1.6568 -2.3946
  791TIP3   OH223787   6.405   0.165  15.143 -0.1433 -0.0300  0.6846
  791TIP3    H123788   6.385   0.093  15.202 -1.4818 -1.5874 -1.5912
  791TIP3    H223789   6.324   0.216  15.140  0.2139  0.5503  0.8981
  792TIP3   OH223790   0.751   2.526  15.842  0.0114  0.2636 -0.1050
  792TIP3    H123791   0.820   2.592  15.848 -0.3468  0.5314  1.4944
  792TIP3    H223792   0.671   2.574  15.865 -0.4220 -0.4609 -0.1111
  793TIP3   OH223793   1.958   2.141  15.093  0.0638  0.2975 -0.6772
  793TIP3    H123794   1.981   2.228  15.062 -1.8228  1.1550  0.3034
  793TIP3    H223795   2.018   2.083  15.046  2.3051  2.2184 -0.2862
  794TIP3   OH223796   5.619   3.490  14.463  0.1820 -0.6966 -0.1190
  794TIP3    H123797   5.664   3.426  14.408 -0.4022 -1.3822  0.1952
  794TIP3    H223798   5.535   3.504  14.420 -0.6896 -1.9896  1.1196
  795TIP3   OH223799   2.241   0.231  12.098  0.3255  0.2563 -0.1990
  795TIP3    H123800   2.305   0.215  12.168 -0.0678 -0.1901  0.0624
  795TIP3    H223801   2.209   0.144  12.074  0.7553  0.3757 -1.2236
  796TIP3   OH223802   0.337   0.775   3.179 -0.2648 -0.1327 -0.2406
  796TIP3    H123803   0.372   0.864   3.171 -0.7206  0.2934  2.0604
  796TIP3    H223804   0.259   0.774   3.125  0.5449  0.4204 -1.4346
  797TIP3   OH223805   2.413   0.783   1.624  0.1546 -0.0155  0.4283
  797TIP3    H123806   2.388   0.694   1.648 -0.1065  0.4769  2.0622
  797TIP3    H223807   2.343   0.813   1.567  0.1773 -0.8031 -0.0287
  798TIP3   OH223808   3.552   2.039   3.732  0.3291 -0.2360  0.3202
  798TIP3    H123809   3.565   2.125   3.690 -0.7816  0.2178  0.8845
  798TIP3    H223810   3.482   2.054   3.796  1.5011 -1.0967  1.8266
  799TIP3   OH223811   6.620   2.447  13.578  0.0350  0.0454 -0.5779
  799TIP3    H123812   6.624   2.539  13.553  0.4228 -0.4538 -2.3905
  799TIP3    H223813   6.530   2.420  13.559  0.4018 -0.4019 -1.7237
  800TIP3   OH223814   6.559   4.406  12.499  1.1800  0.0400 -0.1406
  800TIP3    H123815   6.618   4.353  12.446  0.4690 -0.7101 -0.1819
  800TIP3    H223816   6.477   4.409  12.449  1.5963  2.1958 -0.7394
  801TIP3   OH223817   5.601   2.790   2.185  0.2342  0.3454  0.2293
  801TIP3    H123818   5.569   2.860   2.127 -0.2726  1.0682  1.3534
  801TIP3    H223819   5.546   2.798   2.263 -0.3615 -1.8386  0.0577
  802TIP3   OH223820   6.021   6.043   3.157  0.1174  0.3005 -0.4160
  802TIP3    H123821   6.103   6.009   3.121  0.7887  0.6529  0.7726
  802TIP3    H223822   5.959   6.036   3.084  1.0948 -0.3357 -1.2048
  803TIP3   OH223823   1.449   0.406   4.480  0.5229  0.0042 -0.0897
  803TIP3    H123824   1.368   0.443   4.444  0.3725  0.1034  0.3547
  803TIP3    H223825   1.480   0.471   4.543  1.2278  0.2049 -0.6329
  804TIP3   OH223826   5.027   6.696  15.085  0.0863 -0.0253  0.2501
  804TIP3    H123827   5.000   6.605  15.095  1.2090 -0.5289 -1.1075
  804TIP3    H223828   5.093   6.694  15.016  0.2853  1.7921  0.3592
  805TIP3   OH223829   3.258   4.783  16.309  0.3635  0.0391  0.5600
  805TIP3    H123830   3.298   4.721  16.248 -0.2240  0.1670  0.0286
  805TIP3    H223831   3.168   4.751  16.318  0.4048  0.1159  1.2339
  806TIP3   OH223832   0.761   6.736  16.348  0.5957  0.7533 -0.7878
  806TIP3    H123833   0.811   6.701  16.422 -2.1347  0.4014  0.9655
  806TIP3    H223834   0.752   6.662  16.288 -0.4868 -0.0709  0.3636
  807TIP3   OH223835   4.891   1.362  15.369  0.1885 -0.3517  0.0806
  807TIP3    H123836   4.891   1.266  15.368 -3.8815 -0.4801  2.3211
  807TIP3    H223837   4.827   1.387  15.303 -1.2721  0.7034  1.8628
  808TIP3   OH223838   4.108   4.975  14.054 -0.6028 -0.3981  0.4534
  808TIP3    H123839   4.023   4.945  14.086 -1.6182  1.6746 -0.2337
  808TIP3    H223840   4.149   5.014  14.131 -1.9835  2.2652 -0.1190
  809TIP3   OH223841   5.438   4.174  15.694  0.3961  0.2399 -0.4728
  809TIP3    H123842   5.395   4.164  15.609 -0.6231  1.0789 -0.0683
  809TIP3    H223843   5.473   4.087  15.714 -3.2275 -1.1034  0.3146
  810TIP3   OH223844   6.050   6.089   1.332 -0.0622 -0.3602 -0.2678
  810TIP3    H123845   5.986   6.062   1.266 -0.0252  0.8821 -0.8205
  810TIP3    H223846   6.030   6.036   1.409 -0.5334 -1.3449 -1.0608
  811TIP3   OH223847   5.645   6.386  12.906 -0.2675 -0.5344  0.4153
  811TIP3    H123848   5.593   6.418  12.980  0.4408 -0.8658  1.0602
  811TIP3    H223849   5.582   6.343  12.849 -0.8404 -0.1561  0.7571
  812TIP3   OH223850   2.645   2.048   3.277  0.2481 -0.0335 -0.0820
  812TIP3    H123851   2.656   1.958   3.247  2.4536 -0.4562  1.8136
  812TIP3    H223852   2.638   2.041   3.373  3.4951  1.9712  0.3810
  813TIP3   OH223853   4.943   6.020   2.864 -0.3028  0.2664 -0.1163
  813TIP3    H123854   4.910   6.101   2.825 -1.0868  0.1850  0.3765
  813TIP3    H223855   5.003   5.985   2.798 -1.3880  0.2887 -1.1260
  814TIP3   OH223856   0.837   2.887  11.413 -0.4394 -0.5863 -0.0682
  814TIP3    H123857   0.867   2.976  11.392 -0.8161 -0.6191 -0.7608
  814TIP3    H223858   0.768   2.900  11.479 -0.5603 -0.3576 -0.2375
  815TIP3   OH223859   3.774   0.327  15.331  0.4616 -0.0749 -0.0610
  815TIP3    H123860   3.760   0.234  15.311 -2.7686  0.5896 -1.2508
  815TIP3    H223861   3.758   0.333  15.426  0.9336 -0.7691  0.0696
  816TIP3   OH223862   5.970   2.945   0.689  0.4869 -0.1390  0.0622
  816TIP3    H123863   5.919   2.927   0.610  0.5696  0.2915 -0.0945
  816TIP3    H223864   5.914   3.002   0.742 -0.0925 -1.4925  0.9077
  817TIP3   OH223865   4.626   4.349   2.943  0.6120  0.4877  0.6765
  817TIP3    H123866   4.613   4.365   2.849  0.6224 -0.1116  0.5705
  817TIP3    H223867   4.580   4.421   2.986 -0.7289 -0.1059  0.2502
  818TIP3   OH223868   1.004   1.508  13.675  0.3156  0.5149  0.0319
  818TIP3    H123869   0.929   1.518  13.618  1.4665  0.6128 -1.4941
  818TIP3    H223870   1.028   1.415  13.668  0.7378  0.6257  0.0095
  819TIP3   OH223871   3.633   3.578  14.662 -0.3815  0.5521 -0.3859
  819TIP3    H123872   3.546   3.548  14.635  0.1274 -0.1835 -1.2146
  819TIP3    H223873   3.625   3.592  14.756 -1.1882 -0.2418 -0.3323
  820TIP3   OH223874   5.543   2.300  11.820  0.4601 -0.1184 -0.1139
  820TIP3    H123875   5.484   2.337  11.754  0.8434  2.1381  0.7610
  820TIP3    H223876   5.630   2.308  11.781  0.5231 -0.3055 -0.0126
  821TIP3   OH223877   5.000   2.472  15.279  0.2639  0.1861  0.3049
  821TIP3    H123878   5.093   2.463  15.302  0.3639  1.8029  0.5895
  821TIP3    H223879   4.991   2.424  15.197  1.7718  1.5846 -0.7059
  822TIP3   OH223880   3.506   4.104   1.238 -0.1602  0.0453 -0.2461
  822TIP3    H123881   3.459   4.175   1.194  1.4567  0.1376 -1.8563
  822TIP3    H223882   3.566   4.149   1.297 -0.4198 -0.0314  0.0791
  823TIP3   OH223883   2.951   4.263  13.006 -0.0067  0.4521 -0.2020
  823TIP3    H123884   2.935   4.356  13.020  0.8275  0.3318  1.8032
  823TIP3    H223885   3.039   4.259  12.969 -0.2486  0.4754 -0.7915
  824TIP3   OH223886   5.597   3.264  12.885 -0.6368  0.4807 -0.2466
  824TIP3    H123887   5.509   3.264  12.922 -0.0382  2.3230  1.2998
  824TIP3    H223888   5.606   3.350  12.844  0.1665 -0.0043 -1.1246
  825TIP3   OH223889   2.679   0.701   1.005  0.2012  0.3971  0.2727
  825TIP3    H123890   2.659   0.708   0.912 -0.2676 -0.7155  0.2837
  825TIP3    H223891   2.737   0.626   1.012  0.2447  0.4819  0.8809
  826TIP3   OH223892   3.147   1.943  15.628 -0.1481 -0.1148 -0.2428
  826TIP3    H123893   3.106   1.918  15.711  0.1495  0.0001 -0.0599
  826TIP3    H223894   3.210   1.873  15.611 -0.2409 -0.1611 -0.3950
  827TIP3   OH223895   1.328   0.052  12.415  0.1588  0.3747  0.3959
  827TIP3    H123896   1.233   0.042  12.409  0.5319 -3.0925 -0.7857
  827TIP3    H223897   1.354  -0.007  12.486  1.4366  1.4307  0.8297
  828TIP3   OH223898   2.415   4.984   3.119  0.2166  0.3655  0.5231
  828TIP3    H123899   2.492   5.025   3.080  0.7996  1.9061  3.2167
  828TIP3    H223900   2.450   4.906   3.164 -0.1937 -0.4045 -0.4785
  829TIP3   OH223901   2.523   4.898   3.698  0.4118  0.1361  0.8659
  829TIP3    H123902   2.433   4.871   3.715 -0.9139  2.8804 -1.4290
  829TIP3    H223903   2.536   4.976   3.752  0.8064  0.7704 -0.1294
  830TIP3   OH223904   1.399   1.402  14.282 -0.6604  0.4671 -0.2886
  830TIP3    H123905   1.338   1.338  14.317  2.2307 -2.1775  0.1193
  830TIP3    H223906   1.429   1.452  14.358 -1.9895  1.5076 -0.4383
  831TIP3   OH223907   2.095   2.992  14.874 -0.1283  0.0828 -0.2503
  831TIP3    H123908   2.084   2.973  14.967  0.5688  1.4802  0.1359
  831TIP3    H223909   2.008   3.017  14.845 -0.2538  0.1097  0.1381
  832TIP3   OH223910   4.122   4.146  13.771  0.3890  0.2928  0.3446
  832TIP3    H123911   4.028   4.127  13.776  0.5522 -0.5608  0.3714
  832TIP3    H223912   4.151   4.145  13.861  0.3879  0.7378  0.3481
  833TIP3   OH223913   3.679   2.655   4.856 -0.2218  0.0573  0.2030
  833TIP3    H123914   3.692   2.750   4.852  2.0731 -0.1842  1.1994
  833TIP3    H223915   3.745   2.619   4.797 -0.7259 -0.9438  0.2373
  834TIP3   OH223916   5.886   2.817  13.043  0.4898  0.5166 -0.2711
  834TIP3    H123917   5.936   2.897  13.028  1.0467  0.6175  1.9435
  834TIP3    H223918   5.948   2.746  13.027  1.1184  0.6251  1.5533
  835TIP3   OH223919   3.662   4.769   4.246  0.2657  0.8652 -0.0959
  835TIP3    H123920   3.613   4.778   4.164  0.5635 -2.5596 -0.7220
  835TIP3    H223921   3.651   4.678   4.271  0.5054  1.7386  3.5413
  836TIP3   OH223922   3.953   5.625  15.235  0.5945  0.0086  0.7444
  836TIP3    H123923   3.900   5.546  15.249 -0.0571  0.3682  0.3508
  836TIP3    H223924   3.939   5.677  15.315 -2.1378  1.5005 -0.6199
  837TIP3   OH223925   1.365   3.570  11.434 -0.4281 -0.1232  0.5519
  837TIP3    H123926   1.395   3.481  11.455  2.5458  0.8532  0.6141
  837TIP3    H223927   1.355   3.612  11.520  0.6212  0.3417  0.4593
  838TIP3   OH223928   4.364   1.169   4.331 -0.2221  0.2671 -0.2835
  838TIP3    H123929   4.450   1.166   4.372 -0.6619 -0.8380  0.5943
  838TIP3    H223930   4.304   1.138   4.400 -1.2545  0.6203 -1.0181
  839TIP3   OH223931   6.157   0.304   2.344  0.4975  0.3569 -0.3021
  839TIP3    H123932   6.194   0.296   2.256 -0.2948 -1.1963 -0.5113
  839TIP3    H223933   6.229   0.284   2.403  0.8043  0.5203 -0.6258
  840TIP3   OH223934   0.369   6.709   1.731 -0.0743  0.0325 -0.0137
  840TIP3    H123935   0.435   6.750   1.676  1.0019 -1.9414 -0.2309
  840TIP3    H223936   0.286   6.746   1.700  0.7019  0.6419 -1.4350
  841TIP3   OH223937   5.822   4.662  14.390  0.1881 -0.0776  0.0782
  841TIP3    H123938   5.899   4.665  14.446  0.7124  2.8670 -0.7292
  841TIP3    H223939   5.791   4.752  14.386 -1.0008 -0.5369 -2.7705
  842TIP3   OH223940   0.757   2.250   4.582 -0.2003 -0.1567  0.4724
  842TIP3    H123941   0.765   2.339   4.548 -0.0317 -1.1274 -2.1976
  842TIP3    H223942   0.835   2.205   4.550 -0.2272 -1.2290  1.8805
  843TIP3   OH223943   0.378   4.516  14.352 -0.3041 -0.1184 -0.1652
  843TIP3    H123944   0.363   4.535  14.259 -1.4017 -0.6769 -0.1070
  843TIP3    H223945   0.446   4.448  14.352  0.5950  0.7597 -0.5068
  844TIP3   OH223946   4.470   4.083   2.460 -0.2775 -0.0321 -0.6957
  844TIP3    H123947   4.532   4.152   2.440  0.3773  0.1286  1.7651
  844TIP3    H223948   4.524   4.008   2.486 -1.0769  0.3977  2.3568
  845TIP3   OH223949   0.313   5.551   1.578 -0.2049  0.0490 -0.4898
  845TIP3    H123950   0.350   5.516   1.659  1.4963 -1.2195 -1.7754
  845TIP3    H223951   0.262   5.627   1.606  0.4153 -0.3233  1.7555
  846TIP3   OH223952   2.685   3.845   6.408  0.3092  0.2423 -0.3233
  846TIP3    H123953   2.687   3.880   6.497 -0.5641  0.5995 -0.4382
  846TIP3    H223954   2.723   3.757   6.416 -0.9891 -0.2472  0.6497
  847TIP3   OH223955   1.646   3.882   1.711  0.0528  0.3328 -0.1191
  847TIP3    H123956   1.687   3.800   1.740 -0.9027 -0.1059  0.0135
  847TIP3    H223957   1.660   3.943   1.783  0.2164  0.1004  0.0454
  848TIP3   OH223958   4.242   3.966   0.883  0.1215  0.1046  0.6206
  848TIP3    H123959   4.220   3.962   0.977  0.9751 -0.1571  0.8152
  848TIP3    H223960   4.337   3.983   0.882 -0.0148  0.8128 -0.2002
  849TIP3   OH223961   5.859   3.934  10.950  0.6733  0.0705  0.6828
  849TIP3    H123962   5.865   4.022  10.987 -0.4314  0.9737 -1.1873
  849TIP3    H223963   5.772   3.903  10.973  0.0506  0.5646 -0.9580
  850TIP3   OH223964   5.850   6.462   2.434  0.2344 -0.3015 -0.0278
  850TIP3    H123965   5.932   6.469   2.385  0.7108 -0.8630  0.6840
  850TIP3    H223966   5.871   6.500   2.519 -0.4599  0.2333 -0.0947
  851TIP3   OH223967   1.184   2.470   5.113  0.3014  0.3306 -0.6132
  851TIP3    H123968   1.138   2.445   5.193  0.2834  0.1015 -0.6938
  851TIP3    H223969   1.167   2.563   5.103 -1.2690 -0.0233 -1.3736
  852TIP3   OH223970   3.291   3.562  13.158 -0.3692 -0.6238 -0.3890
  852TIP3    H123971   3.277   3.579  13.251 -1.2943  0.8439 -0.7649
  852TIP3    H223972   3.362   3.622  13.133  0.0890 -1.2352 -0.5641
  853TIP3   OH223973   2.497   3.289   0.133 -0.1021  0.1564 -0.3227
  853TIP3    H123974   2.557   3.364   0.128 -1.9960  1.6567 -1.9538
  853TIP3    H223975   2.531   3.227   0.069  0.0591  0.7534 -0.8298
  854TIP3   OH223976   5.256   1.486   5.899  0.0612  0.1743 -0.2351
  854TIP3    H123977   5.197   1.540   5.847 -0.6454 -0.5431 -0.1832
  854TIP3    H223978   5.343   1.505   5.864  0.1006  3.1277  1.3268
  855TIP3   OH223979   5.559   6.574  15.933  0.2458 -0.2053 -0.5904
  855TIP3    H123980   5.479   6.572  15.986 -0.0981  3.2447 -0.8209
  855TIP3    H223981   5.630   6.565  15.995 -0.2424  0.3667  0.0586
  856TIP3   OH223982   6.603   6.619   4.368  0.0958 -0.2406 -0.0336
  856TIP3    H123983   6.631   6.711   4.368  0.6651 -0.4058  0.9024
  856TIP3    H223984   6.632   6.584   4.284 -2.0804  1.0160 -1.3678
  857TIP3   OH223985   2.920   4.680  13.679  0.0213  0.2524 -0.0181
  857TIP3    H123986   2.827   4.671  13.655  0.1948 -0.4057 -0.4490
  857TIP3    H223987   2.924   4.644  13.768 -0.2183  0.7071  0.1799
  858TIP3   OH223988   3.205   1.699   4.532 -0.7332 -0.5013  0.2421
  858TIP3    H123989   3.231   1.788   4.556 -2.2817 -0.1877  0.8164
  858TIP3    H223990   3.128   1.681   4.586 -1.9411 -1.2497 -1.6645
  859TIP3   OH223991   1.406   4.473  16.403 -0.1450  0.1554  0.4370
  859TIP3    H123992   1.331   4.434  16.448  0.1707 -1.2902 -0.2654
  859TIP3    H223993   1.480   4.455  16.461  0.4136 -2.5186 -1.0760
  860TIP3   OH223994   6.005   2.249   2.751 -0.1296  0.1806  0.2312
  860TIP3    H123995   6.076   2.308   2.779  1.2844 -0.7616 -1.2557
  860TIP3    H223996   6.019   2.169   2.802 -0.4164  0.1608  0.2770
  861TIP3   OH223997   5.633   4.711   3.537  0.1398 -1.2282 -0.9331
  861TIP3    H123998   5.688   4.650   3.488  1.1379 -1.1913  0.1328
  861TIP3    H223999   5.624   4.787   3.480  1.9071 -0.8851 -0.7663
  862TIP3   OH224000   1.167   4.120   4.639 -0.5900  0.8026 -1.1412
  862TIP3    H124001   1.131   4.191   4.692 -1.4291  1.4729 -2.5988
  862TIP3    H224002   1.094   4.059   4.628  0.1551 -0.3748  0.1972
  863TIP3   OH224003   4.590   1.209  14.333 -0.2450 -0.3170  0.0271
  863TIP3    H124004   4.627   1.290  14.368 -0.3633  0.2638 -1.1485
  863TIP3    H224005   4.553   1.164  14.409  0.0730  0.5933  0.7313
  864TIP3   OH224006   4.325   6.535   3.920 -0.3898  0.1930 -0.1149
  864TIP3    H124007   4.337   6.628   3.898  0.7439  0.0722  0.0024
  864TIP3    H224008   4.301   6.494   3.837 -0.8262  0.5684 -0.1821
  865TIP3   OH224009   6.435   6.680  16.505  0.0426  0.7191 -0.3112
  865TIP3    H124010   6.383   6.679  16.424 -1.1245  1.1381  0.4231
  865TIP3    H224011   6.433   6.590  16.536 -0.5441  0.8024 -0.1012
  866TIP3   OH224012   0.349   5.373  11.388  0.1700 -0.0401 -0.4210
  866TIP3    H124013   0.269   5.337  11.350 -0.1587  0.7742 -0.5067
  866TIP3    H224014   0.323   5.401  11.476 -0.0051  1.5385 -0.9563
  867TIP3   OH224015   3.179   5.765   2.123  0.1030 -0.1329  0.5343
  867TIP3    H124016   3.239   5.819   2.176  0.1897 -0.2476  0.5529
  867TIP3    H224017   3.214   5.770   2.034 -0.8731  1.2502  0.2143
  868TIP3   OH224018   6.124   0.811   1.414  0.0244  0.1830 -0.3929
  868TIP3    H124019   6.199   0.852   1.372 -0.4927 -1.0134 -2.5627
  868TIP3    H224020   6.160   0.765   1.489  1.1727  1.1529 -0.3340
  869TIP3   OH224021   4.099   2.858   4.820 -0.2396  0.2155 -0.3925
  869TIP3    H124022   4.084   2.820   4.733  0.0343 -1.6097  0.3409
  869TIP3    H224023   4.101   2.783   4.879  0.1513  1.3958  1.1242
  870TIP3   OH224024   5.444   1.917  11.591  0.1920  0.3015  0.5145
  870TIP3    H124025   5.448   1.968  11.510  1.5591 -0.7612 -0.1004
  870TIP3    H224026   5.375   1.853  11.576  1.4437 -0.8651 -0.4095
  871TIP3   OH224027   1.108   0.344  15.356 -0.4299  0.4026 -0.3564
  871TIP3    H124028   1.114   0.251  15.380 -0.5996  0.6499  0.6375
  871TIP3    H224029   1.019   0.354  15.323 -1.1271  0.6805  1.5623
  872TIP3   OH224030   0.558   2.457  16.287  0.0004  0.5376 -0.2252
  872TIP3    H124031   0.545   2.369  16.254 -0.4256  0.4825  0.0885
  872TIP3    H224032   0.649   2.458  16.317 -0.9785 -0.8650  2.9570
  873TIP3   OH224033   3.668   4.551   3.115 -0.0587  0.5262  0.5387
  873TIP3    H124034   3.663   4.558   3.210 -0.3045  0.2212  0.5471
  873TIP3    H224035   3.584   4.584   3.084  0.4886  1.8016  0.3645
  874TIP3   OH224036   1.515   1.660   4.906  0.3641  1.1255  0.4692
  874TIP3    H124037   1.514   1.570   4.941  1.7605  0.4687 -1.1089
  874TIP3    H224038   1.503   1.649   4.812 -0.2416  2.6622  0.3564
  875TIP3   OH224039   4.714   0.900   1.295 -0.0693  0.5696  0.2728
  875TIP3    H124040   4.711   0.987   1.335  2.0818  0.8132 -0.0157
  875TIP3    H224041   4.808   0.878   1.294 -0.5432 -1.5127 -0.1619
  876TIP3   OH224042   0.896   0.106  16.055 -0.5076 -0.3039 -0.5558
  876TIP3    H124043   0.820   0.127  16.110 -1.5700 -1.8143 -1.4430
  876TIP3    H224044   0.928   0.191  16.026 -1.5266  0.3740  0.2587
  877TIP3   OH224045   2.676   0.336  11.569 -0.5943 -0.1249  0.2502
  877TIP3    H124046   2.694   0.269  11.635 -1.5823 -0.8725 -0.2088
  877TIP3    H224047   2.642   0.287  11.494 -0.7506  0.8370 -0.3209
  878TIP3   OH224048   5.398   0.577   5.034 -0.4141  0.5256 -0.6000
  878TIP3    H124049   5.392   0.524   5.114 -0.8592  1.0080 -0.3065
  878TIP3    H224050   5.378   0.666   5.064 -2.4104  0.4146 -1.5892
  879TIP3   OH224051   5.753   1.235  11.805  0.3705 -0.2628 -0.2560
  879TIP3    H124052   5.839   1.274  11.820  0.4321 -0.2829 -0.5488
  879TIP3    H224053   5.756   1.206  11.714 -0.1513  0.2774 -0.4470
  880TIP3   OH224054   2.424   3.354  16.622 -0.2862 -0.1163 -0.2444
  880TIP3    H124055   2.463   3.290  16.563  0.3469 -1.4998  1.6232
  880TIP3    H224056   2.382   3.301  16.690  0.5196  1.4389  1.5080
  881TIP3   OH224057   5.246   2.453  15.384 -0.6279  0.5326  0.0314
  881TIP3    H124058   5.263   2.530  15.440 -0.9913  0.3698  0.3644
  881TIP3    H224059   5.332   2.431  15.348 -0.2425  0.1335  1.1798
  882TIP3   OH224060   3.660   3.719  17.170  0.0735 -0.3291 -0.2715
  882TIP3    H124061   3.692   3.738  17.082 -0.8905  0.1691 -0.5169
  882TIP3    H224062   3.632   3.628  17.166 -0.4064 -0.1663 -0.6096
  883TIP3   OH224063   4.083   0.365  12.984 -0.2007 -0.1670  0.2741
  883TIP3    H124064   4.165   0.415  12.995  0.4644 -0.4506 -2.8327
  883TIP3    H224065   4.015   0.432  12.983  0.4125  0.4661 -1.0308
  884TIP3   OH224066   5.463   5.123   2.846 -0.0836  0.5176  0.2392
  884TIP3    H124067   5.495   5.209   2.874 -0.0684  0.6340 -0.1318
  884TIP3    H224068   5.425   5.085   2.925  1.7251  0.0305  0.9000
  885TIP3   OH224069   4.307   4.920  11.610 -0.4324 -0.2875 -0.5652
  885TIP3    H124070   4.291   5.005  11.649 -2.8156 -1.3047  0.7655
  885TIP3    H224071   4.297   4.934  11.516  0.9149  1.2358 -0.4992
  886TIP3   OH224072   2.409   2.038   6.489 -0.0485  0.0126  0.3655
  886TIP3    H124073   2.424   2.132   6.485 -1.9517  0.2881 -1.3547
  886TIP3    H224074   2.365   2.024   6.574  1.9785  0.3687  1.4986
  887TIP3   OH224075   1.598   2.363   4.838  0.9905  0.0325 -0.0993
  887TIP3    H124076   1.528   2.316   4.884  1.1729  0.1092  0.2578
  887TIP3    H224077   1.557   2.394   4.757  1.0493 -1.2817 -0.6361
  888TIP3   OH224078   5.984   0.885   2.805 -0.1635 -0.4366  0.1909
  888TIP3    H124079   5.919   0.846   2.864  0.4950 -1.3731  0.3100
  888TIP3    H224080   6.063   0.833   2.819  0.1554 -0.3165 -1.1121
  889TIP3   OH224081   6.379   3.457  12.254  0.3289 -0.0213  0.1027
  889TIP3    H124082   6.461   3.407  12.259  1.1734  1.5155  2.2278
  889TIP3    H224083   6.402   3.544  12.286 -1.8419  0.8351 -0.5809
  890TIP3   OH224084   0.786   0.434  15.381  0.0686 -0.7459  0.1993
  890TIP3    H124085   0.814   0.366  15.442  0.8470  0.2289  0.9415
  890TIP3    H224086   0.748   0.502  15.436  1.0877  0.2995 -0.3484
  891TIP3   OH224087   3.368   6.074   4.087  0.3512  0.0913 -0.2440
  891TIP3    H124088   3.397   6.102   4.000  0.1844 -1.2502 -0.7466
  891TIP3    H224089   3.337   5.984   4.074 -0.6673  0.2476  0.9886
  892TIP3   OH224090   0.632   1.627   2.088  0.6397 -0.2719 -0.3287
  892TIP3    H124091   0.639   1.536   2.118  1.9359 -0.0188  0.1451
  892TIP3    H224092   0.681   1.629   2.006 -0.3331 -0.2467 -0.9203
  893TIP3   OH224093   1.072   1.661   1.455  0.1862 -0.5025  0.0729
  893TIP3    H124094   1.049   1.577   1.415 -1.5051 -0.1575  0.2720
  893TIP3    H224095   1.151   1.643   1.505  2.3058 -0.9870 -3.2750
  894TIP3   OH224096   5.814   3.574  16.506  0.1547 -0.1934 -0.5459
  894TIP3    H124097   5.848   3.625  16.433  0.2207  1.9033  0.9217
  894TIP3    H224098   5.864   3.492  16.503  1.5563  0.6816 -1.6242
  895TIP3   OH224099   3.198   1.960   5.139 -0.1962  0.0186  0.2356
  895TIP3    H124100   3.232   1.989   5.224 -1.2103 -1.6094  1.2217
  895TIP3    H224101   3.126   1.901   5.161  0.7591 -1.9425 -1.7081
  896TIP3   OH224102   2.009   0.276  12.239  0.5284  0.4981 -1.3413
  896TIP3    H124103   1.967   0.191  12.249 -1.6178  1.5868 -0.8524
  896TIP3    H224104   2.091   0.257  12.193  0.1605 -1.8401 -1.0763
  897TIP3   OH224105   5.905   2.561   5.220  0.4236 -0.4312 -0.2906
  897TIP3    H124106   5.981   2.618   5.205 -0.3526  0.4408 -1.0456
  897TIP3    H224107   5.883   2.528   5.133 -0.0365 -0.6921 -0.0746
  898TIP3   OH224108   5.834   4.538  11.943  0.1619 -0.3747  0.3079
  898TIP3    H124109   5.885   4.606  11.987 -0.2438  0.5095 -0.5574
  898TIP3    H224110   5.881   4.523  11.861 -0.3296 -0.3673  0.0208
  899TIP3   OH224111   0.069   5.769  11.729 -0.1099  0.4278  0.0801
  899TIP3    H124112  -0.014   5.802  11.695 -0.5771 -0.2340  0.5570
  899TIP3    H224113   0.046   5.686  11.770  0.8580  0.0678 -0.1062
  900TIP3   OH224114   6.340   1.547  14.263  0.7198 -1.2718  0.6249
  900TIP3    H124115   6.319   1.473  14.319 -0.2333 -2.2597 -1.0230
  900TIP3    H224116   6.264   1.605  14.270  0.3616 -1.6522 -0.0506
  901TIP3   OH224117   3.384   2.335   4.490  0.0273 -0.5769  0.4920
  901TIP3    H124118   3.422   2.399   4.550 -0.3593  0.2263 -0.1185
  901TIP3    H224119   3.435   2.255   4.506  2.0278  0.4920 -0.3347
  902TIP3   OH224120   4.522   6.518   2.632 -0.0824  0.1023 -0.0576
  902TIP3    H124121   4.564   6.486   2.712 -0.1360  0.8528  0.2691
  902TIP3    H224122   4.443   6.464   2.624 -0.3129  0.3296  0.6414
  903TIP3   OH224123   5.676   5.708  16.898 -0.1397 -0.2379 -0.1259
  903TIP3    H124124   5.703   5.792  16.935  0.1811  0.0981 -1.1242
  903TIP3    H224125   5.594   5.728  16.853  0.0519 -0.4167 -0.5509
  904TIP3   OH224126   4.961   2.700  15.792 -0.1889  0.4746 -0.0697
  904TIP3    H124127   5.042   2.703  15.740 -0.8374 -1.9397 -1.3415
  904TIP3    H224128   4.990   2.677  15.880  0.4489 -2.0724 -0.8789
  905TIP3   OH224129   4.931   5.296  14.481  0.0102 -0.7430  0.2398
  905TIP3    H124130   4.884   5.260  14.556  0.3994  0.2549  0.9598
  905TIP3    H224131   4.870   5.359  14.443 -0.3218 -1.4923 -0.4989
  906TIP3   OH224132   3.392   3.405   3.635 -0.1827  0.0046 -0.1977
  906TIP3    H124133   3.466   3.464   3.626  0.2019 -0.3970  0.3051
  906TIP3    H224134   3.322   3.459   3.672 -0.6155  0.7528 -2.0538
  907TIP3   OH224135   5.134   4.115  15.191 -0.4776  0.5596 -0.5417
  907TIP3    H124136   5.117   4.203  15.224 -1.2547 -0.5673  2.2161
  907TIP3    H224137   5.229   4.111  15.181 -0.2082  1.0056  1.5435
  908TIP3   OH224138   1.596   4.251   4.774 -0.3506  0.2288  0.6339
  908TIP3    H124139   1.539   4.175   4.785  0.1478 -0.0801  1.0831
  908TIP3    H224140   1.684   4.214   4.764  0.2412  0.8328  3.3223
  909TIP3   OH224141   4.706   4.989  16.923 -0.1837 -0.1158  0.3796
  909TIP3    H124142   4.715   4.894  16.929  0.3905 -0.0483  0.6406
  909TIP3    H224143   4.777   5.023  16.978  2.2926  0.5136 -3.0795
  910TIP3   OH224144   3.928   4.476  12.228  0.0146 -0.0045 -0.3081
  910TIP3    H124145   3.899   4.541  12.291 -0.5071  1.1229 -1.6974
  910TIP3    H224146   4.010   4.442  12.264 -0.3932  0.4699  1.0689
  911TIP3   OH224147   1.146   2.060  16.927 -0.0358 -0.1083  0.0731
  911TIP3    H124148   1.241   2.072  16.926  0.1588 -1.4613  0.6528
  911TIP3    H224149   1.132   1.990  16.990 -1.3010 -0.9226 -1.0915
  912TIP3   OH224150   3.253   1.465  15.862 -0.0072 -0.2886 -0.0233
  912TIP3    H124151   3.326   1.429  15.812  0.0354  1.0091 -0.9141
  912TIP3    H224152   3.237   1.551  15.823  0.2495  0.9051  2.4486
  913TIP3   OH224153   6.119   6.321  13.437  0.0749  0.5191 -0.4214
  913TIP3    H124154   6.193   6.310  13.497  1.3161  0.3454 -1.9756
  913TIP3    H224155   6.086   6.408  13.456  0.9425  0.7605 -0.0078
  914TIP3   OH224156   4.211   3.650   0.170  0.4489 -0.4151  0.4453
  914TIP3    H124157   4.159   3.720   0.210 -0.7748 -1.1707  0.1962
  914TIP3    H224158   4.150   3.603   0.115  1.7147 -0.5078 -0.9116
  915TIP3   OH224159   6.340   6.099   0.593 -0.3591  0.2711  0.2431
  915TIP3    H124160   6.270   6.106   0.658 -0.5248 -0.7887  0.1836
  915TIP3    H224161   6.410   6.155   0.627 -0.4196 -0.3249  1.3626
  916TIP3   OH224162   2.043   5.710  15.897 -0.3429  0.1902 -0.1307
  916TIP3    H124163   2.029   5.789  15.949 -0.8328  1.8922 -2.7391
  916TIP3    H224164   2.138   5.695  15.901 -0.3721  0.2862  1.2107
  917TIP3   OH224165   6.601   0.368  14.967 -0.1533  0.3058  0.2637
  917TIP3    H124166   6.579   0.287  14.921 -0.8613  1.2557 -1.1124
  917TIP3    H224167   6.542   0.433  14.929  1.7170  1.8690 -0.0146
  918TIP3   OH224168   5.516   1.464   3.615  0.1219 -0.5039  0.1465
  918TIP3    H124169   5.427   1.429   3.608 -0.4197  0.8519 -0.0127
  918TIP3    H224170   5.507   1.541   3.671  1.3703 -0.9167  0.9224
  919TIP3   OH224171   4.025   1.372   3.682  0.4928  0.2152 -0.5103
  919TIP3    H124172   4.051   1.457   3.648  1.6704  0.3038  0.5886
  919TIP3    H224173   3.935   1.361   3.651  0.2372  1.9698 -0.4592
  920TIP3   OH224174   1.638   4.338   4.153 -0.1824 -1.0719  0.5606
  920TIP3    H124175   1.654   4.331   4.059 -1.2348  1.1546  0.1802
  920TIP3    H224176   1.671   4.425   4.176 -4.6360  0.5859  1.1975
  921TIP3   OH224177   5.850   6.702  15.321  0.1813  0.3142  0.4272
  921TIP3    H124178   5.809   6.789  15.321  2.7400  1.6337  4.2503
  921TIP3    H224179   5.785   6.645  15.361 -0.9069  0.7707 -0.6535
  922TIP3   OH224180   1.659   5.268   1.384  0.1821  0.3542 -0.2497
  922TIP3    H124181   1.684   5.220   1.305  2.0643 -0.6539  0.9343
  922TIP3    H224182   1.591   5.214   1.424 -0.2899  0.5246 -0.8175
  923TIP3   OH224183   3.130   1.153   3.272 -0.0529  0.1998  0.5009
  923TIP3    H124184   3.146   1.061   3.294 -0.9611  0.1083  0.7881
  923TIP3    H224185   3.215   1.185   3.240  0.1439 -0.8590 -0.0411
  924TIP3   OH224186   0.897   3.851   5.642  0.4622 -0.5810  0.4258
  924TIP3    H124187   0.846   3.863   5.722 -1.5774  2.0162 -1.1632
  924TIP3    H224188   0.978   3.900   5.658  0.2194 -0.3832  1.0436
  925TIP3   OH224189   4.396   5.259   4.947  0.9641  0.4724  0.2763
  925TIP3    H124190   4.474   5.314   4.940  0.5039  1.1635  0.5324
  925TIP3    H224191   4.323   5.321   4.951  0.4864 -0.1411  1.2093
  926TIP3   OH224192   3.927   5.480   2.922 -0.0165 -0.6515  0.7611
  926TIP3    H124193   3.851   5.508   2.972 -0.0580 -1.2627  1.0397
  926TIP3    H224194   3.952   5.396   2.960 -0.2512 -1.2896 -0.4658
  927TIP3   OH224195   3.991   6.448  14.631  0.0983  0.2934  0.2908
  927TIP3    H124196   3.932   6.411  14.565  0.8447  0.9138 -0.7363
  927TIP3    H224197   4.073   6.400  14.620  0.6440  1.2945 -0.1495
  928TIP3   OH224198   0.746   0.645   2.881 -0.3299 -0.3233 -0.1052
  928TIP3    H124199   0.799   0.684   2.950 -0.7917 -3.0355  1.8467
  928TIP3    H224200   0.808   0.597   2.826 -0.0968  1.0508 -1.0978
  929TIP3   OH224201   0.402   1.797   2.860  0.2219  0.3255  0.4981
  929TIP3    H124202   0.453   1.727   2.900  1.6484  0.2037 -1.4605
  929TIP3    H224203   0.324   1.753   2.826  0.2426  0.0078  0.8576
  930TIP3   OH224204   1.988   0.482  11.937  0.3575  0.4730 -0.5313
  930TIP3    H124205   1.998   0.513  12.027  2.5310 -2.4675  0.3339
  930TIP3    H224206   1.981   0.562  11.885 -0.0915  2.2522  2.1316
  931TIP3   OH224207   2.596   0.509  15.325  1.2150  0.1919  0.1517
  931TIP3    H124208   2.549   0.587  15.355  0.8116  0.2756 -0.6778
  931TIP3    H224209   2.557   0.489  15.240  1.2982 -0.9354  0.3730
  932TIP3   OH224210   0.989   1.877  14.088 -0.0631 -0.7236  0.6088
  932TIP3    H124211   0.947   1.791  14.089 -2.1431  0.2506  0.7921
  932TIP3    H224212   1.004   1.896  13.996 -2.1697 -0.1151  0.3631
  933TIP3   OH224213   2.446   0.369  11.912 -0.2598 -0.0741  0.4077
  933TIP3    H124214   2.499   0.290  11.911  0.9771  0.7340  0.1653
  933TIP3    H224215   2.370   0.347  11.965 -1.5736 -2.4427 -2.3672
  934TIP3   OH224216   5.429   5.620  14.826  0.4787  0.0984  0.5536
  934TIP3    H124217   5.359   5.627  14.891 -0.1332  2.1814 -0.2788
  934TIP3    H224218   5.508   5.646  14.874 -0.0166  1.9255  0.4210
  935TIP3   OH224219   4.739   1.096   4.257 -0.5789  0.0177  0.3153
  935TIP3    H124220   4.672   1.037   4.221 -0.8149  1.2509 -1.3302
  935TIP3    H224221   4.781   1.134   4.180  0.8701  0.5519  1.3533
  936TIP3   OH224222   4.603   6.153   5.174  0.2953 -0.4865 -0.1309
  936TIP3    H124223   4.591   6.248   5.177  0.5346 -0.4623  0.0716
  936TIP3    H224224   4.688   6.138   5.217  0.8760 -0.6818 -1.3335
  937TIP3   OH224225   2.232   1.974   5.540 -0.3123 -0.0295 -0.1424
  937TIP3    H124226   2.239   1.917   5.464  1.4694  0.5227 -0.4122
  937TIP3    H224227   2.170   1.929   5.598  1.5250 -2.5503 -0.0858
  938TIP3   OH224228   5.540   1.515   1.723  0.3889 -0.0842 -0.5277
  938TIP3    H124229   5.600   1.544   1.791 -0.6259 -0.8215  0.7148
  938TIP3    H224230   5.514   1.595   1.678  1.4837  0.3510 -0.3872
  939TIP3   OH224231   5.058   0.208  11.106 -0.7082 -0.1890 -0.3183
  939TIP3    H124232   5.139   0.255  11.124 -0.0664 -0.7639 -1.6866
  939TIP3    H224233   5.055   0.199  11.011 -1.9680 -0.8972 -0.2309
  940TIP3   OH224234   5.963   3.620  13.488 -0.3376 -0.4987 -0.0091
  940TIP3    H124235   5.957   3.612  13.393 -1.1476  1.2162 -0.1220
  940TIP3    H224236   5.977   3.713  13.503  1.9159 -1.0506  1.4763
  941TIP3   OH224237   0.187   5.170   4.354  0.3339 -0.1914 -0.0479
  941TIP3    H124238   0.243   5.131   4.421  0.3661 -0.0014  0.0360
  941TIP3    H224239   0.194   5.264   4.368 -1.6762 -0.2242  1.3136
  942TIP3   OH224240   4.436   4.018  15.219 -0.1853  0.1149  0.0310
  942TIP3    H124241   4.436   4.113  15.205  0.2135  0.1017 -0.0533
  942TIP3    H224242   4.463   3.981  15.135 -2.0583 -0.1598 -0.4789
  943TIP3   OH224243   4.928   3.515   0.258  0.4759 -0.0352  0.4157
  943TIP3    H124244   4.983   3.570   0.202 -0.2492  1.2796  0.9936
  943TIP3    H224245   4.889   3.575   0.321 -1.4067 -1.0033  0.2098
  944TIP3   OH224246   3.845   0.366   3.299  0.2435 -0.0228  0.7952
  944TIP3    H124247   3.845   0.324   3.385  1.6320  0.2521  0.9253
  944TIP3    H224248   3.922   0.422   3.299 -0.4114  0.8928 -0.1906
  945TIP3   OH224249   0.031   2.099  11.353 -0.3464  0.2006  0.1823
  945TIP3    H124250   0.039   2.106  11.448 -1.5201  2.1206  0.1690
  945TIP3    H224251  -0.041   2.038  11.339  0.4914 -0.8736  0.5050
  946TIP3   OH224252   5.803   0.863  11.259  0.1625 -0.3169 -0.0089
  946TIP3    H124253   5.783   0.955  11.271  2.2584  0.3926 -1.6288
  946TIP3    H224254   5.717   0.821  11.244 -0.7595  1.4074  0.3694
  947TIP3   OH224255   4.120   2.128   4.119 -0.3260 -0.0926 -0.2602
  947TIP3    H124256   4.157   2.063   4.060 -0.7628 -0.4914 -0.0963
  947TIP3    H224257   4.051   2.171   4.068 -0.1544  0.1242 -0.3109
  948TIP3   OH224258   2.951   2.400   1.751  0.0127  0.8350 -0.2146
  948TIP3    H124259   2.913   2.396   1.839  0.1145 -2.0891 -0.2591
  948TIP3    H224260   2.997   2.485   1.749 -0.7946  1.3769  2.1997
  949TIP3   OH224261   0.838   2.635   1.947 -0.1095  0.2454  0.6622
  949TIP3    H124262   0.850   2.573   1.875 -0.3903  0.5248  0.3719
  949TIP3    H224263   0.892   2.600   2.018  0.9309  0.4881 -0.0001
  950TIP3   OH224264   2.692   5.760  16.942 -0.1696  0.1442  0.6090
  950TIP3    H124265   2.673   5.701  16.870 -0.0687 -0.3994  1.0193
  950TIP3    H224266   2.655   5.716  17.019 -0.9558  1.0757  0.7748
  951TIP3   OH224267   5.797   2.842   3.107  0.2687  0.2924  0.0360
  951TIP3    H124268   5.883   2.882   3.121  0.1259  0.2495  1.1364
  951TIP3    H224269   5.816   2.763   3.057  0.7933  0.6562 -0.3406
  952TIP3   OH224270   3.882   1.551   1.104  0.2389 -0.2896  0.1171
  952TIP3    H124271   3.808   1.593   1.148  0.1895  2.1148 -2.1762
  952TIP3    H224272   3.844   1.476   1.059 -0.3224 -0.6041  1.0905
  953TIP3   OH224273   6.271   5.017   3.618 -0.0784 -0.0052 -0.1341
  953TIP3    H124274   6.340   5.063   3.666  0.4022 -0.8883  0.0279
  953TIP3    H224275   6.246   5.078   3.548  2.1123 -0.3943 -1.2873
  954TIP3   OH224276   2.644   4.715   4.798  0.4025  0.0885  0.5665
  954TIP3    H124277   2.713   4.777   4.821  0.9378  0.5400 -2.1676
  954TIP3    H224278   2.676   4.631   4.830  0.8641  0.7711  1.9450
  955TIP3   OH224279   1.490   3.632   1.700  0.2249 -0.5505  0.6083
  955TIP3    H124280   1.423   3.638   1.632  1.1391  1.1636 -0.1535
  955TIP3    H224281   1.441   3.633   1.782 -0.6942  0.4301  0.0524
  956TIP3   OH224282   5.458   1.910   4.756  0.4046 -0.4414 -0.0068
  956TIP3    H124283   5.432   1.850   4.826 -0.9061  0.2301  0.0861
  956TIP3    H224284   5.516   1.973   4.800  2.0817 -1.8152 -0.1774
  957TIP3   OH224285   3.752   2.823   3.962 -0.1067  0.9836 -0.0416
  957TIP3    H124286   3.657   2.833   3.969 -0.1508  0.4817  0.0743
  957TIP3    H224287   3.776   2.768   4.036  0.7961  4.2539  2.1988
  958TIP3   OH224288   1.920   6.549  10.871 -0.2902  0.2733  0.1514
  958TIP3    H124289   1.945   6.586  10.787  0.4530 -0.1688  0.1686
  958TIP3    H224290   1.899   6.458  10.852 -0.5244  0.2810  0.3755
  959TIP3   OH224291   5.076   0.373  12.010 -0.0269 -0.9583 -0.6283
  959TIP3    H124292   5.118   0.414  12.085  2.5770 -0.9873 -1.9915
  959TIP3    H224293   5.044   0.446  11.957  1.1354 -0.8136 -1.1359
  960TIP3   OH224294   4.486   3.373   1.517 -0.2567  0.1513  0.7100
  960TIP3    H124295   4.452   3.462   1.519  0.9065  0.6171  0.5299
  960TIP3    H224296   4.574   3.380   1.555 -0.1182 -0.8966  0.6103
  961TIP3   OH224297   4.793   0.883  14.352 -0.1255 -0.1762  0.5109
  961TIP3    H124298   4.732   0.865  14.281  0.1088  0.5270  0.1326
  961TIP3    H224299   4.818   0.796  14.385 -2.3052 -0.4491  1.5231
  962TIP3   OH224300   5.925   4.518  12.917 -0.1013  0.1561  0.2773
  962TIP3    H124301   5.944   4.573  12.993 -0.2660  0.0017  0.4317
  962TIP3    H224302   5.965   4.433  12.938  1.3017  0.5997 -0.5387
  963TIP3   OH224303   0.701   1.273  12.070 -0.4921  0.6064 -0.5789
  963TIP3    H124304   0.701   1.298  11.978 -1.3563  0.2629 -0.6742
  963TIP3    H224305   0.719   1.355  12.117 -0.9008  0.9432 -1.0047
  964TIP3   OH224306   3.177   1.867   3.259 -0.4510  0.3574  0.6923
  964TIP3    H124307   3.138   1.798   3.312  1.2858 -0.5489  0.8121
  964TIP3    H224308   3.140   1.948   3.295 -3.1759 -0.5113 -0.0158
  965TIP3   OH224309   3.094   4.110  12.093 -0.0182 -0.0058  0.0175
  965TIP3    H124310   3.046   4.161  12.158 -1.4151 -1.2096 -0.0229
  965TIP3    H224311   3.179   4.093  12.132 -0.2416  0.7062  0.8232
  966TIP3   OH224312   2.505   1.251   1.182  0.6763 -0.6981  0.2454
  966TIP3    H124313   2.450   1.284   1.112 -0.1151  2.3251  2.1868
  966TIP3    H224314   2.444   1.218   1.248  1.2106  0.8163  1.5314
  967TIP3   OH224315   6.520   2.172   6.066  0.4705  0.2523 -0.6393
  967TIP3    H124316   6.459   2.242   6.089 -0.0558 -0.8960  1.5563
  967TIP3    H224317   6.572   2.158   6.145  0.8544 -1.5570 -1.1940
  968TIP3   OH224318   4.092   6.686  16.735 -0.3438 -0.2910 -0.1843
  968TIP3    H124319   4.045   6.668  16.654 -1.1858 -0.2579  0.2909
  968TIP3    H224320   4.045   6.760  16.774  0.5834  0.2556 -0.0955
  969TIP3   OH224321   3.106   5.983   2.768 -0.1666 -0.2468 -0.7158
  969TIP3    H124322   3.048   5.967   2.694 -1.5348 -1.7132  0.6426
  969TIP3    H224323   3.145   5.898   2.788  1.3256  0.4290 -0.6692
  970TIP3   OH224324   1.400   5.015   0.536 -0.0880  0.3518  0.1013
  970TIP3    H124325   1.473   5.021   0.475 -0.5797 -0.2098 -0.5609
  970TIP3    H224326   1.420   4.940   0.591 -1.0314 -0.9761 -1.2946
  971TIP3   OH224327   5.680   5.501  16.492 -0.1280 -0.2350  0.6476
  971TIP3    H124328   5.601   5.506  16.545 -1.0796 -0.4285 -0.7231
  971TIP3    H224329   5.681   5.411  16.458  0.7149 -0.2554  0.7112
  972TIP3   OH224330   5.775   5.509   3.272 -0.9042 -0.2996  0.7575
  972TIP3    H124331   5.766   5.553   3.356  0.6495  1.0649  0.2205
  972TIP3    H224332   5.869   5.498   3.260 -1.1182 -0.6660 -0.7186
  973TIP3   OH224333   6.738   2.736  13.613 -0.2180 -0.2141  0.5241
  973TIP3    H124334   6.759   2.708  13.702 -3.5388 -2.3144  0.7155
  973TIP3    H224335   6.651   2.774  13.619 -0.3615 -0.0849 -1.7965
  974TIP3   OH224336   6.241   3.214  15.408  0.0952  0.6960  0.1934
  974TIP3    H124337   6.218   3.288  15.465  1.9789  0.8449  0.8074
  974TIP3    H224338   6.287   3.255  15.335  1.2044  0.1346  0.5733
  975TIP3   OH224339   2.085   5.685   0.522 -0.0242  0.6861 -0.9179
  975TIP3    H124340   2.102   5.616   0.457  0.3437 -0.1243  0.0312
  975TIP3    H224341   2.021   5.646   0.582 -0.1278  1.3255 -0.6069
  976TIP3   OH224342   0.489   0.480   0.428 -0.1806  0.3849  0.2261
  976TIP3    H124343   0.471   0.553   0.487  0.2978  1.3314 -0.7780
  976TIP3    H224344   0.531   0.520   0.352  1.9473 -1.2126  0.5334
  977TIP3   OH224345   5.352   3.448  16.324 -0.0787  0.1223 -0.3068
  977TIP3    H124346   5.420   3.478  16.264  1.1551 -0.6671  0.6605
  977TIP3    H224347   5.341   3.520  16.386  0.5207 -0.0986  0.0608
  978TIP3   OH224348   5.602   1.058   4.159  0.2884  0.1759 -0.4859
  978TIP3    H124349   5.553   0.993   4.109 -1.5861  1.4096 -0.3170
  978TIP3    H224350   5.653   1.105   4.093  0.5801 -0.5411 -0.7791
  979TIP3   OH224351   6.720   2.742  13.912  0.1213 -0.2143  0.4728
  979TIP3    H124352   6.699   2.812  13.974 -2.0908  0.5033 -0.9901
  979TIP3    H224353   6.815   2.733  13.917  0.3966  2.4854  1.1504
  980TIP3   OH224354   0.880   3.034  15.231 -0.2154  0.1499  0.2812
  980TIP3    H124355   0.817   3.097  15.267 -0.5024 -0.5259  0.9765
  980TIP3    H224356   0.826   2.970  15.184 -0.0987 -0.7100  1.3025
  981TIP3   OH224357   0.779   2.510  16.750 -0.7468 -0.1720  0.1236
  981TIP3    H124358   0.834   2.520  16.828 -0.9141  2.7831 -0.0611
  981TIP3    H224359   0.705   2.569  16.766 -1.2132 -0.1783 -1.8901
  982TIP3   OH224360   1.773   5.444  12.811  0.6548 -0.2993 -0.1099
  982TIP3    H124361   1.693   5.424  12.763  0.5787 -0.5800  0.1306
  982TIP3    H224362   1.832   5.480  12.745  0.2642  0.0897 -0.2497
  983TIP3   OH224363   3.004   1.853   0.360 -0.0946 -0.0892  0.0877
  983TIP3    H124364   3.058   1.787   0.403  0.8592  0.9610  0.5326
  983TIP3    H224365   2.992   1.821   0.271 -1.8269 -2.1430  1.0340
  984TIP3   OH224366   3.477   0.527  15.604 -0.1176 -0.3232  0.1415
  984TIP3    H124367   3.555   0.483  15.569  0.5032  1.0892 -0.2761
  984TIP3    H224368   3.409   0.460  15.601  1.0688 -1.5641  0.4839
  985TIP3   OH224369   3.053   2.571   2.857  0.3947  0.1586 -0.3286
  985TIP3    H124370   3.107   2.503   2.819 -0.3912 -0.3890 -0.4780
  985TIP3    H224371   3.107   2.650   2.854  1.2239 -0.4118 -0.3447
  986TIP3   OH224372   4.335   3.239   4.230  0.0222 -0.8085  0.2714
  986TIP3    H124373   4.271   3.198   4.172 -0.2350 -0.3142  0.1981
  986TIP3    H224374   4.284   3.268   4.306  0.2766 -1.0301  0.5289
  987TIP3   OH224375   0.547   6.159   4.337 -0.4246  0.3028 -0.1561
  987TIP3    H124376   0.624   6.186   4.286  0.3270 -0.1635  0.7104
  987TIP3    H224377   0.529   6.070   4.308  0.5696 -0.3059  1.0188
  988TIP3   OH224378   0.220   0.076  16.050  0.4156  0.0354  0.4109
  988TIP3    H124379   0.182   0.141  16.108  0.9724 -0.3525  1.2142
  988TIP3    H224380   0.258   0.011  16.108  1.0044 -0.3437 -0.3861
  989TIP3   OH224381   5.499   6.121   3.897 -0.2054 -0.7749  0.3214
  989TIP3    H124382   5.513   6.032   3.864 -0.8164 -0.2649 -1.3345
  989TIP3    H224383   5.403   6.128   3.905 -0.3264  0.5713 -1.9590
  990TIP3   OH224384   2.512   2.217   3.618 -0.2727  0.0288  0.0825
  990TIP3    H124385   2.510   2.306   3.583  0.1953 -0.0448 -0.1374
  990TIP3    H224386   2.597   2.182   3.590  0.2769  0.0963  1.5904
  991TIP3   OH224387   2.857   1.104   2.792  0.9452 -0.0189 -0.1852
  991TIP3    H124388   2.802   1.110   2.870 -2.5480  0.3042 -2.5271
  991TIP3    H224389   2.900   1.019   2.800 -1.4031 -1.1689  0.8608
  992TIP3   OH224390   3.526   3.276   3.035 -0.2657 -0.0169 -0.2370
  992TIP3    H124391   3.534   3.181   3.045  0.1211  0.1403  0.9941
  992TIP3    H224392   3.519   3.290   2.941  1.5937 -1.1227 -0.5599
  993TIP3   OH224393   4.511   2.572   4.776  0.5103 -0.4969  0.8756
  993TIP3    H124394   4.439   2.511   4.761  0.3493 -0.4672  1.4935
  993TIP3    H224395   4.503   2.636   4.706  0.9138 -1.3924 -0.0109
  994TIP3   OH224396   1.649   3.913   2.550 -0.1099 -0.3134 -0.0807
  994TIP3    H124397   1.695   3.858   2.486  0.9039 -1.4327  1.5738
  994TIP3    H224398   1.653   4.001   2.513  3.4162 -0.3685 -0.0120
  995TIP3   OH224399   3.051   4.381  16.380  0.1227  0.2014  0.5084
  995TIP3    H124400   3.092   4.317  16.437  0.6310 -0.3475 -0.4535
  995TIP3    H224401   2.960   4.352  16.371  0.2593 -0.1885  0.3660
  996TIP3   OH224402   2.503   2.890  11.496 -0.0909  0.6800 -0.3337
  996TIP3    H124403   2.583   2.884  11.548  0.9650 -0.7624 -2.0669
  996TIP3    H224404   2.465   2.802  11.499 -0.7360  0.9290 -0.9007
  997TIP3   OH224405   5.002   4.286  13.090  0.4727 -0.3127  0.5929
  997TIP3    H124406   5.086   4.321  13.062  1.4655 -2.5999  0.6116
  997TIP3    H224407   5.002   4.296  13.185  0.2864  0.5746  0.5086
  998TIP3   OH224408   5.784   6.680  11.651 -0.2188 -0.0889 -0.1658
  998TIP3    H124409   5.713   6.664  11.589 -0.7782  2.2043 -0.1592
  998TIP3    H224410   5.744   6.671  11.737 -0.2610  0.2373 -0.1530
  999TIP3   OH224411   0.777   0.261  12.352  0.2597  0.3940 -0.3390
  999TIP3    H124412   0.802   0.317  12.279  2.3983  1.3470  1.0581
  999TIP3    H224413   0.708   0.309  12.398 -2.1133 -0.8559 -2.4851
 1000TIP3   OH224414   4.854   0.186  10.466 -0.0563  0.6398  0.0909
 1000TIP3    H124415   4.842   0.129  10.542  0.7322  1.6241  0.9782
 1000TIP3    H224416   4.851   0.127  10.391 -0.4467 -0.4057  0.9179
 1001TIP3   OH224417   6.378   5.257   1.849  0.4128  0.0957 -0.3041
 1001TIP3    H124418   6.342   5.263   1.761 -0.5499 -1.9474 -0.0672
 1001TIP3    H224419   6.302   5.274   1.906  0.4068 -1.4346  0.1587
 1002TIP3   OH224420   2.916   3.644  13.741  0.1396  0.2134 -0.1480
 1002TIP3    H124421   2.826   3.676  13.744  0.4339  1.0025  0.1438
 1002TIP3    H224422   2.925   3.606  13.653 -0.8820 -1.0415  0.2742
 1003TIP3   OH224423   5.366   3.459   0.110 -0.1083  0.3998  0.2167
 1003TIP3    H124424   5.294   3.397   0.119 -0.9517  1.1113 -1.4226
 1003TIP3    H224425   5.352   3.522   0.180  0.1943 -0.6794  1.2721
 1004TIP3   OH224426   5.958   5.399   1.719 -0.0027 -0.0089  0.7935
 1004TIP3    H124427   5.873   5.395   1.763  0.2724  1.2938  1.4709
 1004TIP3    H224428   5.959   5.324   1.661 -1.0233 -0.8677  1.8736
 1005TIP3   OH224429   5.546   5.922  13.148  0.0333  0.2163 -0.1371
 1005TIP3    H124430   5.464   5.923  13.097 -0.3056 -1.0745  0.3535
 1005TIP3    H224431   5.608   5.876  13.091  0.2626  0.6934 -0.2742
 1006TIP3   OH224432   4.489   1.295  12.552  0.1717 -0.0876  0.2887
 1006TIP3    H124433   4.428   1.243  12.501 -0.4028  0.6736  0.1965
 1006TIP3    H224434   4.437   1.369  12.584  0.9806  0.4320  0.4128
 1007TIP3   OH224435   4.799   0.342   1.870  0.1541  0.6007  0.4738
 1007TIP3    H124436   4.789   0.421   1.817  1.0307 -0.2267 -0.9502
 1007TIP3    H224437   4.804   0.271   1.807  1.6391 -0.3679  1.6248
 1008TIP3   OH224438   3.216   3.969  11.278  0.3111 -0.3048  0.0471
 1008TIP3    H124439   3.192   3.903  11.214 -0.9681  0.0147  0.1794
 1008TIP3    H224440   3.194   3.931  11.363 -1.8024  0.8283  0.0386
 1009TIP3   OH224441   3.815   1.342  15.403 -0.0679 -0.0338 -0.5716
 1009TIP3    H124442   3.743   1.400  15.377  0.3888  0.7333 -0.1583
 1009TIP3    H224443   3.808   1.338  15.498  1.1106  0.9560 -0.4298
 1010TIP3   OH224444   3.575   3.211   0.443  0.0712  0.1278  0.1950
 1010TIP3    H124445   3.662   3.177   0.465  0.1894  0.0524 -0.3740
 1010TIP3    H224446   3.532   3.224   0.528  0.4504 -0.3233  0.4593
 1011TIP3   OH224447   0.570   3.811  11.819 -0.2953  0.1038  0.4135
 1011TIP3    H124448   0.557   3.803  11.914 -1.0944  0.9436  0.3730
 1011TIP3    H224449   0.661   3.783  11.806 -0.8668 -2.2435  1.1321
 1012TIP3   OH224450   1.878   6.485   6.428 -0.0746 -0.1763 -0.3845
 1012TIP3    H124451   1.841   6.522   6.347  0.2935  0.6157 -0.1874
 1012TIP3    H224452   1.939   6.551   6.459 -1.4368  0.2481  1.4412
 1013TIP3   OH224453   5.563   3.249  14.631  0.0672 -0.1322 -0.1048
 1013TIP3    H124454   5.478   3.271  14.670  0.2626  2.9213 -1.2335
 1013TIP3    H224455   5.582   3.323  14.574  3.3904 -0.9075 -0.0760
 1014TIP3   OH224456   0.243   3.769  14.428 -0.6868 -0.1875  0.5654
 1014TIP3    H124457   0.311   3.704  14.412  0.6398  0.6659  2.4600
 1014TIP3    H224458   0.260   3.838  14.363 -1.0859 -0.9511 -0.3633
 1015TIP3   OH224459   1.839   1.267  14.391 -0.0030  0.1179 -0.4980
 1015TIP3    H124460   1.799   1.349  14.361 -0.1492  1.0151  1.9976
 1015TIP3    H224461   1.890   1.292  14.468  1.8927 -1.7650 -1.0941
 1016TIP3   OH224462   4.249   5.770  11.750 -0.1279 -0.0256 -0.6813
 1016TIP3    H124463   4.168   5.773  11.802  0.1534  0.3245 -0.2598
 1016TIP3    H224464   4.318   5.795  11.812  0.1683  0.7014 -1.2979
 1017TIP3   OH224465   2.499   4.438  15.594  0.1161 -0.3946  0.1918
 1017TIP3    H124466   2.572   4.382  15.567 -1.1559 -1.3594 -1.3564
 1017TIP3    H224467   2.428   4.377  15.614 -1.6802  0.6262 -2.7078
 1018TIP3   OH224468   1.480   0.993  12.786 -0.8245  0.6430  0.3562
 1018TIP3    H124469   1.520   0.981  12.872 -1.1404  0.6337  0.4995
 1018TIP3    H224470   1.431   1.075  12.794 -0.1073  1.1207 -0.0874
 1019TIP3   OH224471   0.357   5.700  14.483 -0.7113  0.3632 -0.7432
 1019TIP3    H124472   0.313   5.683  14.566 -0.7244  3.1738 -0.1343
 1019TIP3    H224473   0.430   5.638  14.481 -1.1639 -0.2460  0.9949
 1020TIP3   OH224474   4.642   1.482  12.795  0.4051  0.2481 -0.6967
 1020TIP3    H124475   4.600   1.440  12.870 -1.1898 -1.1442 -2.3289
 1020TIP3    H224476   4.698   1.414  12.758 -2.7725 -0.8080 -3.8051
 1021TIP3   OH224477   5.729   2.032   5.532 -0.0833 -0.9595  0.2653
 1021TIP3    H124478   5.679   1.950   5.529 -1.5028 -0.2025  2.4489
 1021TIP3    H224479   5.674   2.095   5.486  0.2214 -0.7918  0.1271
 1022TIP3   OH224480   1.389   5.336   1.878 -0.2186  0.0266 -0.0390
 1022TIP3    H124481   1.450   5.340   1.952  0.0752 -0.4296 -0.2549
 1022TIP3    H224482   1.442   5.302   1.805 -0.0319  2.1674 -0.9407
 1023TIP3   OH224483   1.133   5.357  14.187 -0.2640  0.4260  0.1184
 1023TIP3    H124484   1.088   5.348  14.271 -2.2914  2.1185 -0.7417
 1023TIP3    H224485   1.166   5.447  14.187 -1.5516  0.9236 -1.4836
 1024TIP3   OH224486   3.555   5.952   4.926 -0.1296 -0.0747  0.6172
 1024TIP3    H124487   3.532   5.982   4.838 -0.6060  1.4976  1.2665
 1024TIP3    H224488   3.529   5.860   4.928  0.6863 -0.3610 -1.1652
 1025TIP3   OH224489   2.502   1.228  16.134  0.3293  0.0480 -0.3533
 1025TIP3    H124490   2.460   1.295  16.188  0.9420  1.4355 -1.5588
 1025TIP3    H224491   2.541   1.167  16.196 -1.9717 -0.3069  0.7710
 1026TIP3   OH224492   4.516   5.118   2.773  0.1267  0.2127  0.2003
 1026TIP3    H124493   4.467   5.138   2.694  1.0941 -0.1590 -0.4995
 1026TIP3    H224494   4.607   5.115   2.745  0.2095 -3.4757  0.5753
 1027TIP3   OH224495   1.443   2.909  15.709  0.0229 -0.5638  0.3791
 1027TIP3    H124496   1.478   2.867  15.788  1.0241 -2.3927 -0.9894
 1027TIP3    H224497   1.513   2.967  15.680 -0.0424 -0.4712  0.4066
 1028TIP3   OH224498   5.192   4.048  11.293  0.1047  0.3178 -0.2258
 1028TIP3    H124499   5.285   4.058  11.274  0.0547  2.4787  0.5613
 1028TIP3    H224500   5.186   4.058  11.388 -0.9541  0.3157 -0.2871
 1029TIP3   OH224501   3.627   5.900   4.644  0.6827 -0.7762 -0.2546
 1029TIP3    H124502   3.564   5.922   4.575 -1.8217 -2.4003  1.4420
 1029TIP3    H224503   3.694   5.847   4.599 -0.3646 -0.9562 -1.6356
 1030TIP3   OH224504   6.610   1.561   6.519 -0.0953 -0.2687 -0.1897
 1030TIP3    H124505   6.646   1.497   6.581 -0.0254 -0.2063 -0.1654
 1030TIP3    H224506   6.526   1.524   6.493  0.7464 -1.2642 -1.5492
 1031TIP3   OH224507   2.308   1.175   1.385  0.1561 -0.0441 -0.4651
 1031TIP3    H124508   2.324   1.267   1.366 -0.6223 -0.1978 -1.9926
 1031TIP3    H224509   2.338   1.163   1.475  0.4331  1.6508 -0.3134
 1032TIP3   OH224510   2.141   4.562   2.669 -0.6772  0.4911 -0.5497
 1032TIP3    H124511   2.049   4.554   2.644 -0.9441  0.2330  0.4956
 1032TIP3    H224512   2.140   4.568   2.765  0.2413  2.7210 -0.6549
 1033TIP3   OH224513   0.853   5.192   3.295 -0.1089  0.2625 -0.1687
 1033TIP3    H124514   0.808   5.179   3.379  1.0470  0.2303  0.4566
 1033TIP3    H224515   0.782   5.196   3.231 -0.9416 -1.1385  0.6237
 1034TIP3   OH224516   0.507   1.616   3.356  0.0921  0.0200 -0.5995
 1034TIP3    H124517   0.443   1.679   3.389  0.8929  0.7904 -0.4856
 1034TIP3    H224518   0.556   1.664   3.289  1.0254 -0.3092 -0.1762
 1035TIP3   OH224519   5.406   1.714  12.862  0.0192  0.5509 -0.7217
 1035TIP3    H124520   5.339   1.714  12.930  1.6191  0.4554  0.8845
 1035TIP3    H224521   5.367   1.764  12.790 -0.6025  3.2085  1.3710
 1036TIP3   OH224522   0.125   0.609  16.648 -0.2990  0.3567 -0.1553
 1036TIP3    H124523   0.176   0.595  16.568 -0.4468 -3.1377  0.2914
 1036TIP3    H224524   0.036   0.583  16.624  0.1794 -3.5304  1.8161
 1037TIP3   OH224525   2.145   5.446  13.024 -0.1993  0.1328 -0.2419
 1037TIP3    H124526   2.154   5.508  12.952  0.3341  0.7685  0.3670
 1037TIP3    H224527   2.065   5.472  13.069  0.4110  0.8334  0.4458
 1038TIP3   OH224528   1.456   3.106   0.450 -0.2006  0.3420 -0.0303
 1038TIP3    H124529   1.445   3.200   0.437  0.1530  0.3656 -0.1451
 1038TIP3    H224530   1.370   3.077   0.481 -0.2771  0.7202  0.1201
 1039TIP3   OH224531   2.321   2.770   5.068 -0.9085 -0.4497 -0.4660
 1039TIP3    H124532   2.408   2.800   5.042 -0.8597 -0.8931 -0.8127
 1039TIP3    H224533   2.328   2.756   5.163 -0.9959  0.8503 -0.2543
 1040TIP3   OH224534   3.094   6.689  16.382 -0.3308 -0.0881 -0.5504
 1040TIP3    H124535   3.153   6.688  16.307  0.8298  0.3055  0.3313
 1040TIP3    H224536   3.087   6.782  16.406 -0.9898 -0.1715 -0.4094
 1041TIP3   OH224537   6.312   3.044  13.382  0.0017 -0.4811 -0.9339
 1041TIP3    H124538   6.398   3.043  13.341 -0.2500  0.8120 -1.5369
 1041TIP3    H224539   6.265   3.114  13.336 -0.8032 -0.0561  0.5052
 1042TIP3   OH224540   2.717   1.326   5.990  0.1176  0.6277  0.2640
 1042TIP3    H124541   2.736   1.245   6.037  2.6242 -0.2332 -2.1195
 1042TIP3    H224542   2.699   1.390   6.059  2.8165 -0.8103  2.3907
 1043TIP3   OH224543   4.696   0.146  12.851  0.1537 -0.3357 -0.3434
 1043TIP3    H124544   4.753   0.207  12.898 -1.4424  2.6891 -2.1942
 1043TIP3    H224545   4.650   0.098  12.919  0.1579  1.7780  1.1889
 1044TIP3   OH224546   5.448   1.262  12.534 -0.4208 -0.1372 -0.2653
 1044TIP3    H124547   5.539   1.263  12.560 -0.7525 -0.1576  0.9094
 1044TIP3    H224548   5.450   1.244  12.440  0.6950 -1.9506  0.0989
 1045TIP3   OH224549   3.358   3.023   5.186  0.5796  0.0135 -0.2211
 1045TIP3    H124550   3.428   3.071   5.230  0.6308 -0.7388  0.5355
 1045TIP3    H224551   3.335   3.077   5.110  2.2055  0.0952 -0.6609
 1046TIP3   OH224552   2.262   0.645   1.977 -0.8358  0.0009 -0.4184
 1046TIP3    H124553   2.212   0.633   2.058 -0.4546  0.3542 -0.1292
 1046TIP3    H224554   2.202   0.693   1.920 -0.1870  2.0672  0.5792
 1047TIP3   OH224555   6.394   5.932  13.923 -0.4029 -0.0799  0.2354
 1047TIP3    H124556   6.336   6.005  13.942 -0.1612  0.2792 -0.4015
 1047TIP3    H224557   6.356   5.858  13.971 -0.8128  0.3906  0.6362
 1048TIP3   OH224558   2.173   4.094   1.642  0.0506  0.2118  0.2494
 1048TIP3    H124559   2.177   4.005   1.605 -0.3527  0.6219 -0.8138
 1048TIP3    H224560   2.112   4.086   1.715  1.2253 -0.7193  1.1672
 1049TIP3   OH224561   0.675   1.363   6.196 -0.2848 -0.4160  0.5533
 1049TIP3    H124562   0.723   1.282   6.215 -0.3101 -0.3144  1.0427
 1049TIP3    H224563   0.743   1.430   6.191 -0.4111 -0.1980  1.6566
 1050TIP3   OH224564   1.494   4.241  12.239  0.6795 -0.4510 -0.3882
 1050TIP3    H124565   1.514   4.196  12.157  3.0264 -3.1427  1.5377
 1050TIP3    H224566   1.418   4.195  12.274 -0.2961  0.6691 -1.0318
 1051TIP3   OH224567   5.276   0.458   2.967 -0.4993 -0.6039  0.0708
 1051TIP3    H124568   5.213   0.472   3.037  0.1217  1.0854  0.3104
 1051TIP3    H224569   5.340   0.529   2.977  1.1338 -1.9577 -0.4947
 1052TIP3   OH224570   6.429   3.364  12.766  0.4679 -0.3122 -0.0481
 1052TIP3    H124571   6.428   3.460  12.770  1.3102 -0.2388 -1.2469
 1052TIP3    H224572   6.345   3.341  12.728  0.9680  0.0611 -1.4237
 1053TIP3   OH224573   0.446   0.412  14.737  0.1087 -0.5006  0.1637
 1053TIP3    H124574   0.540   0.414  14.716  0.4117  0.1620  1.5857
 1053TIP3    H224575   0.404   0.386  14.654  1.6678 -2.4734 -0.0471
 1054TIP3   OH224576   1.845   3.149   3.720  0.6631  0.0373  0.3563
 1054TIP3    H124577   1.882   3.234   3.743  1.1526 -0.2340  0.5726
 1054TIP3    H224578   1.781   3.132   3.789  2.0321 -0.7108  1.4667
 1055TIP3   OH224579   1.344   3.742   1.058 -0.1902 -0.1298  0.1282
 1055TIP3    H124580   1.274   3.724   0.996  0.6818 -0.3047 -0.8098
 1055TIP3    H224581   1.378   3.828   1.033 -0.9680  0.5682  1.4281
 1056TIP3   OH224582   0.566   4.660   0.680  0.1715  0.3406  0.5342
 1056TIP3    H124583   0.502   4.729   0.664  1.0728  1.3243  1.0898
 1056TIP3    H224584   0.637   4.704   0.727  0.3439 -1.1567  1.7162
 1057TIP3   OH224585   1.462   0.785  11.035  0.0549 -0.5824  0.0605
 1057TIP3    H124586   1.424   0.844  11.100  2.1531  1.6748 -0.7033
 1057TIP3    H224587   1.408   0.798  10.957  0.4440  0.2597 -0.0724
 1058TIP3   OH224588   4.639   0.197  15.267 -0.1305  0.3060  0.3355
 1058TIP3    H124589   4.708   0.161  15.212 -0.8507 -0.0408 -0.3415
 1058TIP3    H224590   4.662   0.290  15.275  0.9969 -0.0126  0.9994
 1059TIP3   OH224591   0.573   4.340   5.117  0.0791  0.1689  0.1339
 1059TIP3    H124592   0.595   4.248   5.101  2.9202  0.9114 -0.5393
 1059TIP3    H224593   0.606   4.387   5.040  2.0176  2.1914  2.1112
 1060TIP3   OH224594   1.694   4.677   5.481  0.8087  0.7404 -0.0265
 1060TIP3    H124595   1.685   4.648   5.571  3.2059 -0.7987 -0.2284
 1060TIP3    H224596   1.645   4.758   5.476 -0.2858  0.2433  2.3669
 1061TIP3   OH224597   4.153   2.355  11.049 -0.1483 -0.5886  0.1731
 1061TIP3    H124598   4.212   2.287  11.018 -0.3645 -0.8057  0.2402
 1061TIP3    H224599   4.146   2.416  10.975 -2.4938 -2.2977 -1.0528
 1062TIP3   OH224600   3.939   4.791   5.704 -0.0477  0.2720 -0.1536
 1062TIP3    H124601   4.000   4.718   5.697 -0.4701  0.0567 -1.8618
 1062TIP3    H224602   3.937   4.812   5.797  1.2264 -0.9070  0.1559
 1063TIP3   OH224603   0.120   5.367   1.962  0.5346  0.3469 -0.2485
 1063TIP3    H124604   0.204   5.405   1.988  0.4833  1.0011 -1.0301
 1063TIP3    H224605   0.062   5.442   1.949  0.3172 -0.0168 -1.4254
 1064TIP3   OH224606   3.019   6.698   1.318 -0.2669 -0.3533  0.5536
 1064TIP3    H124607   3.021   6.656   1.232  0.0609 -1.7521  1.2410
 1064TIP3    H224608   2.982   6.785   1.300  1.7258  0.1713 -1.3194
 1065TIP3   OH224609   1.132   0.080   3.161 -0.2312  0.2588  0.1597
 1065TIP3    H124610   1.215   0.040   3.188  0.4216  0.7126 -1.1154
 1065TIP3    H224611   1.125   0.058   3.068 -0.8239  1.4390 -0.0790
 1066TIP3   OH224612   3.095   2.200  11.036 -0.7679 -0.4314 -0.1928
 1066TIP3    H124613   3.036   2.159  10.974  0.9245 -0.6089 -1.7487
 1066TIP3    H224614   3.180   2.159  11.019  0.0815  0.7448  1.0632
 1067TIP3   OH224615   5.595   1.760  15.245  0.1329 -0.1981  0.6271
 1067TIP3    H124616   5.554   1.846  15.248 -0.0196 -0.3281  2.7237
 1067TIP3    H224617   5.655   1.765  15.171 -1.8173  0.8135 -0.9434
 1068TIP3   OH224618   3.820   1.355   1.990 -0.6876 -0.6248 -0.1825
 1068TIP3    H124619   3.858   1.430   2.036 -1.4919 -0.4828  0.2678
 1068TIP3    H224620   3.865   1.279   2.026 -1.7999 -0.5751  1.3680
 1069TIP3   OH224621   2.097   1.584   0.369  0.1575 -0.5096 -1.0341
 1069TIP3    H124622   2.045   1.663   0.353  0.0501 -0.8265 -2.3384
 1069TIP3    H224623   2.058   1.545   0.447  0.8318  1.2300  0.2105
 1070TIP3   OH224624   3.897   3.296   4.562 -0.1125  0.5228 -0.6936
 1070TIP3    H124625   3.823   3.284   4.503  0.9461 -1.6663 -1.6261
 1070TIP3    H224626   3.859   3.289   4.650 -1.2748  1.1717 -1.1336
 1071TIP3   OH224627   3.354   0.482  17.050 -0.3188 -0.2337  0.3696
 1071TIP3    H124628   3.290   0.550  17.074 -1.1000 -0.7332 -0.2594
 1071TIP3    H224629   3.301   0.405  17.031  0.4694 -0.6401 -0.2226
 1072TIP3   OH224630   4.443   4.747  13.559 -0.6069  0.1021 -0.2603
 1072TIP3    H124631   4.392   4.802  13.618 -0.4364  0.4892 -0.4695
 1072TIP3    H224632   4.383   4.725  13.487 -0.4656  0.6090 -0.5388
 1073TIP3   OH224633   6.260   6.669  13.978  0.3277  0.0950 -0.0532
 1073TIP3    H124634   6.235   6.621  14.056 -0.4849  2.0325  0.9160
 1073TIP3    H224635   6.226   6.617  13.905  1.1385 -1.7534  0.8532
 1074TIP3   OH224636   5.647   1.057  16.797 -0.1505  0.3605  0.3129
 1074TIP3    H124637   5.665   1.029  16.708  0.2506  0.9524  0.2041
 1074TIP3    H224638   5.622   1.149  16.788  2.0990  1.0704  1.0442
 1075TIP3   OH224639   6.528   5.545  15.012  0.3563  0.1257 -0.4488
 1075TIP3    H124640   6.513   5.622  15.066  1.4717  0.6756 -0.9087
 1075TIP3    H224641   6.443   5.500  15.010  0.3657 -0.1039  2.0530
 1076TIP3   OH224642   5.810   3.614  12.261 -0.6368  0.2791 -0.2304
 1076TIP3    H124643   5.762   3.625  12.179 -0.0822  1.2578 -0.4344
 1076TIP3    H224644   5.902   3.615  12.234 -0.4675  0.0232  0.3367
 1077TIP3   OH224645   3.336   3.766  14.964 -0.7304 -0.5204 -0.4654
 1077TIP3    H124646   3.260   3.715  14.934 -0.2715 -1.5093  0.0374
 1077TIP3    H224647   3.408   3.702  14.967 -0.0375  0.2669 -0.2925
 1078TIP3   OH224648   0.894   2.145   0.105 -0.6010 -0.1348 -0.3202
 1078TIP3    H124649   0.860   2.064   0.067 -0.7469  0.8372 -2.2985
 1078TIP3    H224650   0.986   2.126   0.123 -1.0624 -1.3065  0.8947
 1079TIP3   OH224651   6.497   6.399   2.621 -0.6403  0.3327  0.2670
 1079TIP3    H124652   6.576   6.354   2.649 -0.6179 -0.7012 -1.4021
 1079TIP3    H224653   6.490   6.475   2.680  2.8217  1.7593 -1.0448
 1080TIP3   OH224654   3.358   5.883   2.293  0.4350  0.1464  0.3575
 1080TIP3    H124655   3.433   5.907   2.238 -0.7641  1.4401 -0.7551
 1080TIP3    H224656   3.352   5.954   2.357 -0.9788  1.0568 -0.7478
 1081TIP3   OH224657   4.004   5.419   2.643  0.2280  0.6681 -0.0316
 1081TIP3    H124658   3.972   5.331   2.665  0.3336  0.9882  1.4075
 1081TIP3    H224659   3.977   5.474   2.716 -0.4998  2.0042 -1.2903
 1082TIP3   OH224660   6.501   1.407   0.325  0.4073 -0.1404 -0.4493
 1082TIP3    H124661   6.483   1.333   0.383  0.9313 -1.5246 -2.0330
 1082TIP3    H224662   6.429   1.468   0.341  0.7485 -0.3241  1.9391
 1083TIP3   OH224663   6.686   4.493   0.567  0.3905 -0.0059 -0.3734
 1083TIP3    H124664   6.735   4.416   0.593 -0.3750 -0.0742  0.8964
 1083TIP3    H224665   6.752   4.553   0.531  0.9677 -1.2608 -1.4406
 1084TIP3   OH224666   6.543   4.961  11.032  0.3527 -0.1112 -0.1237
 1084TIP3    H124667   6.625   4.919  11.007 -0.0742 -1.5668  0.8938
 1084TIP3    H224668   6.555   4.986  11.123 -0.3486 -0.3502  0.0354
 1085TIP3   OH224669   5.000   5.445   3.805  0.6814  0.1824 -0.4241
 1085TIP3    H124670   4.916   5.460   3.848 -0.0277  0.0482 -1.7264
 1085TIP3    H224671   4.987   5.366   3.753  1.8507 -0.2698 -0.0581
 1086TIP3   OH224672   2.883   0.972  15.056 -1.0274 -0.3462 -0.1124
 1086TIP3    H124673   2.804   0.919  15.068 -1.8310  1.0320  0.8710
 1086TIP3    H224674   2.855   1.061  15.076  0.6327  0.2598 -0.3901
 1087TIP3   OH224675   0.370   5.126  15.440  0.3949  0.6215 -0.1226
 1087TIP3    H124676   0.300   5.136  15.376  1.4592  0.5223 -1.3219
 1087TIP3    H224677   0.375   5.031  15.457  0.2375  0.6300 -0.0283
 1088TIP3   OH224678   2.048   1.444   3.565 -0.5994 -0.2561  0.1454
 1088TIP3    H124679   2.022   1.483   3.482 -0.1420 -0.5932 -0.1560
 1088TIP3    H224680   1.979   1.381   3.585 -0.9936  0.2217  0.2990
 1089TIP3   OH224681   3.413   0.405  16.756 -0.4269  0.3231 -0.2590
 1089TIP3    H124682   3.407   0.310  16.768  0.6698  0.2129 -0.5353
 1089TIP3    H224683   3.328   0.438  16.786 -0.7834 -0.7325 -0.0737
 1090TIP3   OH224684   4.484   0.594  12.537 -0.3886 -0.0838 -0.2271
 1090TIP3    H124685   4.546   0.557  12.600 -0.3615 -0.6191 -0.5748
 1090TIP3    H224686   4.464   0.681  12.573  2.5452  1.1409 -1.4575
 1091TIP3   OH224687   1.113   1.481  16.771 -0.9219  0.1250  0.1246
 1091TIP3    H124688   1.039   1.483  16.710  0.4855 -3.7028 -1.8855
 1091TIP3    H224689   1.161   1.562  16.754 -2.0549  0.4017 -1.8935
 1092TIP3   OH224690   2.551   5.521   4.053 -0.1326  0.3006 -0.0331
 1092TIP3    H124691   2.533   5.496   3.962 -1.4467 -0.1544  0.3410
 1092TIP3    H224692   2.473   5.570   4.080 -0.4007 -0.8478  1.3156
 1093TIP3   OH224693   3.502   5.693  14.524  0.0795  0.2557  0.3327
 1093TIP3    H124694   3.514   5.603  14.494  0.3952  0.4469 -0.1211
 1093TIP3    H224695   3.542   5.695  14.611  0.7011  0.1345  0.0525
 1094TIP3   OH224696   6.548   0.770  11.101  0.3314  0.2861 -0.3343
 1094TIP3    H124697   6.539   0.827  11.025  1.9600  1.8131  0.5480
 1094TIP3    H224698   6.641   0.748  11.103  0.2175 -0.1125  0.9494
 1095TIP3   OH224699   2.339   3.176  16.376 -0.9049 -0.6882  0.3073
 1095TIP3    H124700   2.383   3.261  16.380  2.4446 -2.3361 -0.2978
 1095TIP3    H224701   2.270   3.189  16.310  0.0202  1.3715 -0.3072
 1096TIP3   OH224702   5.189   4.300   1.443 -0.0285 -0.5329  0.2209
 1096TIP3    H124703   5.210   4.281   1.351 -0.5913  3.3763 -0.8274
 1096TIP3    H224704   5.264   4.351   1.474  0.3899 -2.2743  2.1211
 1097TIP3   OH224705   0.895   2.849   0.785 -0.1529  0.2716 -0.5445
 1097TIP3    H124706   0.932   2.851   0.874 -0.6305  0.1496 -0.3447
 1097TIP3    H224707   0.927   2.766   0.748 -0.0244  0.2825 -0.4579
 1098TIP3   OH224708   3.159   5.479  13.833  0.7579 -0.8972  0.4017
 1098TIP3    H124709   3.093   5.441  13.890 -1.3361  0.0399 -1.3585
 1098TIP3    H224710   3.204   5.403  13.795 -1.6807 -1.6249 -1.1192
 1099TIP3   OH224711   5.185   2.518  11.512  0.0200 -0.3678  0.0747
 1099TIP3    H124712   5.202   2.428  11.542  0.1907 -0.9037 -1.5735
 1099TIP3    H224713   5.133   2.507  11.433  1.1185  0.9511 -0.8476
 1100TIP3   OH224714   1.643   0.456  13.230  0.0694  0.7201  0.1720
 1100TIP3    H124715   1.671   0.384  13.173  0.2631 -0.3438  1.5797
 1100TIP3    H224716   1.572   0.499  13.182  0.2282 -0.1639 -0.8678
 1101TIP3   OH224717   4.621   2.139  15.325  0.0716 -0.5449 -0.8882
 1101TIP3    H124718   4.554   2.136  15.394  1.3271 -1.6315  0.3382
 1101TIP3    H224719   4.649   2.047  15.316  0.6655 -0.2503 -2.1034
 1102TIP3   OH224720   5.903   2.684  13.687 -0.0503 -0.2522  0.0212
 1102TIP3    H124721   5.845   2.720  13.754 -1.2339  0.0633 -1.1601
 1102TIP3    H224722   5.945   2.610  13.729 -0.1894  0.4281  1.3717
 1103TIP3   OH224723   4.284   0.837   1.047 -0.2682  0.0421  0.0900
 1103TIP3    H124724   4.377   0.820   1.064  0.0253  2.0829  0.6635
 1103TIP3    H224725   4.240   0.754   1.067  1.3494 -0.7468  0.4479
 1104TIP3   OH224726   0.806   1.347  15.971  0.0687  0.0146  0.0912
 1104TIP3    H124727   0.741   1.373  16.036  1.0423  0.0599  1.0443
 1104TIP3    H224728   0.799   1.413  15.902 -1.2912 -0.2977 -0.0950
 1105TIP3   OH224729   3.588   5.209  10.223 -0.3348  0.1126 -0.2706
 1105TIP3    H124730   3.524   5.138  10.214  0.0789 -0.0599 -2.1833
 1105TIP3    H224731   3.668   5.173  10.184  0.3904  0.9993  0.3841
 1106TIP3   OH224732   5.091   3.397  15.212  0.3782  0.0037 -0.0340
 1106TIP3    H124733   5.086   3.422  15.304  0.4355 -0.0603 -0.0140
 1106TIP3    H224734   5.179   3.361  15.202  0.6426  0.7038 -0.2823
 1107TIP3   OH224735   4.038   2.940   4.255 -0.1029  0.4191 -0.3917
 1107TIP3    H124736   3.948   2.934   4.285 -0.1515 -1.7718 -0.9042
 1107TIP3    H224737   4.031   2.967   4.163 -0.2261  0.2192 -0.4401
 1108TIP3   OH224738   3.026   2.829  12.795  0.4874  0.1288  0.1026
 1108TIP3    H124739   3.040   2.796  12.884  0.7184 -0.0055  0.0161
 1108TIP3    H224740   2.948   2.884  12.802 -1.6490 -2.7209 -0.3134
 1109TIP3   OH224741   3.290   0.801  16.727  0.0458  0.1214  0.0207
 1109TIP3    H124742   3.349   0.876  16.726 -2.4911  2.1534 -1.3916
 1109TIP3    H224743   3.284   0.774  16.635 -0.5285 -0.6300  0.2754
 1110TIP3   OH224744   6.317   1.510  11.035 -0.2099 -0.4601  0.0768
 1110TIP3    H124745   6.227   1.481  11.049 -0.4105  0.9112  1.8733
 1110TIP3    H224746   6.318   1.545  10.946 -1.6286  0.1347  0.2893
 1111TIP3   OH224747   6.623   1.391  14.841 -0.2731  1.0155 -0.6631
 1111TIP3    H124748   6.537   1.354  14.822 -0.5004  0.8118  0.7438
 1111TIP3    H224749   6.621   1.478  14.802 -1.8706  1.8132  1.1201
 1112TIP3   OH224750   5.555   2.912   1.918 -0.1905  0.0621  0.1330
 1112TIP3    H124751   5.633   2.885   1.869 -0.7342  0.2073 -0.8144
 1112TIP3    H224752   5.501   2.959   1.855 -0.5042  1.0126  1.0918
 1113TIP3   OH224753   1.435   4.325  12.594 -0.0959 -0.5606  1.0674
 1113TIP3    H124754   1.498   4.259  12.566  1.3365  0.9139  0.7350
 1113TIP3    H224755   1.430   4.315  12.689 -2.1463 -3.0820  0.7671
 1114TIP3   OH224756   2.354   0.692   2.692 -0.4645  0.2042  0.0676
 1114TIP3    H124757   2.336   0.720   2.782 -2.8145 -1.1240  0.0414
 1114TIP3    H224758   2.279   0.722   2.642 -0.6089 -1.6981 -0.8929
 1115TIP3   OH224759   0.712   3.623  11.462  1.1300  0.1540  0.2761
 1115TIP3    H124760   0.645   3.688  11.439  0.5105 -0.7646 -0.5136
 1115TIP3    H224761   0.715   3.625  11.558 -0.6317 -0.3962  0.3591
 1116TIP3   OH224762   5.203   4.069   5.579  0.1969 -0.1302 -0.3014
 1116TIP3    H124763   5.167   4.145   5.626 -1.1594 -0.9118 -0.0456
 1116TIP3    H224764   5.288   4.053   5.621  0.3502  1.0475 -0.1484
 1117TIP3   OH224765   3.379   2.474   0.019  0.3905  0.5565 -0.0768
 1117TIP3    H124766   3.457   2.511  -0.022  0.3950  1.4682  0.7224
 1117TIP3    H224767   3.306   2.505  -0.035  0.5147  0.4207 -0.3237
 1118TIP3   OH224768   1.668   3.623   0.766 -0.0905  0.0143  0.0238
 1118TIP3    H124769   1.693   3.715   0.759  0.6224 -0.3071 -2.0197
 1118TIP3    H224770   1.573   3.624   0.771 -0.3275  0.7125 -3.6447
 1119TIP3   OH224771   6.262   5.351  15.043  0.3709 -0.1193  0.0212
 1119TIP3    H124772   6.217   5.397  15.114  2.3941  2.8673 -0.5205
 1119TIP3    H224773   6.284   5.265  15.080 -2.1547 -0.1147  1.6088
 1120TIP3   OH224774   5.167   0.785  16.937 -0.5644  0.6792  0.5650
 1120TIP3    H124775   5.095   0.849  16.937 -0.0354  1.2906 -0.1056
 1120TIP3    H224776   5.165   0.747  17.024 -2.0722  0.2756  0.3755
 1121TIP3   OH224777   2.202   0.970  14.064 -0.0754 -0.4951 -0.1500
 1121TIP3    H124778   2.181   0.909  14.135  1.7079 -0.6556  0.2543
 1121TIP3    H224779   2.290   1.001  14.084 -1.0808  2.5202 -0.1309
 1122TIP3   OH224780   2.820   2.986  14.760  0.2615 -0.1579  0.0390
 1122TIP3    H124781   2.738   2.991  14.712  0.5680 -0.6340 -0.5443
 1122TIP3    H224782   2.843   2.893  14.759  1.6714  0.1857 -1.2902
 1123TIP3   OH224783   4.786   1.344  15.880  0.1170 -0.5316 -0.9587
 1123TIP3    H124784   4.828   1.344  15.793  0.5729  2.2601 -0.7765
 1123TIP3    H224785   4.846   1.294  15.935  0.7741 -0.7116 -1.8186
 1124TIP3   OH224786   1.400   2.245   6.000  0.0444  0.2693  0.7588
 1124TIP3    H124787   1.448   2.305   6.057 -0.0960 -0.2585  1.4315
 1124TIP3    H224788   1.349   2.190   6.059 -2.3393  1.5935 -0.0101
 1125TIP3   OH224789   4.630   6.514   2.057  0.0930 -0.2395 -0.0115
 1125TIP3    H124790   4.709   6.545   2.102  0.8159 -0.1723 -1.3186
 1125TIP3    H224791   4.565   6.583   2.072 -0.3984 -1.2499  2.8558
 1126TIP3   OH224792   4.459   4.405   0.569  0.3204  0.4602 -0.0160
 1126TIP3    H124793   4.450   4.324   0.519 -1.5769  0.8665 -0.3926
 1126TIP3    H224794   4.523   4.457   0.521 -1.1256  0.6406 -1.7785
 1127TIP3   OH224795   2.200   3.125   5.180  0.2332  0.1330  0.4167
 1127TIP3    H124796   2.169   3.040   5.148  0.1046  0.4529 -0.3348
 1127TIP3    H224797   2.196   3.181   5.103  1.0915  0.6125  0.7260
 1128TIP3   OH224798   6.184   3.174  14.570 -0.3340 -0.4893  0.1215
 1128TIP3    H124799   6.172   3.231  14.646  0.0752  0.0208 -0.1929
 1128TIP3    H224800   6.151   3.226  14.496  0.3536 -0.5323 -0.2120
 1129TIP3   OH224801   4.045   5.560   6.476  0.4648 -0.7364 -0.5614
 1129TIP3    H124802   3.951   5.561   6.462  0.7092 -1.2800 -2.3401
 1129TIP3    H224803   4.075   5.477   6.439  1.4646 -1.2052  1.2329
 1130TIP3   OH224804   3.958   0.580  15.683  0.2328 -0.4583 -0.5353
 1130TIP3    H124805   3.913   0.607  15.603 -0.2267 -0.7575 -0.3796
 1130TIP3    H224806   4.048   0.611  15.671  0.0504 -0.0824 -0.9595
 1131TIP3   OH224807   5.492   4.972   2.288  0.2343  0.3530 -0.1178
 1131TIP3    H124808   5.466   5.029   2.361  1.4939 -0.3358  0.9070
 1131TIP3    H224809   5.588   4.973   2.291  0.3229  1.1030 -2.4039
 1132TIP3   OH224810   0.483   3.910   3.008 -0.1310  0.1667  0.0998
 1132TIP3    H124811   0.543   3.837   3.001 -1.1258 -0.9942  3.1427
 1132TIP3    H224812   0.529   3.975   3.061  0.4951  1.5631 -2.0545
 1133TIP3   OH224813   2.497   0.677   0.354  0.2376 -0.2557 -0.5517
 1133TIP3    H124814   2.520   0.639   0.269 -0.6153 -1.4964 -0.2535
 1133TIP3    H224815   2.401   0.674   0.357  0.2114  0.8917 -0.0444
 1134TIP3   OH224816   3.037   1.956  12.977  0.0204 -0.0480  0.1401
 1134TIP3    H124817   3.115   2.010  12.966 -0.4760  0.2121 -2.2193
 1134TIP3    H224818   3.063   1.869  12.946 -0.9313  0.3191 -1.7806
 1135TIP3   OH224819   1.968   1.710   1.515 -0.2376 -0.2829  0.0950
 1135TIP3    H124820   1.882   1.720   1.557  0.0260  1.4990  0.2892
 1135TIP3    H224821   2.014   1.791   1.539  1.4683 -1.2010 -0.0599
 1136TIP3   OH224822   6.220   3.514   5.715  0.8078 -0.1847  0.2551
 1136TIP3    H124823   6.236   3.523   5.809 -0.3515 -0.1888  0.4581
 1136TIP3    H224824   6.237   3.421   5.696 -1.2121 -0.7021  0.9106
 1137TIP3   OH224825   0.894   2.400  12.705  0.2623  0.1256  0.1785
 1137TIP3    H124826   0.826   2.467  12.713 -0.3019 -0.3224 -0.7284
 1137TIP3    H224827   0.858   2.337  12.643  0.3881 -1.5236  1.7544
 1138TIP3   OH224828   3.874   6.766  14.683 -0.0573  0.4919 -0.1825
 1138TIP3    H124829   3.805   6.822  14.647 -0.3120  0.8132  0.8154
 1138TIP3    H224830   3.867   6.685  14.632 -0.9900  0.6267 -0.2808
 1139TIP3   OH224831   1.778   0.932   4.758 -0.3083 -0.3677 -0.2291
 1139TIP3    H124832   1.774   0.980   4.840  0.2840 -0.8945  0.1104
 1139TIP3    H224833   1.833   0.987   4.701 -1.9507  0.7444 -0.7916
 1140TIP3   OH224834   1.787   3.977  12.652 -0.4882 -0.3963  0.6892
 1140TIP3    H124835   1.724   3.935  12.710 -1.1645 -0.9501 -0.4321
 1140TIP3    H224836   1.749   3.968  12.565  0.6834  0.1212  0.1144
 1141TIP3   OH224837   5.990   5.725  12.232 -0.3854 -0.1506  0.3813
 1141TIP3    H124838   6.038   5.792  12.182  0.8316 -0.5510  0.9822
 1141TIP3    H224839   5.910   5.768  12.259 -0.4325  0.5061 -0.7494
 1142TIP3   OH224840   6.115   0.331  12.473  0.1583  0.7786 -0.4970
 1142TIP3    H124841   6.198   0.289  12.450  0.4225  1.2967 -0.4937
 1142TIP3    H224842   6.058   0.258  12.499  0.4776  0.3787 -0.8949
 1143TIP3   OH224843   5.649   1.349  14.266  0.3485  0.2260  0.0930
 1143TIP3    H124844   5.580   1.397  14.220  0.1275  0.1065  0.2965
 1143TIP3    H224845   5.715   1.415  14.284  0.1132  0.4246  0.2394
 1144TIP3   OH224846   5.318   4.589   4.063  0.3172 -0.5416  0.7642
 1144TIP3    H124847   5.260   4.627   4.129 -0.3072 -0.6490  0.2797
 1144TIP3    H224848   5.334   4.500   4.095 -0.0490 -0.6210  0.7334
 1145TIP3   OH224849   2.224   3.556   2.698  0.0891 -0.4679 -0.1871
 1145TIP3    H124850   2.170   3.481   2.725  0.0534 -0.3813 -0.0234
 1145TIP3    H224851   2.163   3.630   2.697 -0.6513 -1.0121 -3.3938
 1146TIP3   OH224852   3.714   1.267  15.961  0.1547  0.0709 -0.3419
 1146TIP3    H124853   3.734   1.313  16.042  1.0704  0.0207 -0.5324
 1146TIP3    H224854   3.625   1.293  15.940 -0.1719 -0.0862  0.7972
 1147TIP3   OH224855   0.433   2.922   3.044 -0.5279 -0.4046  0.5163
 1147TIP3    H124856   0.422   2.847   2.986 -1.0180 -1.9217  2.5135
 1147TIP3    H224857   0.350   2.929   3.091  0.9971 -1.3824  3.4941
 1148TIP3   OH224858   6.586   1.215   5.678  0.5886  0.1997 -0.2223
 1148TIP3    H124859   6.552   1.300   5.651 -0.6332 -1.0413 -2.7071
 1148TIP3    H224860   6.510   1.169   5.714  0.5046 -1.0785 -2.0078
 1149TIP3   OH224861   2.723   1.138   1.054 -0.5609  0.0455 -0.1682
 1149TIP3    H124862   2.705   1.156   0.961  0.2032  0.8339 -0.1627
 1149TIP3    H224863   2.661   1.194   1.101 -0.8180 -0.2132 -0.1957
 1150TIP3   OH224864   1.987   3.298  15.106  0.4805 -0.6591  0.2892
 1150TIP3    H124865   1.950   3.374  15.150 -0.2837 -1.2462  0.6892
 1150TIP3    H224866   2.079   3.321  15.090  0.1127  0.5604 -0.1148
 1151TIP3   OH224867   5.265   2.939   4.732  0.2699 -0.0183 -0.2594
 1151TIP3    H124868   5.244   3.031   4.716 -1.0889  0.1058  1.9379
 1151TIP3    H224869   5.181   2.899   4.753  0.9473 -1.6272 -0.5691
 1152TIP3   OH224870   0.353   5.186   0.838  0.5081  0.2582  0.2557
 1152TIP3    H124871   0.359   5.239   0.759 -0.6212  0.2320  0.1465
 1152TIP3    H224872   0.293   5.233   0.895  1.9629  0.7036  1.4531
 1153TIP3   OH224873   1.304   0.242  12.882  0.0197  0.0297  0.0174
 1153TIP3    H124874   1.275   0.182  12.951 -2.2347  0.0956 -0.8119
 1153TIP3    H224875   1.248   0.220  12.807  1.2505  1.1315 -1.2401
 1154TIP3   OH224876   0.856   4.787  14.475 -0.4960  0.0602  0.1578
 1154TIP3    H124877   0.762   4.798  14.460 -0.1750  2.3413 -0.3439
 1154TIP3    H224878   0.863   4.770  14.569 -1.3787  0.2000  0.2588
 1155TIP3   OH224879   2.404   4.276   1.947 -0.5894  0.1237 -0.6499
 1155TIP3    H124880   2.488   4.320   1.933 -0.3679  0.6785  2.0946
 1155TIP3    H224881   2.339   4.347   1.942 -0.5782  0.2048  0.2506
 1156TIP3   OH224882   1.243   1.776   1.820 -0.0787  0.2807  0.3327
 1156TIP3    H124883   1.261   1.712   1.889  0.0668 -0.2289 -0.1722
 1156TIP3    H224884   1.277   1.859   1.854 -1.4502  0.3620  1.5372
 1157TIP3   OH224885   5.562   6.466  11.296  0.6760  0.0223  0.0339
 1157TIP3    H124886   5.481   6.417  11.286 -0.3253  1.4879  0.8579
 1157TIP3    H224887   5.572   6.512  11.212  0.3031  0.3748  0.1838
 1158TIP3   OH224888   2.739   3.704  15.804 -0.1738 -0.0902  0.4850
 1158TIP3    H124889   2.829   3.706  15.836  0.6507 -1.9434 -1.6155
 1158TIP3    H224890   2.742   3.752  15.721 -0.1912 -3.6052 -1.6667
 1159TIP3   OH224891   6.545   4.662  16.812  0.2268 -0.3742  0.0534
 1159TIP3    H124892   6.576   4.606  16.883  0.8441 -1.4582 -1.0247
 1159TIP3    H224893   6.485   4.723  16.853 -0.2276 -1.6469  1.3288
 1160TIP3   OH224894   5.724   5.960  17.026  0.0390 -0.3578  0.1500
 1160TIP3    H124895   5.762   5.952  17.114 -1.3579  0.4881  0.8572
 1160TIP3    H224896   5.651   6.022  17.037 -0.5026 -0.6789 -1.4919
 1161TIP3   OH224897   6.589   0.076   0.253 -0.5688  0.1522 -0.3699
 1161TIP3    H124898   6.553   0.127   0.181 -2.5736 -1.0608 -0.2496
 1161TIP3    H224899   6.682   0.067   0.231 -0.6953  1.7067 -1.6486
 1162TIP3   OH224900   0.157   0.521  11.775  0.0813  0.9871 -1.0090
 1162TIP3    H124901   0.177   0.535  11.867 -1.9546 -0.3176 -0.3280
 1162TIP3    H224902   0.131   0.607  11.743 -0.0683  1.2679 -0.1450
 1163TIP3   OH224903   0.122   4.086   0.058  0.3174  0.1504 -0.2205
 1163TIP3    H124904   0.181   4.160   0.073 -0.0239  0.0013  2.0628
 1163TIP3    H224905   0.051   4.099   0.121 -1.3621 -0.4634 -1.9288
 1164TIP3   OH224906   3.911   0.637  13.730  0.4241 -0.0229 -0.1336
 1164TIP3    H124907   3.878   0.649  13.641 -1.8750  0.0690  0.7086
 1164TIP3    H224908   3.927   0.726  13.762  0.8595 -0.0383 -0.3048
 1165TIP3   OH224909   0.452   4.704  16.642  0.2302  0.1476  0.0862
 1165TIP3    H124910   0.511   4.758  16.590 -0.5377  0.5268 -0.4012
 1165TIP3    H224911   0.369   4.706  16.594 -0.8206  1.4208  1.9117
 1166TIP3   OH224912   4.409   3.317   0.547 -0.4512  0.1517  0.0612
 1166TIP3    H124913   4.316   3.311   0.525  0.1010 -0.3330 -2.2160
 1166TIP3    H224914   4.452   3.253   0.491  1.2337  0.0725  1.3855
 1167TIP3   OH224915   1.795   4.720  12.688 -0.0457  0.6666 -0.6225
 1167TIP3    H124916   1.714   4.674  12.667  0.9198 -0.8485 -1.1567
 1167TIP3    H224917   1.863   4.670  12.642  1.4325  0.6998  1.4512
 1168TIP3   OH224918   0.435   4.081   1.701 -0.0157 -0.3025 -0.5719
 1168TIP3    H124919   0.384   4.114   1.775 -0.5261  0.3117 -1.1979
 1168TIP3    H224920   0.520   4.125   1.709  0.4873 -1.4456  0.5578
 1169TIP3   OH224921   2.913   4.125   2.819  0.2186 -0.2435  0.0841
 1169TIP3    H124922   2.846   4.176   2.864  0.2186 -0.3349  0.1890
 1169TIP3    H224923   2.894   4.034   2.842 -0.7467 -0.4312 -1.3837
 1170TIP3   OH224924   5.456   3.962  11.298 -0.3027 -0.2156  0.1830
 1170TIP3    H124925   5.443   3.951  11.393 -0.4533 -2.4298 -0.0672
 1170TIP3    H224926   5.545   3.930  11.283  0.3875  1.8112 -0.1854
 1171TIP3   OH224927   6.474   4.610  11.035 -0.1522  0.4846 -0.0229
 1171TIP3    H124928   6.553   4.564  11.007  1.0841  1.0842  2.3623
 1171TIP3    H224929   6.425   4.546  11.085  0.3479  0.9953  1.1429
 1172TIP3   OH224930   2.173   4.471   1.384 -0.2271 -0.3201 -0.0612
 1172TIP3    H124931   2.222   4.523   1.448 -3.1836 -1.3697  3.2781
 1172TIP3    H224932   2.210   4.384   1.391 -0.8804 -0.5544  0.7065
 1173TIP3   OH224933   2.331   6.685  10.394  0.4301  0.2574  0.5395
 1173TIP3    H124934   2.250   6.673  10.445 -0.1444  1.0433 -0.1751
 1173TIP3    H224935   2.379   6.753  10.441  0.3205  0.3335  0.5431
 1174TIP3   OH224936   4.456   6.668   0.962  0.3736 -0.0287  0.2924
 1174TIP3    H124937   4.440   6.574   0.965 -0.5141  0.0520 -1.5595
 1174TIP3    H224938   4.421   6.696   0.878  2.2449  1.6768  0.0489
 1175TIP3   OH224939   6.232   5.612  12.354 -0.4189 -0.0952 -0.0030
 1175TIP3    H124940   6.154   5.629  12.301 -0.9439  1.2519  1.1926
 1175TIP3    H224941   6.268   5.698  12.374  2.7251 -0.7316 -2.4424
 1176TIP3   OH224942   4.658   4.111  16.740  0.4210 -0.3670 -0.0963
 1176TIP3    H124943   4.620   4.038  16.691 -0.6336  1.2248 -1.7133
 1176TIP3    H224944   4.638   4.092  16.832 -0.4791 -1.7225 -0.5696
 1177TIP3   OH224945   5.260   6.724   0.904  0.1494 -0.0939  0.3498
 1177TIP3    H124946   5.319   6.742   0.832  1.3438  0.2544  1.3945
 1177TIP3    H224947   5.233   6.633   0.892 -1.5363  0.6662 -1.8484
 1178TIP3   OH224948   1.130   6.372   3.041  0.7704  0.1799 -0.7525
 1178TIP3    H124949   1.211   6.341   3.001  1.0056  0.4529 -0.4888
 1178TIP3    H224950   1.095   6.295   3.087  0.6361 -0.0606 -1.2592
 1179TIP3   OH224951   6.649   2.737   4.473 -0.3021 -0.0118  0.3398
 1179TIP3    H124952   6.673   2.736   4.380 -0.2480 -1.3790  0.3575
 1179TIP3    H224953   6.732   2.751   4.519 -0.3020  0.4754  0.1934
 1180TIP3   OH224954   4.495   3.644   0.398  0.0738 -0.3927 -0.5849
 1180TIP3    H124955   4.547   3.578   0.442  0.0501  0.3258  0.5466
 1180TIP3    H224956   4.481   3.610   0.310  2.1994 -0.7280 -0.8117
 1181TIP3   OH224957   3.763   0.563  12.500  0.1281 -0.2165  0.5439
 1181TIP3    H124958   3.677   0.527  12.522  0.9725 -2.6605  0.1045
 1181TIP3    H224959   3.757   0.586  12.407 -0.0200 -0.5774  0.4615
 1182TIP3   OH224960   2.695   2.555   1.223 -0.6954  0.3571 -0.0073
 1182TIP3    H124961   2.732   2.562   1.135  0.4932 -1.2046  0.3513
 1182TIP3    H224962   2.739   2.623   1.274  0.5167 -0.4405  0.0182
 1183TIP3   OH224963   4.725   0.060  12.108  0.1380  0.3983  0.0150
 1183TIP3    H124964   4.646   0.110  12.129  1.1926  2.0666  0.1243
 1183TIP3    H224965   4.755   0.026  12.192 -0.5402 -0.3730 -0.0475
 1184TIP3   OH224966   2.315   3.792  15.272  0.1037 -0.2947 -0.6388
 1184TIP3    H124967   2.376   3.828  15.207  0.0614 -2.1908 -1.7505
 1184TIP3    H224968   2.358   3.809  15.356  0.6591  1.2360 -1.2116
 1185TIP3   OH224969   2.181   1.168  12.562 -1.0790 -0.3498  0.3486
 1185TIP3    H124970   2.133   1.226  12.622 -0.3298  1.0571 -0.4023
 1185TIP3    H224971   2.271   1.168  12.595 -0.5797  0.7162 -0.9529
 1186TIP3   OH224972   4.429   5.080   3.323  0.2435  0.2859  0.3916
 1186TIP3    H124973   4.418   5.076   3.228 -1.0860 -1.8681  0.5948
 1186TIP3    H224974   4.500   5.019   3.341  1.2403  1.5268  0.6906
 1187TIP3   OH224975   3.518   6.423   3.776 -0.0573 -0.1800 -0.1131
 1187TIP3    H124976   3.560   6.498   3.736 -2.4405  1.8128  0.9569
 1187TIP3    H224977   3.507   6.448   3.868  1.6853 -3.0116  0.9142
 1188TIP3   OH224978   5.853   2.363   4.372  0.3576  0.0771 -0.3975
 1188TIP3    H124979   5.926   2.365   4.434  0.6013  0.1227 -0.6804
 1188TIP3    H224980   5.799   2.439   4.395 -2.2143 -2.6058  2.9010
 1189TIP3   OH224981   5.607   4.564   6.052 -0.0904  0.1461  0.1706
 1189TIP3    H124982   5.580   4.516   6.130 -1.6318 -0.0919 -0.4828
 1189TIP3    H224983   5.568   4.651   6.062 -0.3570  0.0913 -0.3529
 1190TIP3   OH224984   4.133   1.169  17.223  0.1565 -0.1113  0.3658
 1190TIP3    H124985   4.154   1.098  17.162 -0.7438  0.2444 -0.3672
 1190TIP3    H224986   4.091   1.236  17.169 -0.5545  0.2530  1.3491
 1191TIP3   OH224987   5.541   0.044  11.717  0.8980  0.3666  0.0545
 1191TIP3    H124988   5.506   0.057  11.629  3.5037 -0.7733 -1.2041
 1191TIP3    H224989   5.543   0.131  11.755 -1.3022  0.7278 -0.5661
 1192TIP3   OH224990   3.819   0.791  12.154 -0.1089 -0.0854  0.0359
 1192TIP3    H124991   3.847   0.700  12.159 -0.4169 -0.1690  0.2104
 1192TIP3    H224992   3.723   0.787  12.155 -0.1175  0.3799  2.2706
 1193TIP3   OH224993   1.035   2.033   5.990 -0.2814 -0.4725  0.3183
 1193TIP3    H124994   1.130   2.046   6.000 -0.0100 -1.2748 -1.0494
 1193TIP3    H224995   1.014   1.961   6.049 -0.1526  0.1587  1.1271
 1194TIP3   OH224996   5.775   3.365  12.018 -0.3228 -0.4545 -0.2018
 1194TIP3    H124997   5.730   3.350  11.935 -0.7130 -1.2702  0.1528
 1194TIP3    H224998   5.867   3.349  11.998 -0.2829  0.4280 -0.7355
 1195TIP3   OH224999   0.803   6.654  14.377 -0.1574 -0.8000  0.4493
 1195TIP3    H125000   0.824   6.568  14.413 -0.3676 -1.2350 -0.4471
 1195TIP3    H225001   0.707   6.656  14.376 -0.1574 -0.2457  1.1868
 1196TIP3   OH225002   4.554   6.248  13.449  0.2522 -0.1636 -0.1096
 1196TIP3    H125003   4.521   6.320  13.396 -1.7708 -0.4100  0.7435
 1196TIP3    H225004   4.622   6.287  13.504  0.9412  0.5229 -1.4277
 1197TIP3   OH225005   3.960   2.884   3.318  0.4008  0.1827 -0.0326
 1197TIP3    H125006   3.865   2.894   3.309  0.3295 -0.3317  0.1325
 1197TIP3    H225007   3.989   2.965   3.361 -0.4267 -1.1559  3.1214
 1198TIP3   OH225008   1.241   4.616   3.187 -0.3810  0.3996  0.4692
 1198TIP3    H125009   1.192   4.686   3.144 -1.5583 -0.3007  0.6481
 1198TIP3    H225010   1.219   4.537   3.137  3.1243  0.5656 -1.4934
 1199TIP3   OH225011   1.203   5.695   2.885 -0.4013 -0.1224 -0.0750
 1199TIP3    H125012   1.278   5.653   2.843  0.1164 -0.4848  1.1735
 1199TIP3    H225013   1.161   5.746   2.816  0.8477 -0.1221 -0.8344
 1200TIP3   OH225014   4.032   1.383  16.196 -0.1401  0.3821 -0.0523
 1200TIP3    H125015   4.078   1.464  16.174  2.6540 -1.0467  0.2578
 1200TIP3    H225016   4.072   1.317  16.140  0.1093 -1.4172  2.1901
 1201TIP3   OH225017   5.391   6.424  16.757  0.1947  0.2556 -0.3707
 1201TIP3    H125018   5.386   6.412  16.662 -1.6951  2.9070 -0.6955
 1201TIP3    H225019   5.480   6.398  16.781  0.1110 -2.2334 -2.5644
 1202TIP3   OH225020   0.892   3.986   3.603 -0.3236 -0.1283  0.2392
 1202TIP3    H125021   0.909   4.080   3.596  1.6910 -0.4807  0.0596
 1202TIP3    H225022   0.968   3.945   3.561  0.2746 -1.8757  2.8740
 1203TIP3   OH225023   2.845   1.660  16.925  0.3115  0.1201  0.2343
 1203TIP3    H125024   2.851   1.590  16.860 -0.4979 -0.0252  0.3179
 1203TIP3    H225025   2.933   1.699  16.926  0.4648 -0.1944 -0.5938
 1204TIP3   OH225026   4.921   4.821  11.267  0.4367  0.0626 -0.3674
 1204TIP3    H125027   4.870   4.760  11.214 -2.4722  0.3428  1.9960
 1204TIP3    H225028   4.888   4.908  11.243  1.0446  0.3668 -0.1115
 1205TIP3   OH225029   4.148   1.097   5.484 -0.0983 -0.0637  0.5855
 1205TIP3    H125030   4.232   1.138   5.500 -0.4238 -0.0432  2.3560
 1205TIP3    H225031   4.151   1.070   5.392  0.9028  2.0443 -0.0210
 1206TIP3   OH225032   5.239   2.237   3.725 -0.7381  0.5057  0.6470
 1206TIP3    H125033   5.319   2.193   3.753 -2.6417 -0.8641  4.2921
 1206TIP3    H225034   5.225   2.208   3.635  1.9278 -0.5750  0.5379
 1207TIP3   OH225035   3.911   2.381  16.435 -0.1307  0.3419  0.4561
 1207TIP3    H125036   3.944   2.469  16.422 -1.8636  0.7914 -1.1438
 1207TIP3    H225037   3.820   2.384  16.404  0.1689 -2.3083 -0.8725
 1208TIP3   OH225038   6.478   6.205  13.680  0.5500  0.3202  0.5794
 1208TIP3    H125039   6.385   6.228  13.678 -0.3007 -2.7127  1.9970
 1208TIP3    H225040   6.495   6.167  13.593 -0.4401 -2.1878  1.4364
 1209TIP3   OH225041   3.952   0.804   0.323  0.5878 -0.3769  0.5712
 1209TIP3    H125042   3.924   0.714   0.309 -0.5968  0.2987 -1.6779
 1209TIP3    H225043   3.960   0.841   0.235 -0.8924  2.2690  1.4717
 1210TIP3   OH225044   6.177   0.306   0.556 -0.2717 -0.1779 -0.8036
 1210TIP3    H125045   6.174   0.391   0.513  0.5967 -0.0745 -0.6714
 1210TIP3    H225046   6.269   0.279   0.549 -0.2186 -0.3758  0.5417
 1211TIP3   OH225047   6.665   6.220  13.459  0.2973  0.0425  0.1185
 1211TIP3    H125048   6.709   6.197  13.378 -1.9015 -1.0079 -0.8279
 1211TIP3    H225049   6.654   6.315  13.455  2.7174  0.3546  0.5301
 1212TIP3   OH225050   4.375   5.296  13.000  0.0331  0.3362 -0.1407
 1212TIP3    H125051   4.329   5.256  13.075 -0.3125  0.9392 -0.0213
 1212TIP3    H225052   4.338   5.252  12.924  1.2792 -1.1530  0.1072
 1213TIP3   OH225053   3.640   5.379   2.141 -0.3692 -0.1381 -0.1294
 1213TIP3    H125054   3.644   5.288   2.109  1.3267 -0.4480  0.9032
 1213TIP3    H225055   3.618   5.430   2.063 -0.0029 -1.2915 -1.0209
 1214TIP3   OH225056   5.540   5.790   0.457 -0.3452 -0.5036  0.0363
 1214TIP3    H125057   5.454   5.809   0.420 -0.6193 -1.2293  0.2992
 1214TIP3    H225058   5.559   5.700   0.429  0.6750 -0.0835 -0.6881
 1215TIP3   OH225059   5.862   0.555   5.059 -0.2539 -0.2068  0.2995
 1215TIP3    H125060   5.827   0.629   5.108 -0.4488  0.6288 -1.0473
 1215TIP3    H225061   5.800   0.543   4.986  1.0233 -0.1736 -0.8149
 1216TIP3   OH225062   2.947   1.455  17.207  0.0206  0.1703 -0.5207
 1216TIP3    H125063   2.931   1.474  17.115 -0.7780  1.4079 -0.1433
 1216TIP3    H225064   2.937   1.540  17.251  1.9088 -0.0950  0.5104
 1217TIP3   OH225065   1.945   4.649   4.973 -0.2486 -0.4009  0.0369
 1217TIP3    H125066   2.035   4.680   4.985  0.0745 -0.4239 -2.1937
 1217TIP3    H225067   1.899   4.680   5.052  0.9045  2.6226 -0.3986
 1218TIP3   OH225068   6.074   6.562  16.756 -0.3100 -0.0339  1.1248
 1218TIP3    H125069   6.004   6.591  16.816 -0.2534 -0.6545  1.4948
 1218TIP3    H225070   6.133   6.511  16.812 -0.7275 -1.3758  0.3540
 1219TIP3   OH225071   1.236   4.568  13.111  0.3548  0.1915  0.6428
 1219TIP3    H125072   1.143   4.551  13.095  0.7645 -0.1319 -1.5564
 1219TIP3    H225073   1.244   4.664  13.108  0.0824  0.2187  0.8354
 1220TIP3   OH225074   5.638   3.076  16.748  0.2496  0.5040  0.5526
 1220TIP3    H125075   5.677   3.049  16.665  0.2481  0.9155  0.4186
 1220TIP3    H225076   5.544   3.068  16.734  0.2070  1.4809  0.1916
 1221TIP3   OH225077   0.675   4.072  14.267 -0.6201  0.5679 -0.0208
 1221TIP3    H125078   0.656   4.074  14.360  0.2810 -0.9529  0.2149
 1221TIP3    H225079   0.769   4.056  14.261 -1.0439 -1.7308 -1.1716
 1222TIP3   OH225080   4.265   4.659  10.726 -0.4150 -0.3107 -0.7469
 1222TIP3    H125081   4.350   4.617  10.738 -0.1966  0.0207 -1.0937
 1222TIP3    H225082   4.215   4.597  10.672 -1.0619 -1.3546  1.0098
 1223TIP3   OH225083   0.409   2.806  12.245  0.6582 -0.1047 -0.0064
 1223TIP3    H125084   0.434   2.840  12.160  0.5388 -0.2010 -0.0807
 1223TIP3    H225085   0.481   2.829  12.303 -0.3997  2.2223  0.4389
 1224TIP3   OH225086   3.253   2.924   7.055 -0.2600  0.2757  0.2642
 1224TIP3    H125087   3.292   2.845   7.016 -1.1570 -0.5547  0.9970
 1224TIP3    H225088   3.327   2.971   7.092  0.3551  0.0521 -0.6675
 1225TIP3   OH225089   5.541   6.222  11.832  0.2067 -0.0031  0.2476
 1225TIP3    H125090   5.632   6.250  11.835 -0.0095  0.8302 -0.7839
 1225TIP3    H225091   5.538   6.145  11.888  1.4713  0.1777  0.5716
 1226TIP3   OH225092   5.860   1.950  11.966  0.1739 -0.1096 -0.1641
 1226TIP3    H125093   5.824   1.870  12.004 -0.3861  1.0891  1.9272
 1226TIP3    H225094   5.790   2.015  11.976  0.8817  0.8253 -1.1765
 1227TIP3   OH225095   2.811   2.089   2.692  0.4256  0.6786  0.3124
 1227TIP3    H125096   2.822   2.028   2.619 -0.4203  0.0993  0.6572
 1227TIP3    H225097   2.719   2.116   2.687  1.0094  2.5872 -0.3381
 1228TIP3   OH225098   5.475   5.223  11.771 -0.4631 -0.2558 -0.0842
 1228TIP3    H125099   5.407   5.251  11.832 -0.2246  0.7267 -0.2594
 1228TIP3    H225100   5.485   5.296  11.711 -0.0623 -0.8616 -0.7634
 1229TIP3   OH225101   6.680   0.750   5.181 -0.1364  0.0535  0.2996
 1229TIP3    H125102   6.653   0.726   5.092 -0.9246  0.9492  0.2829
 1229TIP3    H225103   6.636   0.686   5.237 -1.3806  0.7915  0.1859
 1230TIP3   OH225104   5.666   1.247   3.199 -0.5295 -0.0525  0.0013
 1230TIP3    H125105   5.732   1.223   3.134  1.4886  0.8110  1.6928
 1230TIP3    H225106   5.624   1.325   3.163 -0.7094 -0.6547 -1.1208
 1231TIP3   OH225107   5.669   1.523   3.366  0.2319 -0.0642 -0.0978
 1231TIP3    H125108   5.604   1.525   3.296 -0.5105  0.1283  0.5930
 1231TIP3    H225109   5.618   1.517   3.447  0.9816  2.1892  0.5837
 1232TIP3   OH225110   0.950   6.276  14.796  0.0378  0.6061  0.6367
 1232TIP3    H125111   0.889   6.347  14.775 -0.0056  0.5667  0.6289
 1232TIP3    H225112   0.951   6.221  14.718 -0.1745  0.4238  0.7616
 1233TIP3   OH225113   2.108   2.425   0.819 -0.2500  0.3561 -0.1375
 1233TIP3    H125114   2.187   2.441   0.768  1.3896 -0.6645  1.9895
 1233TIP3    H225115   2.100   2.502   0.876  0.2208 -0.3217  0.8662
 1234TIP3   OH225116   3.100   1.180  14.055  0.3518  0.7921  0.4135
 1234TIP3    H125117   3.141   1.206  13.973 -1.4123 -0.3877 -0.8617
 1234TIP3    H225118   3.124   1.087  14.065 -0.4869  0.5939  0.5892
 1235TIP3   OH225119   1.819   1.451  16.894 -0.4671  0.3773  0.3492
 1235TIP3    H125120   1.776   1.511  16.834 -0.6117 -0.7321 -0.6830
 1235TIP3    H225121   1.799   1.364  16.859 -1.7289 -0.3532  2.7791
 1236TIP3   OH225122   1.180   2.778  13.212  0.5848  0.1538 -0.1057
 1236TIP3    H125123   1.135   2.843  13.266  1.1964 -2.4559  3.7054
 1236TIP3    H225124   1.112   2.742  13.156 -0.7327  0.7529  1.0879
 1237TIP3   OH225125   4.858   6.622  15.878  0.0800  0.5408 -0.1087
 1237TIP3    H125126   4.862   6.717  15.887 -1.8428  0.7697 -1.4207
 1237TIP3    H225127   4.901   6.603  15.795 -1.9007  0.5516 -1.1751
 1238TIP3   OH225128   6.705   6.092  15.976 -0.0195  0.5638 -0.5253
 1238TIP3    H125129   6.773   6.025  15.979 -0.8046 -0.2700 -1.4381
 1238TIP3    H225130   6.730   6.149  15.903 -0.3289  0.2230 -0.8992
 1239TIP3   OH225131   1.315   1.044  13.334  0.1099 -0.3585 -0.2215
 1239TIP3    H125132   1.366   1.007  13.406  2.8033  0.0600 -1.8317
 1239TIP3    H225133   1.264   1.115  13.374 -0.5151 -1.8844  1.7425
 1240TIP3   OH225134   1.747   2.438  15.725 -0.2756 -0.1075  0.0644
 1240TIP3    H125135   1.736   2.393  15.808  3.1559  0.8959  1.1621
 1240TIP3    H225136   1.801   2.515  15.746 -0.1211  0.6759 -2.9102
 1241TIP3   OH225137   2.871   1.487   6.439  0.1768 -0.4176 -0.3175
 1241TIP3    H125138   2.933   1.558   6.424  1.2152 -0.8482  1.6703
 1241TIP3    H225139   2.787   1.530   6.453  0.8495  0.4599  1.1492
 1242TIP3   OH225140   2.883   5.498  15.657 -0.3154 -0.5271  0.0930
 1242TIP3    H125141   2.846   5.472  15.573  1.9025 -0.2157 -1.0152
 1242TIP3    H225142   2.948   5.564  15.635  1.6559 -1.8326  1.8638
 1243TIP3   OH225143   5.706   2.402   4.976 -0.1808 -0.5621  0.3622
 1243TIP3    H125144   5.708   2.348   5.055 -0.9963 -1.9262 -0.5136
 1243TIP3    H225145   5.797   2.409   4.948 -0.1049 -1.8822  0.2451
 1244TIP3   OH225146   5.903   1.766  13.491  0.1688  0.1165  0.0705
 1244TIP3    H125147   5.816   1.735  13.468  0.2975  0.2554 -0.6145
 1244TIP3    H225148   5.949   1.773  13.407  1.1360 -0.8641  0.5045
 1245TIP3   OH225149   6.044   3.014   0.053  0.4878 -0.3384  0.5125
 1245TIP3    H125150   6.140   3.017   0.053  0.6077 -3.2186  0.4242
 1245TIP3    H225151   6.020   2.995  -0.037 -0.2989  2.3481  0.1030
 1246TIP3   OH225152   5.703   5.372   1.822  0.0401  0.5524  0.1094
 1246TIP3    H125153   5.735   5.307   1.884  1.1039  1.1970  0.2408
 1246TIP3    H225154   5.633   5.417   1.868  0.1496  0.3552  0.4697
 1247TIP3   OH225155   4.617   4.520   4.024  0.3675  0.3636  1.0801
 1247TIP3    H125156   4.697   4.488   3.981  0.8741  1.8811  0.8674
 1247TIP3    H225157   4.555   4.447   4.017  0.0710  0.8911 -3.1839
 1248TIP3   OH225158   6.299   0.285  13.085 -0.2229  0.1654  0.5064
 1248TIP3    H125159   6.372   0.321  13.135  0.5429  1.0169 -1.1863
 1248TIP3    H225160   6.321   0.193  13.073  0.5379  0.3924  0.0997
 1249TIP3   OH225161   5.091   4.868  11.485  0.3216 -0.3922 -0.1599
 1249TIP3    H125162   5.093   4.958  11.452 -0.4317 -0.0262  0.7760
 1249TIP3    H225163   5.032   4.822  11.424  2.1647 -0.7220 -1.7485
 1250TIP3   OH225164   0.561   4.315  11.908  0.5174 -0.3526 -0.5510
 1250TIP3    H125165   0.610   4.234  11.921  1.9023  0.5741  0.2056
 1250TIP3    H225166   0.551   4.323  11.814 -0.4399 -1.8539 -0.6030
 1251TIP3   OH225167   0.727   2.495   3.382  0.3471 -0.2088 -0.1451
 1251TIP3    H125168   0.739   2.581   3.423 -2.4472 -1.1396  2.9182
 1251TIP3    H225169   0.792   2.439   3.425 -0.3423 -0.4365  0.6152
 1252TIP3   OH225170   3.762   1.841   5.703 -0.5124  0.1727 -0.2306
 1252TIP3    H125171   3.847   1.822   5.665 -0.6784 -0.9779 -0.0407
 1252TIP3    H225172   3.707   1.864   5.628 -0.5488 -1.0024 -0.5652
 1253TIP3   OH225173   0.722   4.249  11.447 -0.1107  0.6859 -0.0964
 1253TIP3    H125174   0.660   4.258  11.375  0.4245  2.0401 -0.4028
 1253TIP3    H225175   0.808   4.266  11.408  0.5167 -1.4819  0.2509
 1254TIP3   OH225176   2.571   1.211  10.895  0.3961  0.1324 -0.0538
 1254TIP3    H125177   2.657   1.169  10.896  0.6578  0.6475  1.7716
 1254TIP3    H225178   2.590   1.305  10.892 -0.1645  0.2078 -2.3393
 1255TIP3   OH225179   5.606   6.079  14.639  0.3284 -0.3279 -0.1877
 1255TIP3    H125180   5.517   6.112  14.629 -0.1107 -1.0853  1.1797
 1255TIP3    H225181   5.600   5.986  14.622  0.9907 -0.2775 -0.7532
 1256TIP3   OH225182   1.655   6.752   2.051  0.1661 -0.2017  0.6496
 1256TIP3    H125183   1.714   6.726   1.981 -1.5401 -2.0110 -0.1612
 1256TIP3    H225184   1.612   6.831   2.019 -0.9448 -1.2826 -0.5652
 1257TIP3   OH225185   2.920   4.235  16.735 -0.2395 -0.1062 -0.6674
 1257TIP3    H125186   2.918   4.329  16.714  0.8474  0.1225  0.2427
 1257TIP3    H225187   2.943   4.231  16.827  2.3502 -1.3515 -1.3384
 1258TIP3   OH225188   0.037   2.089  11.852  0.2490  0.3035 -0.3301
 1258TIP3    H125189   0.015   2.181  11.865 -0.2609  0.1552 -0.1213
 1258TIP3    H225190  -0.008   2.043  11.922  1.6577  0.0327  0.4038
 1259TIP3   OH225191   1.272   5.900   5.108 -0.3259 -0.6746  0.2019
 1259TIP3    H125192   1.249   5.820   5.156  0.3430  1.3060  3.9689
 1259TIP3    H225193   1.237   5.971   5.162  0.0972  1.6555 -2.4972
 1260TIP3   OH225194   4.670   6.184   1.601  0.2620  0.0874  0.4003
 1260TIP3    H125195   4.683   6.140   1.517 -1.1528  1.4744 -0.5884
 1260TIP3    H225196   4.759   6.201   1.633  0.8192 -1.3980 -0.2852
 1261TIP3   OH225197   0.416   1.225   5.327  0.3298  0.1360  0.3783
 1261TIP3    H125198   0.339   1.169   5.330 -0.2982  0.8222 -1.6845
 1261TIP3    H225199   0.393   1.293   5.264  2.7704  0.0941 -0.6155
 1262TIP3   OH225200   0.162   2.177   3.743  0.1998  0.5327  0.0299
 1262TIP3    H125201   0.235   2.231   3.712  0.0288  1.0090  0.4507
 1262TIP3    H225202   0.192   2.141   3.826  0.7300 -0.8958 -0.7755
 1263TIP3   OH225203   3.903   6.385  14.360  0.1278 -0.1406 -0.1121
 1263TIP3    H125204   3.920   6.381  14.266  1.6859  0.6990  0.1209
 1263TIP3    H225205   3.828   6.444  14.369 -0.7330 -1.0917 -0.8940
 1264TIP3   OH225206   4.851   4.360   0.047  0.2715  0.1494  1.0620
 1264TIP3    H125207   4.771   4.405   0.023 -0.0008 -0.6131  0.5454
 1264TIP3    H225208   4.824   4.299   0.115  0.0958 -1.3054 -0.3014
 1265TIP3   OH225209   4.189   1.306  16.706 -0.5226  0.3122 -0.1023
 1265TIP3    H125210   4.141   1.353  16.637  1.3261  1.0638 -0.9114
 1265TIP3    H225211   4.123   1.287  16.772 -1.2421  4.5509  0.5402
 1266TIP3   OH225212   4.403   3.762   1.279 -0.1727  0.1437 -0.0511
 1266TIP3    H125213   4.448   3.699   1.335 -0.7034  0.5451  0.8267
 1266TIP3    H225214   4.462   3.837   1.276 -0.7783  0.6697  1.0989
 1267TIP3   OH225215   6.757   4.045  13.722 -0.1461  0.3763  0.0658
 1267TIP3    H125216   6.759   4.138  13.700 -0.5872  0.3693 -0.0206
 1267TIP3    H225217   6.849   4.019  13.727 -0.0014  0.0224 -3.3027
 1268TIP3   OH225218   2.901   0.813  13.117 -0.3558  0.4919  0.1315
 1268TIP3    H125219   2.811   0.791  13.141 -0.4944  0.6592 -0.2346
 1268TIP3    H225220   2.954   0.745  13.158 -0.8069 -0.6663 -1.1859
 1269TIP3   OH225221   3.820   1.661  12.372  0.6404  0.2976  0.6338
 1269TIP3    H125222   3.797   1.688  12.461  0.7685  1.4541  0.3246
 1269TIP3    H225223   3.744   1.684  12.319  1.4667  1.8147  0.0491
 1270TIP3   OH225224   6.082   3.934  13.214  0.2210 -0.1359  0.2192
 1270TIP3    H125225   6.091   3.997  13.286 -1.4521 -0.0237  0.3373
 1270TIP3    H225226   6.142   3.863  13.237 -0.2087 -0.0390  1.6531
 1271TIP3   OH225227   3.295   3.977   1.536 -0.4698 -0.1170  0.9272
 1271TIP3    H125228   3.219   4.032   1.556 -2.7808 -2.6739 -0.4849
 1271TIP3    H225229   3.370   4.027   1.569 -2.6725  2.7915  1.7543
 1272TIP3   OH225230   6.187   0.048   4.516 -0.6081  0.4103 -0.4834
 1272TIP3    H125231   6.167  -0.027   4.460 -0.3513 -1.3081  1.6413
 1272TIP3    H225232   6.141   0.030   4.598  0.3424  2.0454  0.4419
 1273TIP3   OH225233   4.244   5.261   2.931  0.0067  0.0516 -0.8868
 1273TIP3    H125234   4.150   5.277   2.934  0.3713  1.9486  2.0515
 1273TIP3    H225235   4.259   5.189   2.992  0.5379  0.2476 -0.7757
 1274TIP3   OH225236   6.758   1.522  14.225 -0.4925 -0.1205  0.3263
 1274TIP3    H125237   6.710   1.508  14.143 -0.1162  0.5387 -0.0054
 1274TIP3    H225238   6.848   1.539  14.198  0.0412 -1.8512  0.9812
 1275TIP3   OH225239   3.136   1.632  11.991 -0.4881 -0.0480  0.0071
 1275TIP3    H125240   3.146   1.591  12.077  0.0231  0.3018  0.1165
 1275TIP3    H225241   3.061   1.692  12.002 -1.4133 -1.1480 -0.2325
 1276TIP3   OH225242   0.736   6.041  16.225 -0.2884 -0.4475 -0.6900
 1276TIP3    H125243   0.748   5.954  16.187 -0.8192 -1.0084  0.4112
 1276TIP3    H225244   0.668   6.029  16.291 -0.5594  0.8625 -0.7188
 1277TIP3   OH225245   6.372   6.710   1.085 -0.1666 -0.5073 -0.2054
 1277TIP3    H125246   6.411   6.791   1.051  0.0789 -0.9311 -0.9532
 1277TIP3    H225247   6.365   6.724   1.179  1.1327 -0.1441 -0.1603
 1278TIP3   OH225248   2.923   6.016  15.153  0.3571 -0.0377 -0.6014
 1278TIP3    H125249   2.887   6.044  15.069  0.6083  0.5659 -0.5048
 1278TIP3    H225250   2.868   5.941  15.178 -0.3713  0.4207 -0.8042
 1279TIP3   OH225251   6.460   5.224  15.681  0.2589  0.4752 -0.4545
 1279TIP3    H125252   6.555   5.231  15.681  0.2137  1.1499  0.3167
 1279TIP3    H225253   6.434   5.236  15.772 -0.4577 -1.3696 -0.3821
 1280TIP3   OH225254   0.657   5.011  14.322  0.1003 -0.2743  0.5238
 1280TIP3    H125255   0.605   5.059  14.385 -1.5112 -1.4727  0.1448
 1280TIP3    H225256   0.649   4.919  14.349  0.1607 -0.7015 -0.8562
 1281TIP3   OH225257   0.132   6.103  14.611 -0.2297 -0.0809 -0.6215
 1281TIP3    H125258   0.168   6.017  14.632 -1.0082 -0.6114 -1.4325
 1281TIP3    H225259   0.058   6.112  14.672 -1.6785 -1.0606 -2.1916
 1282TIP3   OH225260   6.567   0.109  16.652 -0.1276  0.1352  0.4133
 1282TIP3    H125261   6.627   0.145  16.586  1.1225  0.7095  1.8096
 1282TIP3    H225262   6.544   0.023  16.619  1.0358  0.1339 -0.4515
 1283TIP3   OH225263   0.133   2.349  12.106  0.3302  0.1783 -0.0317
 1283TIP3    H125264   0.094   2.349  12.018  3.1472 -0.0194 -1.3414
 1283TIP3    H225265   0.186   2.429  12.109  0.8578 -0.2030  1.2085
 1284TIP3   OH225266   0.608   2.814   1.660 -0.5191  0.0753  0.2723
 1284TIP3    H125267   0.560   2.891   1.689  1.3308  0.5814  2.0723
 1284TIP3    H225268   0.594   2.749   1.730  0.2977 -0.2326  0.1510
 1285TIP3   OH225269   6.159   1.966  16.874 -0.4006  0.2363  0.2187
 1285TIP3    H125270   6.251   1.974  16.900 -0.3010  2.5753 -0.7275
 1285TIP3    H225271   6.126   2.056  16.874 -2.6876 -0.5623  0.4580
 1286TIP3   OH225272   1.303   5.936  16.204 -0.0300 -0.6662  0.4929
 1286TIP3    H125273   1.367   5.992  16.248  0.8695 -2.9096  2.1220
 1286TIP3    H225274   1.314   5.956  16.111  2.3514 -0.2615  0.8256
 1287TIP3   OH225275   0.640   0.592   2.015 -0.0981  0.1646 -0.1300
 1287TIP3    H125276   0.578   0.663   1.997  0.3736  0.6015 -0.0307
 1287TIP3    H225277   0.724   0.636   2.028  0.6564 -0.5617 -2.2180
 1288TIP3   OH225278   3.690   2.904  15.681  0.9252  0.5267 -0.3792
 1288TIP3    H125279   3.755   2.834  15.690  1.4958  1.1508  0.4120
 1288TIP3    H225280   3.738   2.975  15.639  1.9220  2.4807  3.8325
 1289TIP3   OH225281   1.438   3.441  16.705  0.5042 -0.9877  0.3685
 1289TIP3    H125282   1.479   3.410  16.624 -0.4720 -0.8778 -0.1773
 1289TIP3    H225283   1.352   3.398  16.706  0.8596 -1.6581  1.7859
 1290TIP3   OH225284   4.446   6.298   5.776 -0.2501 -0.1177  0.0166
 1290TIP3    H125285   4.456   6.218   5.828 -0.0384  0.7684  1.3536
 1290TIP3    H225286   4.470   6.272   5.687 -1.4085 -1.8569  0.1919
 1291TIP3   OH225287   1.120   1.305   1.809 -0.1449 -0.1691  0.8183
 1291TIP3    H125288   1.152   1.227   1.855  1.2567 -0.5046 -0.6711
 1291TIP3    H225289   1.096   1.273   1.722 -0.1042  0.9558  0.3866
 1292TIP3   OH225290   2.617   2.907   6.539  1.1183 -0.2616  0.4394
 1292TIP3    H125291   2.676   2.891   6.465  1.4162 -1.3948  0.9186
 1292TIP3    H225292   2.674   2.923   6.613  0.8166 -0.6908  0.7643
 1293TIP3   OH225293   1.844   2.980   1.015 -0.6382 -0.0121  0.1143
 1293TIP3    H125294   1.879   2.942   0.935 -0.7340 -0.6147  0.3551
 1293TIP3    H225295   1.749   2.970   1.007 -0.7333  1.2366 -0.3473
 1294TIP3   OH225296   2.293   6.064  16.746  0.7774 -0.5817 -0.1960
 1294TIP3    H125297   2.345   6.121  16.690  1.6725 -1.8445 -0.6965
 1294TIP3    H225298   2.336   6.066  16.831 -1.1850  2.1572  0.7905
 1295TIP3   OH225299   3.585   3.600  13.866 -0.3840  0.0490  0.7486
 1295TIP3    H125300   3.612   3.676  13.918 -0.3877 -0.3262  1.3027
 1295TIP3    H225301   3.655   3.536  13.878 -1.4232 -0.8836  2.1009
 1296TIP3   OH225302   5.491   0.165   3.290  0.2012  0.5370  0.1715
 1296TIP3    H125303   5.577   0.180   3.329 -0.7069 -1.1334  2.9120
 1296TIP3    H225304   5.477   0.070   3.297 -2.1841  0.8725  0.5068
 1297TIP3   OH225305   1.603   3.521   2.655  0.1866 -0.5385 -0.2506
 1297TIP3    H125306   1.687   3.546   2.694  0.5936 -2.4003  0.0920
 1297TIP3    H225307   1.568   3.456   2.715 -0.8893 -0.7409 -1.0995
 1298TIP3   OH225308   6.121   3.638  16.749 -0.6715  0.6028  0.5420
 1298TIP3    H125309   6.046   3.588  16.780 -0.3800  0.8619  1.6678
 1298TIP3    H225310   6.088   3.687  16.674 -1.1378 -0.7297 -0.1385
 1299TIP3   OH225311   0.398   2.518   0.010  0.2782 -0.1598  0.9010
 1299TIP3    H125312   0.450   2.461  -0.048 -2.8726 -1.5363 -0.7039
 1299TIP3    H225313   0.346   2.572  -0.050 -2.1819 -0.7851  2.4095
 1300TIP3   OH225314   6.238   6.136  14.048 -0.0680 -0.3579 -0.1386
 1300TIP3    H125315   6.208   6.072  14.113  2.4043 -0.4854  0.9266
 1300TIP3    H225316   6.317   6.174  14.087 -0.0036  1.4187 -1.9567
 1301TIP3   OH225317   6.197   4.287  13.942 -0.1556  0.2862 -0.8098
 1301TIP3    H125318   6.267   4.225  13.921  0.2528  0.7902 -0.9525
 1301TIP3    H225319   6.200   4.352  13.871 -1.1133  0.0200 -1.0954
 1302TIP3   OH225320   4.294   1.837   1.227 -0.2640 -0.0838 -0.4175
 1302TIP3    H125321   4.221   1.868   1.173 -0.5476  1.3620  0.7709
 1302TIP3    H225322   4.372   1.860   1.177 -0.5382  0.8931 -0.4097
 1303TIP3   OH225323   0.347   0.377   4.439  0.3805  0.1070  0.4550
 1303TIP3    H125324   0.256   0.349   4.447  1.2399 -2.5355  1.5510
 1303TIP3    H225325   0.391   0.303   4.396  1.7946  1.8346 -1.1455
 1304TIP3   OH225326   4.088   6.312   2.455  0.0702  0.1867 -0.1151
 1304TIP3    H125327   4.103   6.225   2.416  1.1150 -0.4853  1.7430
 1304TIP3    H225328   4.160   6.365   2.423  0.4233 -0.1207  0.1657
 1305TIP3   OH225329   4.668   1.818   3.208 -0.4877 -0.2834  0.1112
 1305TIP3    H125330   4.642   1.747   3.149 -1.2909 -0.8411  1.1196
 1305TIP3    H225331   4.733   1.778   3.266  1.5188  0.6907 -1.3893
 1306TIP3   OH225332   2.124   5.728  13.236 -0.3389 -0.3275  0.0353
 1306TIP3    H125333   2.038   5.692  13.217 -0.5256  0.2337 -0.2021
 1306TIP3    H225334   2.153   5.681  13.315 -1.1540 -0.0345  0.5206
 1307TIP3   OH225335   0.067   2.447   5.458  0.0153 -0.1746  0.3503
 1307TIP3    H125336   0.144   2.503   5.468 -0.3355  0.1500  1.3160
 1307TIP3    H225337   0.046   2.450   5.365  1.2840 -0.4151  0.0557
 1308TIP3   OH225338   0.752   2.769   1.416 -0.2917 -0.8420 -1.0049
 1308TIP3    H125339   0.761   2.676   1.395 -1.7323 -1.5094  1.1241
 1308TIP3    H225340   0.677   2.773   1.476 -0.8629  1.8148 -1.8262
 1309TIP3   OH225341   1.625   5.685  11.263 -0.0787  0.2256 -0.6035
 1309TIP3    H125342   1.589   5.755  11.317 -1.6468 -1.9924  1.3251
 1309TIP3    H225343   1.561   5.673  11.193  0.4434  1.0378 -1.2308
 1310TIP3   OH225344   1.424   3.223  12.872 -0.2225 -0.0587  0.3407
 1310TIP3    H125345   1.335   3.193  12.861  0.2714 -1.4689  0.1364
 1310TIP3    H225346   1.456   3.176  12.949  0.9219 -0.9507 -0.6565
 1311TIP3   OH225347   2.624   4.934  16.175  0.7715 -0.2498 -0.1353
 1311TIP3    H125348   2.574   4.858  16.204 -0.7089  0.0650 -1.8001
 1311TIP3    H225349   2.616   4.997  16.247 -2.3193  0.2875 -0.8802
 1312TIP3   OH225350   0.853   4.141   2.126  0.1003  0.0941  0.5730
 1312TIP3    H125351   0.846   4.193   2.206  1.3234 -0.9591  1.3853
 1312TIP3    H225352   0.906   4.066   2.151  2.1058  0.6911 -1.6922
 1313TIP3   OH225353   2.848   2.785   5.012  0.7207 -0.2194  0.2213
 1313TIP3    H125354   2.793   2.709   4.994  0.9484 -0.2335 -0.4522
 1313TIP3    H225355   2.808   2.827   5.088  0.6241 -1.0364  0.6211
 1314TIP3   OH225356   5.610   5.135  16.110  0.3681  0.5864  0.1692
 1314TIP3    H125357   5.645   5.155  16.023 -1.6354 -0.8493 -1.0236
 1314TIP3    H225358   5.524   5.177  16.111 -0.0495 -0.2614  1.0679
 1315TIP3   OH225359   4.909   5.814  15.236 -1.0698  0.7442 -0.1888
 1315TIP3    H125360   4.939   5.809  15.146 -0.6789 -0.2602 -0.0151
 1315TIP3    H225361   4.914   5.723  15.268  1.0164  1.4176  1.5461
 1316TIP3   OH225362   2.532   4.119  10.536 -0.2532  0.1359 -0.0138
 1316TIP3    H125363   2.587   4.079  10.603  0.8662  1.0288 -0.3937
 1316TIP3    H225364   2.577   4.200  10.512 -0.7991 -0.0015 -1.6023
 1317TIP3   OH225365   5.715   1.651  13.323 -0.9585 -0.1550  0.4063
 1317TIP3    H125366   5.641   1.663  13.383 -0.8732  0.3704  0.4017
 1317TIP3    H225367   5.676   1.648  13.236 -0.9415  0.4185  0.3801
 1318TIP3   OH225368   2.554   0.882   2.921 -0.2637 -0.1209 -0.0801
 1318TIP3    H125369   2.630   0.870   2.863 -0.4929  1.6352 -0.7816
 1318TIP3    H225370   2.478   0.870   2.864 -0.5299 -1.8224  0.6107
 1319TIP3   OH225371   5.847   1.918  11.361 -0.2834 -0.2159 -0.5457
 1319TIP3    H125372   5.850   1.863  11.440 -1.1965  0.2250 -0.1915
 1319TIP3    H225373   5.872   1.859  11.290 -2.1770 -1.3644 -0.2990
 1320TIP3   OH225374   3.413   1.398   5.400 -0.4765 -0.1280 -0.3370
 1320TIP3    H125375   3.385   1.339   5.329 -3.4926 -0.4964  1.0699
 1320TIP3    H225376   3.459   1.340   5.461  1.2301  0.0018 -1.4622
 1321TIP3   OH225377   1.758   2.345  11.005  0.6808  0.2294 -0.1226
 1321TIP3    H125378   1.728   2.432  11.029  1.1458  0.4757 -0.4159
 1321TIP3    H225379   1.830   2.327  11.065  0.6434  0.0834 -0.1218
 1322TIP3   OH225380   4.474   0.101   1.863  0.2595  0.1988  0.3498
 1322TIP3    H125381   4.426   0.171   1.820  0.8446  0.4944  0.1743
 1322TIP3    H225382   4.481   0.033   1.796 -0.0523  0.0883  0.4274
 1323TIP3   OH225383   0.058   3.314   2.763 -0.2576 -0.2892 -0.1439
 1323TIP3    H125384   0.134   3.349   2.716 -0.2614  0.9041  0.7291
 1323TIP3    H225385   0.033   3.236   2.713  2.7436 -1.8295  0.6308
 1324TIP3   OH225386   1.158   4.461   0.960  0.5470 -0.5257  0.7246
 1324TIP3    H125387   1.088   4.507   0.915  0.4790 -3.5152 -2.4404
 1324TIP3    H225388   1.237   4.482   0.911  1.4239  0.4353  2.4831
 1325TIP3   OH225389   5.046   0.202  13.435  0.0246 -0.1209 -0.3918
 1325TIP3    H125390   5.071   0.293  13.454 -0.9810 -0.1845  1.4019
 1325TIP3    H225391   4.953   0.197  13.459 -0.5694 -1.0312 -2.7322
 1326TIP3   OH225392   4.707   5.235   4.709  0.1730  0.6479 -0.2731
 1326TIP3    H125393   4.705   5.323   4.673  2.0248  0.3032 -1.2884
 1326TIP3    H225394   4.655   5.182   4.648  1.2245  0.5442 -1.0848
 1327TIP3   OH225395   3.399   0.204   2.933 -0.2013 -0.1139  0.1766
 1327TIP3    H125396   3.455   0.279   2.913 -0.9853  0.5967  0.6301
 1327TIP3    H225397   3.426   0.176   3.021  0.1575 -0.4363 -0.0316
 1328TIP3   OH225398   4.823   2.854  15.020 -0.4880  0.7624 -0.2448
 1328TIP3    H125399   4.870   2.787  15.069 -1.7927  1.4365  2.0242
 1328TIP3    H225400   4.765   2.804  14.962  1.3407 -0.0518 -1.4141
 1329TIP3   OH225401   3.599   5.004  11.614 -0.0567  0.2386  0.0120
 1329TIP3    H125402   3.560   4.923  11.646 -0.3075  0.6760  0.8373
 1329TIP3    H225403   3.572   5.009  11.522  0.1802 -0.7393 -0.1148
 1330TIP3   OH225404   4.075   1.729   2.482 -0.6841  0.2437  0.3192
 1330TIP3    H125405   4.125   1.799   2.441 -1.1367 -0.4948 -1.5572
 1330TIP3    H225406   4.032   1.770   2.557 -0.5808  1.8738 -0.4938
 1331TIP3   OH225407   4.303   3.795  11.867 -0.2491 -0.5916  0.1142
 1331TIP3    H125408   4.238   3.780  11.799  0.8319  0.9288 -1.2875
 1331TIP3    H225409   4.276   3.738  11.939 -2.9840 -0.1648 -0.5140
 1332TIP3   OH225410   5.688   3.216   2.784  0.5756  0.4317 -0.3861
 1332TIP3    H125411   5.605   3.214   2.735  1.4246 -0.8540 -1.8215
 1332TIP3    H225412   5.688   3.135   2.835  0.2064  1.2352  0.9212
 1333TIP3   OH225413   0.345   3.963   4.292 -0.1276  0.4050  0.6573
 1333TIP3    H125414   0.339   3.898   4.222  0.1552 -0.1311  1.1291
 1333TIP3    H225415   0.437   3.962   4.318 -0.1650  0.8474  0.8065
 1334TIP3   OH225416   0.670   6.035   3.249 -0.0606  0.7105  0.2798
 1334TIP3    H125417   0.705   5.962   3.300 -1.1852 -0.1314 -0.1588
 1334TIP3    H225418   0.706   6.113   3.292  1.3240 -0.0960  0.6119
 1335TIP3   OH225419   2.259   5.539   4.455  0.0103  0.2814 -0.2899
 1335TIP3    H125420   2.331   5.477   4.463  1.1309  1.4564 -1.0386
 1335TIP3    H225421   2.196   5.495   4.397  0.1628 -0.7063  0.2822
 1336TIP3   OH225422   3.023   5.539  11.188  0.2640  0.1119  0.2126
 1336TIP3    H125423   3.074   5.502  11.116  2.8142  1.4923  1.2535
 1336TIP3    H225424   2.953   5.589  11.146  0.2145 -1.1419 -1.2346
 1337TIP3   OH225425   2.159   2.984  15.695  0.0055 -0.3015  0.3382
 1337TIP3    H125426   2.139   3.071  15.660 -0.7980 -0.4483  0.4280
 1337TIP3    H225427   2.209   2.941  15.625  0.6282  0.3191  0.3942
 1338TIP3   OH225428   6.709   5.649  15.298  0.4405  0.7432  0.2609
 1338TIP3    H125429   6.798   5.615  15.293  0.3504  0.5239  0.1917
 1338TIP3    H225430   6.710   5.704  15.377 -0.0341 -1.2264  1.6846
 1339TIP3   OH225431   0.229   1.679   0.817 -0.2305 -0.6929 -0.3292
 1339TIP3    H125432   0.171   1.751   0.791 -0.3246 -0.1063  1.4395
 1339TIP3    H225433   0.312   1.722   0.837 -0.7838 -0.7973  2.4540
 1340TIP3   OH225434   0.561   3.246  10.612  0.0460 -0.3143 -0.1673
 1340TIP3    H125435   0.616   3.188  10.664 -0.8218 -0.2829  0.8043
 1340TIP3    H225436   0.603   3.331  10.617  0.8481 -0.6615 -0.8707
 1341TIP3   OH225437   1.836   1.433   3.101 -0.4853  0.1026 -0.0044
 1341TIP3    H125438   1.832   1.496   3.029  0.7172 -0.1553 -0.3095
 1341TIP3    H225439   1.748   1.395   3.104 -0.9522  1.1281 -0.4131
 1342TIP3   OH225440   2.983   4.424   5.215  0.1937  0.2198 -0.4463
 1342TIP3    H125441   3.026   4.378   5.143 -1.1981  0.0744 -1.2119
 1342TIP3    H225442   2.971   4.358   5.283  0.1667 -0.0236 -0.6840
 1343TIP3   OH225443   5.107   0.126  16.778 -0.4987 -0.2348 -0.2610
 1343TIP3    H125444   5.161   0.197  16.815 -3.3847  0.8783  1.9631
 1343TIP3    H225445   5.157   0.047  16.797  0.7829  0.8356  0.9994
 1344TIP3   OH225446   6.575   5.787   3.021  0.1865 -0.5616 -0.6053
 1344TIP3    H125447   6.594   5.880   3.010 -1.5645  0.1473  2.0381
 1344TIP3    H225448   6.641   5.756   3.083 -1.1761 -0.3184  1.0003
 1345TIP3   OH225449   4.743   2.878  13.263 -0.5737  0.1152 -0.0589
 1345TIP3    H125450   4.837   2.870  13.244 -0.5907  0.1662 -0.1627
 1345TIP3    H225451   4.701   2.849  13.182 -0.6464  0.3669 -0.1112
 1346TIP3   OH225452   0.864   6.714   1.637 -0.4775  0.0199  0.5535
 1346TIP3    H125453   0.808   6.685   1.709 -0.9706 -1.1275 -0.2822
 1346TIP3    H225454   0.950   6.678   1.658 -1.0633 -1.9876 -0.4222
 1347TIP3   OH225455   0.592   0.404  10.794  0.2531 -0.4365  0.1075
 1347TIP3    H125456   0.636   0.396  10.879  0.9012 -0.7647 -0.2582
 1347TIP3    H225457   0.572   0.315  10.768  0.6614 -0.3886 -0.3957
 1348TIP3   OH225458   0.852   5.297   6.164 -0.3369 -0.3926 -0.6233
 1348TIP3    H125459   0.767   5.260   6.187  0.7507 -0.7975  3.1780
 1348TIP3    H225460   0.847   5.389   6.191 -0.0217 -0.0378 -1.7288
 1349TIP3   OH225461   3.789   5.776  13.647 -0.0042 -0.4075 -0.5002
 1349TIP3    H125462   3.847   5.802  13.576 -0.7889  0.5337 -0.8032
 1349TIP3    H225463   3.704   5.761  13.606 -0.0712 -1.4853 -0.0115
 1350TIP3   OH225464   3.208   2.668  17.154 -0.6456 -0.1950 -0.5719
 1350TIP3    H125465   3.201   2.712  17.238 -0.5621 -0.0644 -0.6314
 1350TIP3    H225466   3.205   2.738  17.089 -1.7238 -0.3628 -0.7239
 1351TIP3   OH225467   3.041   0.743   5.025  0.3239  0.4897  0.1057
 1351TIP3    H125468   3.038   0.789   4.941  1.3037 -1.5750 -1.0877
 1351TIP3    H225469   3.119   0.778   5.068  0.4300  0.7659 -0.3009
 1352TIP3   OH225470   3.513   5.682   4.910 -0.6043 -0.5131  0.2068
 1352TIP3    H125471   3.431   5.641   4.940 -0.8417 -0.2423 -0.0705
 1352TIP3    H225472   3.517   5.661   4.817 -0.6258 -0.0761  0.1062
 1353TIP3   OH225473   2.865   0.971   4.134  0.2907 -0.4356 -0.1500
 1353TIP3    H125474   2.822   0.887   4.149 -0.4429 -0.5826 -2.9622
 1353TIP3    H225475   2.944   0.966   4.188  0.6788 -3.2644 -0.8663
 1354TIP3   OH225476   3.691   1.223  13.138 -0.4001  0.4055 -0.4925
 1354TIP3    H125477   3.646   1.285  13.081  0.7810  0.8007 -1.0295
 1354TIP3    H225478   3.622   1.179  13.187 -1.3405  1.0520 -1.2373
 1355TIP3   OH225479   6.620   0.467  13.946  0.6999  0.0560 -0.1252
 1355TIP3    H125480   6.567   0.469  13.867 -1.6708  0.5121  1.4113
 1355TIP3    H225481   6.630   0.375  13.967  1.1683 -0.0574 -0.8453
 1356TIP3   OH225482   1.004   0.953   1.072  0.1411 -0.0801 -0.3228
 1356TIP3    H125483   1.032   0.865   1.046  1.3193  0.4352 -0.8663
 1356TIP3    H225484   0.916   0.962   1.036  0.6317 -0.4528 -1.6437
 1357TIP3   OH225485   6.600   5.347   3.572  0.0078  0.1262  0.1968
 1357TIP3    H125486   6.506   5.336   3.558 -0.1641  0.4626  1.0495
 1357TIP3    H225487   6.608   5.436   3.606  0.6701  0.2101 -0.1842
 1358TIP3   OH225488   0.656   3.420   0.249 -0.0282 -0.2167  0.2541
 1358TIP3    H125489   0.605   3.491   0.287 -1.0051 -1.0962  0.6033
 1358TIP3    H225490   0.669   3.445   0.158 -0.4897  0.3381  0.3390
 1359TIP3   OH225491   4.134   1.837   5.389  0.1988 -0.8788 -0.4124
 1359TIP3    H125492   4.093   1.758   5.355  0.2006 -0.4912 -1.3168
 1359TIP3    H225493   4.165   1.884   5.312  1.9854 -0.9615  0.2259
 1360TIP3   OH225494   6.709   0.629   1.087 -0.0366 -0.2939 -0.0275
 1360TIP3    H125495   6.726   0.568   1.016  0.4442  1.0256 -1.0615
 1360TIP3    H225496   6.769   0.702   1.071 -0.5439  0.4163  1.2299
 1361TIP3   OH225497   1.672   6.688   2.841  0.0571  0.0758  0.0061
 1361TIP3    H125498   1.633   6.674   2.928  1.3051 -2.2099  0.2425
 1361TIP3    H225499   1.752   6.635   2.842 -0.4194 -0.7775 -2.8774
 1362TIP3   OH225500   1.586   4.609   1.407  0.5391 -0.2991  0.1738
 1362TIP3    H125501   1.560   4.582   1.495 -0.0132  1.1214  0.4522
 1362TIP3    H225502   1.603   4.527   1.361 -1.2453 -1.1410  0.9684
 1363TIP3   OH225503   2.456   4.432   0.362  0.3542 -0.6298  0.2950
 1363TIP3    H125504   2.415   4.346   0.350  2.6169 -1.5204 -1.3633
 1363TIP3    H225505   2.485   4.457   0.274  3.0306  0.1187  1.3444
 1364TIP3   OH225506   3.513   5.934  15.689 -0.8572 -0.0264 -0.0894
 1364TIP3    H125507   3.429   5.891  15.676 -0.1974 -0.6589 -2.3846
 1364TIP3    H225508   3.578   5.863  15.683 -0.0754  0.6158  0.5812
 1365TIP3   OH225509   3.690   3.735  11.726  0.1739  0.0420  0.5462
 1365TIP3    H125510   3.643   3.811  11.760  0.5381  0.7644 -0.5310
 1365TIP3    H225511   3.626   3.663  11.730 -0.1138  0.3551  1.7321
 1366TIP3   OH225512   5.109   4.180  14.880  0.0734  0.1424  0.5688
 1366TIP3    H125513   5.151   4.200  14.796 -2.0060  3.3964  0.2255
 1366TIP3    H225514   5.179   4.141  14.932  2.4852  1.7561 -1.3250
 1367TIP3   OH225515   0.904   4.388  14.492  0.4843  0.1665 -0.0707
 1367TIP3    H125516   0.912   4.454  14.423  0.7018  1.4676  1.1863
 1367TIP3    H225517   0.816   4.401  14.527  0.5958 -0.0912  0.3026
 1368TIP3   OH225518   6.310   0.980  16.020  0.6216 -0.1423 -0.0149
 1368TIP3    H125519   6.239   0.985  16.084 -0.7118 -0.2765 -1.4536
 1368TIP3    H225520   6.389   0.967  16.073 -0.6602 -2.0056  1.4983
 1369TIP3   OH225521   6.771   5.600   5.268 -0.0000  0.1010 -0.2867
 1369TIP3    H125522   6.814   5.567   5.189  0.3099 -1.9684  0.7254
 1369TIP3    H225523   6.682   5.566   5.263  0.2405 -0.6709  0.6361
 1370TIP3   OH225524   1.213   4.029  16.454 -0.4591 -0.2199 -0.3242
 1370TIP3    H125525   1.264   4.025  16.535 -0.4357 -2.0451 -0.4031
 1370TIP3    H225526   1.137   4.082  16.476 -0.0725 -0.0580  0.6754
 1371TIP3   OH225527   3.909   6.693  11.903  0.5845  0.3780 -0.5368
 1371TIP3    H125528   3.909   6.711  11.997 -3.5926  3.5129 -0.9621
 1371TIP3    H225529   3.865   6.609  11.895  1.2020 -0.0347  0.3038
 1372TIP3   OH225530   2.939   5.738  17.107  0.1508  0.3677 -0.5704
 1372TIP3    H125531   2.870   5.685  17.067 -0.9346  0.2448  1.4316
 1372TIP3    H225532   2.910   5.753  17.197  1.9880  1.6394 -0.1510
 1373TIP3   OH225533   4.365   2.585  14.702  0.1141  0.1555  0.3897
 1373TIP3    H125534   4.280   2.570  14.661 -0.5610  0.1247  1.7705
 1373TIP3    H225535   4.372   2.516  14.768  1.0357  0.4021  0.5509
 1374TIP3   OH225536   1.931   6.634  12.654 -0.3992  0.2095 -0.2229
 1374TIP3    H125537   1.868   6.657  12.721 -0.2503 -1.1452  0.4079
 1374TIP3    H225538   1.884   6.645  12.571 -1.2958 -0.2618  0.2173
 1375TIP3   OH225539   3.402   2.687   2.659  0.1128 -0.4280  0.4232
 1375TIP3    H125540   3.437   2.611   2.613 -0.2623 -0.2290 -0.2103
 1375TIP3    H225541   3.476   2.747   2.666 -0.1551  0.1034 -1.1512
 1376TIP3   OH225542   2.280   1.665  13.444  0.2882  0.0687  0.1856
 1376TIP3    H125543   2.252   1.576  13.466  2.3534 -0.5836  0.2414
 1376TIP3    H225544   2.319   1.699  13.524 -0.8255  1.1822  0.2733
 1377TIP3   OH225545   1.339   6.609   3.818 -0.0027 -0.1197  0.1669
 1377TIP3    H125546   1.432   6.629   3.824 -0.0734  0.6313 -1.0572
 1377TIP3    H225547   1.316   6.573   3.904  1.1062  1.0180  0.9619
 1378TIP3   OH225548   5.388   3.332  13.430 -0.7417 -0.0447 -0.3523
 1378TIP3    H125549   5.473   3.376  13.434 -0.0458 -1.5630  3.2063
 1378TIP3    H225550   5.324   3.402  13.445  0.1397  0.3773  1.5221
 1379TIP3   OH225551   6.544   2.835  15.568 -0.2660 -0.1561  0.3526
 1379TIP3    H125552   6.584   2.760  15.613  1.1599  0.7831  0.7146
 1379TIP3    H225553   6.513   2.891  15.639 -0.3347  0.1056  0.1165
 1380TIP3   OH225554   5.004   4.445  11.851  0.7063  0.2899  0.0141
 1380TIP3    H125555   4.932   4.507  11.866  1.5658  0.7371  2.4452
 1380TIP3    H225556   4.995   4.381  11.922 -0.0172 -2.3127 -2.2942
 1381TIP3   OH225557   4.428   4.285  15.126 -0.4448  0.1388  0.1246
 1381TIP3    H125558   4.476   4.343  15.066 -0.0560 -0.8205 -0.4974
 1381TIP3    H225559   4.458   4.311  15.213  2.7767 -1.7799 -0.3297
 1382TIP3   OH225560   6.742   0.015   5.189 -0.2711 -0.2389  0.1014
 1382TIP3    H125561   6.663  -0.039   5.191 -0.1298 -0.4025  2.5585
 1382TIP3    H225562   6.759   0.028   5.096 -1.1308 -3.1951 -0.5274
 1383TIP3   OH225563   1.267   5.409  12.579  0.6556  0.1994 -0.1649
 1383TIP3    H125564   1.286   5.324  12.620 -0.3783 -0.1476 -0.3769
 1383TIP3    H225565   1.316   5.406  12.496  0.7234 -0.1378 -0.1148
 1384TIP3   OH225566   3.835   5.851   5.311 -0.0958  0.0686 -0.0802
 1384TIP3    H125567   3.779   5.913   5.263 -3.0235 -1.6507  0.9884
 1384TIP3    H225568   3.875   5.797   5.243  1.2313  2.0836 -0.9271
 1385TIP3   OH225569   2.966   0.280  13.435 -0.1857 -0.0659 -0.4000
 1385TIP3    H125570   2.952   0.230  13.515  0.3174  2.1985  1.1578
 1385TIP3    H225571   3.061   0.284  13.425 -0.2574 -1.0296 -1.5802
 1386TIP3   OH225572   2.975   2.497   0.102 -0.3208  0.0251 -0.0893
 1386TIP3    H125573   2.946   2.489   0.192 -3.4360  0.9123 -0.9728
 1386TIP3    H225574   2.951   2.586   0.076 -0.1571 -0.4641 -2.0274
 1387TIP3   OH225575   6.195   6.207   5.370 -0.3499  0.0538  0.1043
 1387TIP3    H125576   6.146   6.279   5.331  1.5041  2.0625  1.3976
 1387TIP3    H225577   6.140   6.176   5.442 -1.0800  0.2767 -0.3588
 1388TIP3   OH225578   6.020   5.740  16.036 -0.2482 -0.2764  0.2583
 1388TIP3    H125579   5.965   5.818  16.038 -1.4056 -1.1018  1.4918
 1388TIP3    H225580   5.959   5.667  16.041  0.9549 -1.1957  2.1631
 1389TIP3   OH225581   4.376   2.924  11.411 -0.0988  0.1715 -0.4623
 1389TIP3    H125582   4.394   2.893  11.500  1.1296  2.8995  0.3087
 1389TIP3    H225583   4.420   2.861  11.354  4.3099  1.6612  1.1029
 1390TIP3   OH225584   6.610   4.544   5.583  0.2641 -0.2060  0.2063
 1390TIP3    H125585   6.584   4.508   5.668  0.8280 -2.0767 -0.3834
 1390TIP3    H225586   6.705   4.537   5.581  0.2840  0.1769 -0.4185
 1391TIP3   OH225587   6.725   2.868  14.400  0.3254  0.2531  0.2440
 1391TIP3    H125588   6.637   2.835  14.418  0.3557  0.2454  0.3777
 1391TIP3    H225589   6.732   2.865  14.304  0.7244 -1.1623  0.2959
 1392TIP3   OH225590   5.641   5.011  12.581  0.3840  0.1107  0.0395
 1392TIP3    H125591   5.604   4.926  12.603 -0.9175  0.4901 -0.6449
 1392TIP3    H225592   5.729   4.992  12.549  0.7963 -0.8006  1.6399
 1393TIP3   OH225593   0.336   3.681  11.732 -0.5571  0.7135 -0.0240
 1393TIP3    H125594   0.419   3.716  11.764 -1.0873 -0.0818  2.3083
 1393TIP3    H225595   0.270   3.740  11.769 -1.1273  0.3791 -0.5057
 1394TIP3   OH225596   0.456   1.201   2.903 -0.3022  0.4982  0.3149
 1394TIP3    H125597   0.437   1.129   2.964 -0.4664  1.3354  1.2557
 1394TIP3    H225598   0.539   1.238   2.934 -1.2703  2.0519  1.0893
 1395TIP3   OH225599   3.354   5.033  10.598 -0.1749 -0.3331  0.3079
 1395TIP3    H125600   3.268   5.067  10.571  0.2334  0.4797  0.0094
 1395TIP3    H225601   3.389   5.101  10.654  2.2824  1.5327 -3.3049
 1396TIP3   OH225602   3.330   2.117  10.955 -0.0428  0.2453 -0.1506
 1396TIP3    H125603   3.341   2.082  10.866  1.0970 -2.7171  1.0953
 1396TIP3    H225604   3.386   2.194  10.957 -1.0386  1.0639 -2.3824
 1397TIP3   OH225605   1.586   5.809  13.925 -0.1745 -0.3823 -0.1230
 1397TIP3    H125606   1.661   5.751  13.934  0.1583  0.2453  1.1915
 1397TIP3    H225607   1.624   5.896  13.911 -0.6644 -0.1188  0.1812
 1398TIP3   OH225608   5.098   5.396  17.005  0.7357  0.3997 -0.0107
 1398TIP3    H125609   5.109   5.320  17.062  2.8319  1.7094  1.4512
 1398TIP3    H225610   5.006   5.420  17.013  0.7053 -0.2637  1.7743
 1399TIP3   OH225611   4.848   5.593  11.807  0.0985 -0.3823 -0.3220
 1399TIP3    H125612   4.821   5.510  11.845  1.7437 -0.2518  1.2142
 1399TIP3    H225613   4.767   5.637  11.783 -0.8937 -1.2982  1.3234
 1400TIP3   OH225614   2.879   6.436  15.236 -0.4292  0.1166 -0.1421
 1400TIP3    H125615   2.840   6.377  15.171  1.1063  0.4330 -1.3925
 1400TIP3    H225616   2.932   6.497  15.184 -0.4700  1.3935  1.2894
 1401TIP3   OH225617   3.397   2.785  11.059 -0.2009  0.4136 -0.3069
 1401TIP3    H125618   3.389   2.703  11.011 -3.3631 -0.1196  0.9950
 1401TIP3    H225619   3.481   2.777  11.106 -1.3352 -2.9173  1.2788
 1402TIP3   OH225620   3.159   0.239  11.586  0.4126 -0.2156 -0.4744
 1402TIP3    H125621   3.131   0.290  11.510 -0.0431  0.9262  0.4420
 1402TIP3    H225622   3.254   0.231  11.577  0.3161 -0.4262 -1.3577
 1403TIP3   OH225623   2.289   3.641   4.970 -0.2152 -0.5869 -0.3248
 1403TIP3    H125624   2.324   3.591   5.044  1.9333  0.9990 -0.2390
 1403TIP3    H225625   2.316   3.731   4.986  0.2332 -0.1928 -3.0137
 1404TIP3   OH225626   5.198   0.147  12.663 -0.2555 -0.4565  0.0252
 1404TIP3    H125627   5.229   0.097  12.588 -0.6180 -1.8828  0.8025
 1404TIP3    H225628   5.258   0.221  12.669 -0.9678  0.3782 -2.4114
 1405TIP3   OH225629   2.967   6.703   1.986  0.1072  0.0527 -0.7753
 1405TIP3    H125630   2.962   6.791   1.948 -0.1297  0.3795 -0.0049
 1405TIP3    H225631   2.928   6.646   1.921 -2.3065  0.8913 -0.1044
 1406TIP3   OH225632   2.787   2.982  11.562  0.1267  0.1531  0.2801
 1406TIP3    H125633   2.851   3.052  11.573  0.7578 -0.4621  0.5478
 1406TIP3    H225634   2.838   2.902  11.568 -0.9505 -0.4022  2.4404
 1407TIP3   OH225635   6.387   3.219  12.043 -0.5660  0.7891 -0.0408
 1407TIP3    H125636   6.380   3.293  11.983  0.4909  1.0442  0.1442
 1407TIP3    H225637   6.467   3.236  12.093 -0.2444 -0.5297 -0.0817
 1408TIP3   OH225638   4.214   0.774   3.515  0.0249  0.8140 -0.8890
 1408TIP3    H125639   4.271   0.699   3.530 -0.2018  0.3758 -2.1341
 1408TIP3    H225640   4.191   0.805   3.603  0.7166 -0.1114 -0.3736
 1409TIP3   OH225641   4.519   2.421  13.216  0.1696  0.0692  0.7357
 1409TIP3    H125642   4.432   2.389  13.241  0.4337  0.0764  1.7037
 1409TIP3    H225643   4.580   2.369  13.268  0.8369 -0.9797 -1.0583
 1410TIP3   OH225644   1.191   2.337  14.066  0.8854 -0.2340 -0.1180
 1410TIP3    H125645   1.252   2.263  14.073 -0.8514 -1.6276  0.8668
 1410TIP3    H225646   1.203   2.369  13.977  1.2343 -2.1151 -0.7804
 1411TIP3   OH225647   0.717   5.254  12.233 -0.0033 -1.2929 -0.6863
 1411TIP3    H125648   0.645   5.303  12.194  2.1074  0.1671 -2.8932
 1411TIP3    H225649   0.684   5.227  12.319 -2.4071  1.2081 -0.7509
 1412TIP3   OH225650   3.096   5.569  13.420  0.2304 -0.0032 -0.0328
 1412TIP3    H125651   3.081   5.594  13.329  1.0414 -1.1039 -0.4912
 1412TIP3    H225652   3.037   5.495  13.434  0.2508  0.0398  0.2688
 1413TIP3   OH225653   1.462   2.291   0.471 -0.1488 -0.4439  0.8734
 1413TIP3    H125654   1.430   2.224   0.410 -0.3511 -1.0048  1.5889
 1413TIP3    H225655   1.557   2.289   0.461 -0.2026 -0.3082  0.3382
 1414TIP3   OH225656   0.949   0.850  15.385 -0.2475 -0.5815 -0.0389
 1414TIP3    H125657   0.972   0.943  15.378  0.0722 -0.5949  0.7392
 1414TIP3    H225658   0.994   0.808  15.313  0.8536 -0.3603  0.5083
 1415TIP3   OH225659   5.090   2.334   6.372  0.3479  0.1212  0.5838
 1415TIP3    H125660   5.009   2.346   6.322  0.4907 -0.4354  0.2187
 1415TIP3    H225661   5.099   2.239   6.381  0.6094  0.1990  1.2076
 1416TIP3   OH225662   2.262   2.411   5.194 -0.2199  0.3162 -0.1600
 1416TIP3    H125663   2.178   2.415   5.148 -0.5505 -1.7066  0.2440
 1416TIP3    H225664   2.326   2.435   5.128 -0.9074 -0.3269 -1.0762
 1417TIP3   OH225665   3.375   0.309   0.766 -0.0910 -0.0943 -0.5595
 1417TIP3    H125666   3.315   0.383   0.779 -1.2534 -1.2370  0.6354
 1417TIP3    H225667   3.333   0.256   0.698 -0.7830 -1.2372  0.7389
 1418TIP3   OH225668   5.736   3.713  14.987  0.2898  0.3242 -0.3093
 1418TIP3    H125669   5.829   3.737  14.990  0.4522 -0.1576 -1.3797
 1418TIP3    H225670   5.706   3.746  14.903 -0.4447  0.2068 -0.0904
 1419TIP3   OH225671   5.270   3.423   0.463 -0.8417 -0.6888  0.0539
 1419TIP3    H125672   5.260   3.494   0.400 -0.9144 -0.4087  0.3788
 1419TIP3    H225673   5.250   3.463   0.548  0.0733 -0.8660  0.3575
 1420TIP3   OH225674   4.510   1.741  13.265  0.2643 -0.2375  0.4525
 1420TIP3    H125675   4.431   1.789  13.289 -0.1502 -0.5835 -0.2319
 1420TIP3    H225676   4.509   1.663  13.320  1.9781  1.4799  3.0588
 1421TIP3   OH225677   1.697   2.415   5.095  0.1608 -0.4372 -0.7105
 1421TIP3    H125678   1.695   2.328   5.135 -2.8453  0.3518  1.0651
 1421TIP3    H225679   1.667   2.401   5.005  0.1390 -1.2931 -0.5690
 1422TIP3   OH225680   0.866   2.914   3.752  0.1762  0.3971 -0.3242
 1422TIP3    H125681   0.899   2.946   3.668 -2.2627  1.5398 -0.8985
 1422TIP3    H225682   0.936   2.934   3.814  2.0350 -0.4995 -2.0486
 1423TIP3   OH225683   2.892   2.081   0.076 -0.1615  0.3570  0.2326
 1423TIP3    H125684   2.805   2.053   0.048  0.1511  0.2706 -0.6633
 1423TIP3    H225685   2.943   2.086  -0.005  1.0373 -0.9065  0.8980
 1424TIP3   OH225686   1.860   3.676   5.021 -0.9713 -0.3154 -0.0807
 1424TIP3    H125687   1.921   3.647   5.089 -0.6078 -1.3807 -0.8448
 1424TIP3    H225688   1.868   3.771   5.021  0.2221 -0.4022  0.2586
 1425TIP3   OH225689   0.257   4.675   6.128 -0.0348 -0.2618 -0.0146
 1425TIP3    H125690   0.302   4.759   6.113  2.3233 -1.1494  1.7621
 1425TIP3    H225691   0.164   4.698   6.132  0.5396  2.2233  0.1051
 1426TIP3   OH225692   3.320   3.934  13.877 -0.1058  0.4491  0.5406
 1426TIP3    H125693   3.247   3.962  13.932 -0.6791  1.2565 -0.6117
 1426TIP3    H225694   3.310   3.985  13.797  1.6564  0.4860  0.3302
 1427TIP3   OH225695   4.695   2.243   5.835  0.2197  0.3257 -0.1730
 1427TIP3    H125696   4.641   2.189   5.893  1.7574 -0.9972  0.0635
 1427TIP3    H225697   4.745   2.180   5.783  1.6077  1.5086 -0.3062
 1428TIP3   OH225698   3.952   6.367   4.928  0.6166 -0.3556  0.1397
 1428TIP3    H125699   3.937   6.285   4.975 -1.5549  0.8023  1.5769
 1428TIP3    H225700   3.983   6.341   4.841  0.6610 -2.6565  0.8361
 1429TIP3   OH225701   0.450   2.156   4.970 -0.1558 -0.2441 -0.5402
 1429TIP3    H125702   0.422   2.065   4.960  1.2584 -0.4432 -2.8493
 1429TIP3    H225703   0.463   2.188   4.881  0.6952  1.8138  0.2789
 1430TIP3   OH225704   2.538   2.558   3.766  0.2897  0.4633 -0.2323
 1430TIP3    H125705   2.562   2.565   3.858  1.6259  0.5854 -0.5713
 1430TIP3    H225706   2.582   2.478   3.736  0.9213  1.1011 -1.0525
 1431TIP3   OH225707   1.233   3.107  16.619 -0.2580 -0.5454  0.2881
 1431TIP3    H125708   1.315   3.058  16.609 -0.6549 -0.7370 -2.3456
 1431TIP3    H225709   1.171   3.059  16.564 -1.1550  1.7954 -0.7670
 1432TIP3   OH225710   5.612   2.116  13.969  0.0139  0.0644  0.0988
 1432TIP3    H125711   5.580   2.050  14.031 -0.1762  0.6318  0.6017
 1432TIP3    H225712   5.532   2.150  13.928  0.1223 -0.1185 -0.2688
 1433TIP3   OH225713   5.258   4.292  17.204  0.0053 -0.1219 -0.0292
 1433TIP3    H125714   5.351   4.291  17.225 -0.1220 -1.3114  0.5319
 1433TIP3    H225715   5.222   4.215  17.248 -0.8146 -1.0645 -2.2452
 1434TIP3   OH225716   0.400   1.997   1.952  0.3548  0.1883  0.2252
 1434TIP3    H125717   0.333   1.969   1.889 -1.1027  3.5045  0.1532
 1434TIP3    H225718   0.482   1.994   1.903 -0.2793 -0.3946 -0.8302
 1435TIP3   OH225719   6.033   5.299  13.340  0.6522  0.2738  0.5737
 1435TIP3    H125720   6.009   5.383  13.378  0.8246  0.1587  0.9410
 1435TIP3    H225721   6.129   5.295  13.346  0.5899 -0.2834  1.2831
 1436TIP3   OH225722   6.427   5.067  12.210  0.1876 -0.0964 -0.3730
 1436TIP3    H125723   6.370   5.080  12.286  2.0468 -1.1462  1.2598
 1436TIP3    H225724   6.497   5.131  12.222  0.1281  0.2050 -1.5966
 1437TIP3   OH225725   4.489   5.176  11.257 -0.2476  0.1432 -0.1110
 1437TIP3    H125726   4.422   5.244  11.268 -0.3535  0.5739 -2.9705
 1437TIP3    H225727   4.439   5.096  11.238 -0.0744 -0.4891  2.0040
 1438TIP3   OH225728   4.637   0.847   4.585 -0.5613 -0.3183  0.8366
 1438TIP3    H125729   4.648   0.752   4.587 -0.3419 -0.2985  0.5774
 1438TIP3    H225730   4.705   0.880   4.644  1.3743 -0.1444 -1.4315
 1439TIP3   OH225731   1.294   2.253  11.989  0.1736  0.4473 -0.3304
 1439TIP3    H125732   1.229   2.201  11.942 -0.4759  2.4398 -1.6818
 1439TIP3    H225733   1.372   2.249  11.935 -0.2114  1.7635 -0.9928
 1440TIP3   OH225734   6.013   6.243  11.332  0.4378 -0.2478  0.0950
 1440TIP3    H125735   5.933   6.280  11.294  1.6639  1.8698 -0.5323
 1440TIP3    H225736   6.059   6.205  11.258  0.5748 -0.4166  0.2666
 1441TIP3   OH225737   3.696   5.523  11.862 -0.0350  0.3553 -0.3453
 1441TIP3    H125738   3.652   5.439  11.853 -0.2694  0.7970 -3.8393
 1441TIP3    H225739   3.626   5.584  11.886 -0.1368 -0.0948  0.5678
 1442TIP3   OH225740   1.714   4.268  14.665  0.0245  0.1552 -0.1359
 1442TIP3    H125741   1.748   4.200  14.722 -0.7572 -1.1235 -1.1576
 1442TIP3    H225742   1.787   4.328  14.651  0.4520  0.0196  1.5064
 1443TIP3   OH225743   4.077   5.324  15.332  0.0550  0.1509  0.2993
 1443TIP3    H125744   3.992   5.357  15.362 -0.3228 -1.3311  0.9196
 1443TIP3    H225745   4.058   5.284  15.247  0.6760  2.2441 -0.8579
 1444TIP3   OH225746   6.366   1.926   5.631  0.4009 -0.9433 -0.0493
 1444TIP3    H125747   6.350   1.958   5.719 -0.5048  0.3171 -0.6446
 1444TIP3    H225748   6.456   1.951   5.612  0.5072 -0.9733  0.4114
 1445TIP3   OH225749   3.691   1.075   1.503 -0.1996  0.4161  0.4330
 1445TIP3    H125750   3.604   1.087   1.464 -0.7008  0.4994  1.5635
 1445TIP3    H225751   3.703   0.980   1.507 -0.4813  0.3999  0.8270
 1446TIP3   OH225752   1.566   5.781   0.759  0.5663 -0.2170  0.3277
 1446TIP3    H125753   1.553   5.717   0.829  0.3252 -0.3262  0.1862
 1446TIP3    H225754   1.658   5.807   0.766  0.2904  0.5238  1.3134
 1447TIP3   OH225755   4.042   2.035  13.149 -0.7667  0.3539  0.0465
 1447TIP3    H125756   4.009   2.085  13.224  0.9531 -1.7765  2.3046
 1447TIP3    H225757   4.054   2.100  13.081 -2.6307  2.3273  1.5134
 1448TIP3   OH225758   0.883   1.509   5.493 -0.2733  0.9052  0.0072
 1448TIP3    H125759   0.801   1.495   5.446 -0.2269  0.9563 -0.0878
 1448TIP3    H225760   0.949   1.460   5.444 -0.2134  1.0085 -0.0165
 1449TIP3   OH225761   3.735   5.296  11.469 -0.0522 -0.3639  0.0902
 1449TIP3    H125762   3.718   5.312  11.562  2.3591  0.5687  0.3924
 1449TIP3    H225763   3.736   5.383  11.430 -0.1016 -0.6928 -0.6367
 1450TIP3   OH225764   0.806   0.341   4.404  0.3991 -0.1512  0.4334
 1450TIP3    H125765   0.721   0.297   4.400  1.1489 -1.6122  0.0810
 1450TIP3    H225766   0.868   0.270   4.422  1.9291  0.3698 -2.5459
 1451TIP3   OH225767   6.289   2.225   4.835 -0.2233  0.2106  0.0329
 1451TIP3    H125768   6.358   2.239   4.769 -0.3363  1.2010  0.1228
 1451TIP3    H225769   6.325   2.261   4.916 -0.0868 -1.0030  0.5237
 1452TIP3   OH225770   2.553   0.383  14.982 -0.2902 -0.0529 -0.9873
 1452TIP3    H125771   2.492   0.410  14.913  0.0918  0.9468 -0.9412
 1452TIP3    H225772   2.624   0.447  14.978  1.1745 -1.6766 -1.5816
 1453TIP3   OH225773   5.123   4.056  11.024 -0.1134 -0.1245 -0.0079
 1453TIP3    H125774   5.157   4.070  11.113  0.1701  0.3315 -0.1895
 1453TIP3    H225775   5.070   4.134  11.007  1.2141  0.5974 -0.9010
 1454TIP3   OH225776   6.328   2.381  12.920 -0.0952  0.7017 -0.4041
 1454TIP3    H125777   6.282   2.298  12.909  2.1589 -1.0890  2.9456
 1454TIP3    H225778   6.341   2.413  12.831 -1.9867 -1.9380 -1.7059
 1455TIP3   OH225779   2.693   0.996   5.348  0.3295 -0.4033  0.0651
 1455TIP3    H125780   2.604   0.984   5.382 -0.2207  2.5368 -0.2531
 1455TIP3    H225781   2.750   0.965   5.418 -0.8819 -3.5694 -0.2243
 1456TIP3   OH225782   0.979   1.434  14.784 -0.0329  0.5707  0.2493
 1456TIP3    H125783   0.950   1.519  14.816 -1.3098 -0.3617  1.5915
 1456TIP3    H225784   0.955   1.372  14.853  2.2537 -0.6810 -0.0314
 1457TIP3   OH225785   3.077   1.610   6.599 -0.2856  0.7242  0.6318
 1457TIP3    H125786   3.032   1.526   6.603  1.5688 -0.2292  2.4623
 1457TIP3    H225787   3.008   1.675   6.604 -1.7816 -0.6545 -1.1614
 1458TIP3   OH225788   0.447   6.612  14.930  0.7913 -0.3508 -0.1192
 1458TIP3    H125789   0.363   6.637  14.969  0.9197  1.7304 -1.1161
 1458TIP3    H225790   0.423   6.576  14.845  0.9293  0.8812 -0.6952
 1459TIP3   OH225791   5.667   2.724   0.711 -0.6758 -0.4594  0.0961
 1459TIP3    H125792   5.714   2.791   0.663 -0.9208  1.4557  2.4365
 1459TIP3    H225793   5.594   2.699   0.653 -0.1835  0.7760 -1.0767
 1460TIP3   OH225794   6.482   2.612   3.389 -0.2641  0.4383  0.8037
 1460TIP3    H125795   6.476   2.699   3.351  0.7472 -0.0956 -0.6428
 1460TIP3    H225796   6.570   2.581   3.365 -1.1187 -1.5155  0.0696
 1461TIP3   OH225797   1.673   1.248  15.468 -0.2413  0.1547 -0.1237
 1461TIP3    H125798   1.681   1.316  15.536  0.6706  1.1964 -1.2430
 1461TIP3    H225799   1.648   1.297  15.389  1.0275 -0.7453 -1.0841
 1462TIP3   OH225800   0.181   3.659  15.104 -1.0869 -0.0785  0.2268
 1462TIP3    H125801   0.151   3.679  15.193  3.5209 -1.1725  2.2262
 1462TIP3    H225802   0.199   3.565  15.105 -1.4326 -0.1904 -2.0247
 1463TIP3   OH225803   1.531   3.113   6.210  1.0397 -0.2162  0.0076
 1463TIP3    H125804   1.580   3.035   6.236 -1.7349 -2.2031 -0.4907
 1463TIP3    H225805   1.554   3.179   6.276  2.4763 -1.8264  1.1578
 1464TIP3   OH225806   1.010   3.844  15.000 -0.2596  0.2687 -0.4198
 1464TIP3    H125807   0.964   3.776  15.050  0.8342  0.1592  0.4560
 1464TIP3    H225808   1.014   3.919  15.060  0.1382  0.4984 -0.7296
 1465TIP3   OH225809   1.215   1.305   6.003 -0.0059 -0.8106 -0.4398
 1465TIP3    H125810   1.203   1.359   6.080  1.2847  1.1346 -1.5516
 1465TIP3    H225811   1.127   1.287   5.971 -0.4679 -0.0806  0.4240
 1466TIP3   OH225812   2.902   6.123   4.671  0.0748  0.0247  0.3937
 1466TIP3    H125813   2.983   6.168   4.648  0.4925 -0.5430  0.7415
 1466TIP3    H225814   2.892   6.139   4.765  1.6707 -2.8755  1.1019
 1467TIP3   OH225815   4.359   1.424   3.918 -0.1656 -0.1801  0.3582
 1467TIP3    H125816   4.432   1.364   3.932 -1.8479 -2.4183 -0.3066
 1467TIP3    H225817   4.283   1.368   3.907 -1.7969  2.0800 -0.2350
 1468TIP3   OH225818   2.599   4.151   1.469 -0.1903 -0.0976  0.3567
 1468TIP3    H125819   2.681   4.143   1.420 -0.3296  1.5450 -0.2022
 1468TIP3    H225820   2.623   4.200   1.548 -0.5520  0.0467  0.3776
 1469TIP3   OH225821   2.103   6.615  16.040 -0.2123  0.2199 -0.0334
 1469TIP3    H125822   2.043   6.548  16.074 -0.3655 -0.0498 -0.8200
 1469TIP3    H225823   2.047   6.672  15.988  0.3494 -0.4851 -1.4219
 1470TIP3   OH225824   3.057   1.308   4.916  0.0730 -0.1556  0.4416
 1470TIP3    H125825   3.085   1.236   4.972  0.1319  0.9319  1.8398
 1470TIP3    H225826   3.052   1.270   4.829  2.3274 -1.3033  0.7701
 1471TIP3   OH225827   0.880   5.023   1.912 -0.2918 -0.0826  0.4088
 1471TIP3    H125828   0.837   5.105   1.890 -2.2443 -1.7152 -2.1775
 1471TIP3    H225829   0.836   4.957   1.858  0.7810 -2.9452  2.8483
 1472TIP3   OH225830   1.162   0.215  13.732  0.1514  0.3336  0.6833
 1472TIP3    H125831   1.118   0.131  13.738  0.1106  0.4459  2.2016
 1472TIP3    H225832   1.254   0.193  13.717 -0.1452  0.0701 -0.8229
 1473TIP3   OH225833   3.375   4.793  10.813 -0.6359  0.2970  0.8078
 1473TIP3    H125834   3.398   4.871  10.762  0.0725 -0.5081 -0.1270
 1473TIP3    H225835   3.315   4.744  10.756 -0.5727 -0.1514  1.1284
 1474TIP3   OH225836   5.495   2.990  11.926  0.2547  0.6473 -0.3340
 1474TIP3    H125837   5.507   3.080  11.893  2.2801  0.2649 -0.7508
 1474TIP3    H225838   5.463   2.941  11.850  2.9764  0.2019 -1.2585
 1475TIP3   OH225839   6.152   1.352   5.493 -0.2651  0.0211 -0.2954
 1475TIP3    H125840   6.197   1.424   5.537 -1.5032 -0.2098  1.4269
 1475TIP3    H225841   6.222   1.295   5.462  0.7089  1.8110 -1.4399
 1476TIP3   OH225842   4.960   4.595   6.231  0.0289  0.0057  0.0061
 1476TIP3    H125843   4.917   4.661   6.286  0.7706 -0.7208  1.4876
 1476TIP3    H225844   4.903   4.519   6.236  1.3458 -0.9155  1.8679
 1477TIP3   OH225845   0.348   1.252   6.599  0.5598 -0.3216 -0.0818
 1477TIP3    H125846   0.369   1.161   6.616 -1.0758 -0.5204  1.0300
 1477TIP3    H225847   0.354   1.294   6.685  0.8737  0.5190 -0.5084
 1478TIP3   OH225848   6.412   5.155   4.426 -0.9557 -0.6320 -0.1700
 1478TIP3    H125849   6.322   5.185   4.430 -0.9349 -0.4052 -1.1364
 1478TIP3    H225850   6.455   5.196   4.501 -1.6864 -0.8684  0.3845
 1479TIP3   OH225851   2.344   1.694  14.088  0.3851 -0.5517 -0.4492
 1479TIP3    H125852   2.356   1.762  14.022 -1.6348  0.4939  0.2422
 1479TIP3    H225853   2.275   1.638  14.052 -1.3566  0.5273  1.1424
 1480TIP3   OH225854   2.538   0.580  11.514  0.5700  0.0157  0.1681
 1480TIP3    H125855   2.596   0.509  11.543  1.2377  0.0834 -0.9723
 1480TIP3    H225856   2.453   0.558  11.552  0.6914 -1.5880 -0.4280
 1481TIP3   OH225857   3.153   5.753   1.840 -0.2241 -0.4941  0.4764
 1481TIP3    H125858   3.170   5.846   1.832 -0.9046 -0.3934  0.1478
 1481TIP3    H225859   3.122   5.726   1.753 -0.3289 -0.9574  0.6539
 1482TIP3   OH225860   2.934   6.000  13.564  0.5417 -0.3455  0.7976
 1482TIP3    H125861   2.982   6.017  13.483  0.3805  3.1659  1.3451
 1482TIP3    H225862   2.998   5.961  13.623  1.2973 -0.6498 -0.2165
 1483TIP3   OH225863   6.690   5.729   2.503  0.1139 -0.2518 -0.0969
 1483TIP3    H125864   6.671   5.785   2.578 -1.4730  1.6530 -1.8613
 1483TIP3    H225865   6.623   5.660   2.506  0.3865 -0.4919  0.5266
 1484TIP3   OH225866   1.707   1.229   5.405  0.5930 -0.4450  0.4212
 1484TIP3    H125867   1.773   1.260   5.344 -0.1854  1.4839  0.5271
 1484TIP3    H225868   1.706   1.134   5.393  1.5768 -0.2485 -1.4156
 1485TIP3   OH225869   1.861   5.909   3.102  0.0846  0.4022 -0.3148
 1485TIP3    H125870   1.791   5.875   3.046 -0.1502  1.8729 -0.9236
 1485TIP3    H225871   1.941   5.885   3.056  0.1336 -3.1266  1.3968
 1486TIP3   OH225872   4.579   3.213   5.764  0.0055  0.2820 -0.0585
 1486TIP3    H125873   4.484   3.216   5.764 -0.0374  0.2865 -2.7537
 1486TIP3    H225874   4.605   3.283   5.704  1.6423 -0.7148 -0.5522
 1487TIP3   OH225875   0.125   0.763   2.994  0.4792 -0.1754 -0.2971
 1487TIP3    H125876   0.031   0.746   3.004  0.1427  1.7569 -0.0688
 1487TIP3    H225877   0.139   0.765   2.899  0.0425  0.7990 -0.3447
 1488TIP3   OH225878   4.469   0.839  15.602 -0.3269 -0.1279 -0.3602
 1488TIP3    H125879   4.447   0.828  15.695 -0.6885  0.6218 -0.3537
 1488TIP3    H225880   4.561   0.812  15.597  0.2311  1.5142  0.5675
 1489TIP3   OH225881   2.307   5.190  13.095 -0.1433 -0.4560  0.0394
 1489TIP3    H125882   2.334   5.280  13.078  0.0992 -0.5518 -0.0993
 1489TIP3    H225883   2.359   5.163  13.171 -1.1781 -0.0496  0.9032
 1490TIP3   OH225884   1.626   0.369   2.094  0.0157 -0.4792  0.7156
 1490TIP3    H125885   1.547   0.327   2.059 -0.4526  0.9371  0.0070
 1490TIP3    H225886   1.673   0.299   2.138 -0.6753 -1.7605 -0.5376
 1491TIP3   OH225887   4.414   2.016  16.098  0.1487 -0.6919  0.5710
 1491TIP3    H125888   4.387   1.940  16.150 -0.6043  0.9345  2.6692
 1491TIP3    H225889   4.331   2.058  16.072  0.5178  1.0376  2.0135
 1492TIP3   OH225890   6.314   1.967  10.590  0.5357 -0.3244  0.5437
 1492TIP3    H125891   6.351   2.022  10.521 -0.2531 -0.1256  0.2845
 1492TIP3    H225892   6.352   1.881  10.574 -1.0087 -0.6981 -1.1971
 1493TIP3   OH225893   2.598   2.113   1.146 -0.8279  0.2902 -0.2038
 1493TIP3    H125894   2.623   2.178   1.213 -0.8557 -0.7465  0.8324
 1493TIP3    H225895   2.628   2.151   1.064 -1.4973  1.9570  0.3069
 1494TIP3   OH225896   5.892   4.848   6.114 -0.1532  0.2537 -0.4540
 1494TIP3    H125897   5.907   4.935   6.076  0.6051  0.7414  0.9195
 1494TIP3    H225898   5.822   4.861   6.177 -0.1911 -0.1762 -0.4095
 1495TIP3   OH225899   6.517   5.653  15.737  0.0679 -0.1002  0.3435
 1495TIP3    H125900   6.599   5.641  15.786 -1.1329  0.4511  2.5416
 1495TIP3    H225901   6.456   5.689  15.801 -1.6842  0.2504 -1.4825
 1496TIP3   OH225902   0.320   6.399   5.849 -0.3266  0.1024  0.5470
 1496TIP3    H125903   0.342   6.326   5.906 -1.0419 -1.5938 -1.3073
 1496TIP3    H225904   0.395   6.407   5.789 -0.5650  0.4096  0.2841
 1497TIP3   OH225905   6.686   0.593   3.411  0.0955 -0.4274  0.1873
 1497TIP3    H125906   6.679   0.631   3.499 -0.6669  1.4641 -0.6787
 1497TIP3    H225907   6.780   0.583   3.397  0.2108 -1.0936  1.3622
 1498TIP3   OH225908   4.448   3.162  15.526 -0.4866 -0.1548  0.2203
 1498TIP3    H125909   4.353   3.151  15.528 -0.5477  0.2686 -0.1409
 1498TIP3    H225910   4.461   3.244  15.478  0.0671 -0.3114  0.1040
 1499TIP3   OH225911   1.823   0.335   0.975  0.3473 -0.4063  0.8048
 1499TIP3    H125912   1.878   0.413   0.982  0.0363 -0.0066 -0.9019
 1499TIP3    H225913   1.885   0.262   0.970  0.6504 -0.2298  1.9239
 1500TIP3   OH225914   0.555   0.671  10.723 -0.1848  0.3074  0.2631
 1500TIP3    H125915   0.462   0.686  10.706  0.2253  1.7844 -0.8532
 1500TIP3    H225916   0.560   0.580  10.750 -1.5857 -0.6948 -2.6136
 1501TIP3   OH225917   3.471   5.816   2.750 -0.2789 -0.0944 -0.3057
 1501TIP3    H125918   3.566   5.805   2.745 -0.2255  0.0420  0.3490
 1501TIP3    H225919   3.459   5.895   2.804 -0.7348  0.6049 -1.4213
 1502TIP3   OH225920   1.840   2.441   6.213 -0.1260  0.1659 -0.3975
 1502TIP3    H125921   1.806   2.524   6.181  1.2350  0.5064 -0.9908
 1502TIP3    H225922   1.933   2.442   6.190  0.4982 -0.3734  1.9704
 1503TIP3   OH225923   6.746   2.223   5.858  0.6495 -0.5387  0.2021
 1503TIP3    H125924   6.815   2.254   5.916  1.3684 -0.1286 -0.8582
 1503TIP3    H225925   6.668   2.220   5.913  0.6428  2.7918  0.4726
 1504TIP3   OH225926   2.722   2.916   2.781  0.2003  0.9839 -0.5331
 1504TIP3    H125927   2.808   2.887   2.752  0.8855 -0.3903  2.6291
 1504TIP3    H225928   2.660   2.874   2.721  1.6540  0.9451 -2.0299
 1505TIP3   OH225929   3.919   2.865  12.245  0.1465  0.5803 -0.4026
 1505TIP3    H125930   4.006   2.825  12.245 -0.1538 -0.1109  0.6363
 1505TIP3    H225931   3.926   2.939  12.185  1.2726  0.1523 -0.8098
 1506TIP3   OH225932   3.624   6.138  15.508  0.4737 -0.2550  0.2654
 1506TIP3    H125933   3.665   6.197  15.571 -2.0028  0.9965  0.7992
 1506TIP3    H225934   3.561   6.088  15.560 -0.6029 -0.2013 -0.9468
 1507TIP3   OH225935   0.576   6.468  13.770  0.4955 -0.4014 -0.7786
 1507TIP3    H125936   0.630   6.540  13.737  0.7382  0.3695  1.2837
 1507TIP3    H225937   0.487   6.490  13.743  0.4341  1.1476  0.6020
 1508TIP3   OH225938   5.828   0.689   2.960  0.1073 -0.7600  0.4657
 1508TIP3    H125939   5.749   0.726   3.000  0.6235 -0.4695  1.2144
 1508TIP3    H225940   5.876   0.650   3.033  0.7410 -0.7917  0.0347
 1509TIP3   OH225941   5.493   1.074  13.295  0.3753  0.5074  0.1044
 1509TIP3    H125942   5.446   1.156  13.310  0.9131  0.7978  0.2538
 1509TIP3    H225943   5.546   1.091  13.217 -0.1314  0.0206 -0.3495
 1510TIP3   OH225944   3.006   0.838   5.411  0.0713 -0.5246 -0.9092
 1510TIP3    H125945   3.093   0.799   5.400  0.1899 -0.4888 -0.1054
 1510TIP3    H225946   2.967   0.789   5.483  0.1909  0.7764  0.0476
 1511TIP3   OH225947   4.041   3.353   1.090 -0.1023 -0.3484  0.4668
 1511TIP3    H125948   4.122   3.301   1.085 -0.1869 -0.5470  1.1828
 1511TIP3    H225949   4.072   3.443   1.104  0.0384 -0.2069 -0.6355
 1512TIP3   OH225950   1.945   0.501   0.066 -0.2601 -0.4598 -0.5359
 1512TIP3    H125951   1.958   0.423   0.012 -0.0923  0.4754 -1.8804
 1512TIP3    H225952   1.942   0.573   0.003  1.8989  0.8898  0.8464
 1513TIP3   OH225953   2.807   4.412  16.217  0.1451  0.1134  0.3881
 1513TIP3    H125954   2.862   4.343  16.181  1.6899  1.0729  0.8210
 1513TIP3    H225955   2.770   4.456  16.140  0.2034 -0.3682  0.0842
 1514TIP3   OH225956   4.135   0.887   2.075  0.1793  0.0168  0.0854
 1514TIP3    H125957   4.111   0.906   2.166 -0.5136  2.4733 -0.5860
 1514TIP3    H225958   4.135   0.972   2.032  1.6320 -0.9900 -1.9676
 1515TIP3   OH225959   2.442   4.692  14.984 -0.1872  0.2553 -0.6858
 1515TIP3    H125960   2.468   4.785  14.987 -1.0396  0.5356 -1.6689
 1515TIP3    H225961   2.351   4.692  15.012 -0.7214 -0.0650 -2.3511
 1516TIP3   OH225962   0.959   6.761  14.719 -0.0351  0.3863 -0.1219
 1516TIP3    H125963   0.912   6.682  14.748  0.0679  1.1197  2.1301
 1516TIP3    H225964   1.046   6.729  14.695 -0.2357 -0.2950  0.0391
 1517TIP3   OH225965   0.725   4.363  16.227 -0.5970 -0.4789 -0.3086
 1517TIP3    H125966   0.665   4.311  16.279 -0.6232 -1.4103 -1.2407
 1517TIP3    H225967   0.669   4.418  16.172 -0.5940 -1.1057 -0.9383
 1518TIP3   OH225968   2.126   6.310  12.128  0.3007 -0.1189 -0.3313
 1518TIP3    H125969   2.171   6.229  12.102  0.6065  0.7338 -2.5943
 1518TIP3    H225970   2.174   6.341  12.204  1.1727 -1.2337 -0.4121
 1519TIP3   OH225971   2.701   0.431   6.178 -0.1799  0.1225 -0.1020
 1519TIP3    H125972   2.645   0.505   6.155 -0.1405 -0.0482 -0.7498
 1519TIP3    H225973   2.651   0.382   6.244  0.5280  1.6760  1.6270
 1520TIP3   OH225974   1.327   6.358  16.450  0.3638 -0.2960  0.1165
 1520TIP3    H125975   1.343   6.287  16.388  1.9336  1.1023 -1.1339
 1520TIP3    H225976   1.361   6.325  16.533 -0.4416 -1.6437 -0.0813
 1521TIP3   OH225977   0.867   2.146  12.983  0.2248 -0.3602  1.0012
 1521TIP3    H125978   0.942   2.091  12.958 -0.1035 -0.3172 -0.0753
 1521TIP3    H225979   0.790   2.098  12.952 -0.0150  1.1090 -0.6900
 1522TIP3   OH225980   3.054   3.199   4.758  1.0130  0.2840 -0.2920
 1522TIP3    H125981   3.028   3.117   4.801 -1.0391  0.2229 -1.5604
 1522TIP3    H225982   3.143   3.216   4.790  1.1311 -1.9604  0.6896
 1523TIP3   OH225983   5.012   2.066   4.100  0.0042 -0.1804 -0.4339
 1523TIP3    H125984   5.053   2.104   4.022 -1.1040  2.0784  0.0181
 1523TIP3    H225985   4.926   2.108   4.104 -0.9790 -2.2526  0.5427
 1524TIP3   OH225986   4.073   4.986  16.308  0.3358  0.1912 -0.8900
 1524TIP3    H125987   4.116   5.067  16.333 -1.2702  1.1253 -1.0662
 1524TIP3    H225988   3.993   4.983  16.360  0.1169 -1.0181 -1.2597
 1525TIP3   OH225989   6.744   6.534   0.114 -0.9108  0.1030 -0.3266
 1525TIP3    H125990   6.729   6.460   0.055 -0.9930  1.0448 -1.4819
 1525TIP3    H225991   6.669   6.531   0.175 -1.3514 -0.2698 -0.8801
 1526TIP3   OH225992   1.746   0.089   1.756  0.1232  0.3807  0.2340
 1526TIP3    H125993   1.831   0.099   1.713 -0.2670  1.3002 -0.3562
 1526TIP3    H225994   1.716   0.179   1.771  0.1200  0.0753  2.2113
 1527TIP3   OH225995   0.831   4.427  11.173 -0.0257  0.6578  0.3522
 1527TIP3    H125996   0.782   4.462  11.247 -0.1456  0.0073  0.5863
 1527TIP3    H225997   0.773   4.361  11.134  0.1841  0.7328 -0.0923
 1528TIP3   OH225998   1.604   0.815   6.399  0.5154 -0.2499 -0.0374
 1528TIP3    H125999   1.657   0.810   6.479  0.5689 -1.9604 -0.1622
 1528TIP3    H226000   1.552   0.894   6.411  1.0030 -0.1164  1.4012
 1529TIP3   OH226001   2.574   5.903   1.121  0.1055 -0.0192 -0.3998
 1529TIP3    H126002   2.502   5.959   1.094  1.3667  2.6239  1.4336
 1529TIP3    H226003   2.630   5.897   1.044 -0.5348  0.4441 -0.9063
 1530TIP3   OH226004   4.672   4.912  14.961  0.1066  0.9801  0.1146
 1530TIP3    H126005   4.767   4.901  14.959  0.1565  1.3318  0.4903
 1530TIP3    H226006   4.642   4.850  15.027  0.2351  1.9916  1.1306
 1531TIP3   OH226007   5.332   6.224  14.329  0.6362  0.6044  0.1375
 1531TIP3    H126008   5.420   6.249  14.359  0.3513  1.1494  0.5477
 1531TIP3    H226009   5.314   6.285  14.257  1.0342 -0.2355 -0.6752
 1532TIP3   OH226010   1.775   3.864   0.291 -0.3488 -0.0122  0.2423
 1532TIP3    H126011   1.763   3.916   0.212  0.1177  1.1919  0.9582
 1532TIP3    H226012   1.691   3.871   0.337  0.3138  1.6231  1.2274
 1533TIP3   OH226013   2.236   5.542  14.192 -0.3934 -0.7716  0.6112
 1533TIP3    H126014   2.238   5.578  14.103 -0.0617  2.2130  1.7548
 1533TIP3    H226015   2.174   5.598  14.239  1.2820 -0.7127  2.8564
 1534TIP3   OH226016   6.195   6.686  16.332 -0.1913  0.2469  0.1046
 1534TIP3    H126017   6.221   6.778  16.326  0.4133 -0.0030 -1.3772
 1534TIP3    H226018   6.130   6.675  16.263  0.6726 -0.7370 -0.5597
 1535TIP3   OH226019   1.636   2.678   0.185  0.4792 -0.4670  0.0307
 1535TIP3    H126020   1.583   2.675   0.265  0.7746  0.6425  0.2739
 1535TIP3    H226021   1.679   2.764   0.188  1.2003 -0.7905 -0.8641
 1536TIP3   OH226022   1.594   1.549   3.370  0.9147  0.0183 -0.0987
 1536TIP3    H126023   1.585   1.454   3.372 -2.4383  0.2391 -1.5158
 1536TIP3    H226024   1.513   1.582   3.409  1.2462  2.2704 -1.2257
 1537TIP3   OH226025   1.954   6.046  12.054  0.2219 -0.1835  0.1608
 1537TIP3    H126026   1.906   6.065  12.135 -1.3844  0.0580 -0.8207
 1537TIP3    H226027   2.030   6.104  12.056 -3.1351  4.5213 -1.4995
 1538TIP3   OH226028   0.044   0.906   1.450 -0.0485  0.1285  0.2375
 1538TIP3    H126029   0.109   0.845   1.484 -0.1286 -0.9345 -1.4681
 1538TIP3    H226030   0.094   0.966   1.395 -0.4660 -0.7227 -1.1201
 1539TIP3   OH226031   5.769   3.002  14.454  0.4807  0.6544 -0.4416
 1539TIP3    H126032   5.830   2.990  14.527  0.5847 -0.3705 -0.6869
 1539TIP3    H226033   5.711   2.926  14.459  1.1504  0.0186 -2.0565
 1540TIP3   OH226034   0.332   1.321   3.759  0.7256 -0.1061 -0.1498
 1540TIP3    H126035   0.369   1.330   3.846  0.0444 -1.6452  0.3022
 1540TIP3    H226036   0.258   1.261   3.769  0.9778 -0.7448 -1.8771
 1541TIP3   OH226037   1.420   1.732   5.612 -0.5372  0.4320  0.2996
 1541TIP3    H126038   1.326   1.714   5.617 -0.5346 -0.4743 -2.1349
 1541TIP3    H226039   1.426   1.815   5.564 -0.1009  0.7396  0.8772
 1542TIP3   OH226040   6.782   6.149  11.718 -0.1298 -0.2095 -0.2373
 1542TIP3    H126041   6.787   6.072  11.774 -0.9417  0.0114  0.1530
 1542TIP3    H226042   6.751   6.219  11.776  0.0673  0.2794 -0.7133
 1543TIP3   OH226043   5.434   6.274   0.401  0.0524  0.2621 -0.0866
 1543TIP3    H126044   5.406   6.331   0.473  0.7473  1.1315 -0.4902
 1543TIP3    H226045   5.355   6.228   0.374 -0.2396  0.0062  1.1652
 1544TIP3   OH226046   0.976   1.756   2.514  0.9247 -0.2712 -0.2411
 1544TIP3    H126047   1.061   1.797   2.500  0.6333 -0.0740 -1.4458
 1544TIP3    H226048   0.973   1.683   2.453  0.0931 -0.0696 -0.4559
 1545TIP3   OH226049   2.140   4.154  13.266  0.3435 -0.6345  0.4298
 1545TIP3    H126050   2.166   4.169  13.175  1.5920  0.7602  1.0099
 1545TIP3    H226051   2.106   4.064  13.266 -1.2603 -0.0834 -1.7517
 1546TIP3   OH226052   0.239   1.103  13.187  0.2967 -0.0088  0.2308
 1546TIP3    H126053   0.165   1.048  13.212  0.3077 -0.6262 -1.0717
 1546TIP3    H226054   0.234   1.179  13.245 -0.1950 -0.9942  1.4982
 1547TIP3   OH226055   3.105   2.225  13.129  0.4103 -0.2081  0.6277
 1547TIP3    H126056   3.074   2.309  13.163 -0.1241  0.2209 -0.8973
 1547TIP3    H226057   3.121   2.240  13.036  3.7004 -0.8687  1.0149
 1548TIP3   OH226058   6.630   5.899   4.496 -0.4585 -0.0997  0.3056
 1548TIP3    H126059   6.584   5.896   4.413 -0.3509  1.4594  0.1666
 1548TIP3    H226060   6.638   5.993   4.515  1.6951 -0.3693  0.8393
 1549TIP3   OH226061   0.151   0.779  17.217 -0.3317 -0.0257 -0.5850
 1549TIP3    H126062   0.234   0.827  17.215 -1.3601  1.7872 -1.5316
 1549TIP3    H226063   0.135   0.753  17.126 -1.8971  1.6582 -0.8330
 1550TIP3   OH226064   2.288   1.945   2.335  0.0149 -0.7546  0.3183
 1550TIP3    H126065   2.286   1.942   2.430  0.1454 -0.3380  0.3351
 1550TIP3    H226066   2.279   1.854   2.307 -0.3731 -0.8421  0.7237
 1551TIP3   OH226067   1.276   2.176   6.324  0.1025  0.7227 -0.4328
 1551TIP3    H126068   1.281   2.092   6.278  1.1341  0.5652 -0.0429
 1551TIP3    H226069   1.183   2.198   6.323 -0.2486 -0.7239 -0.0041
 1552TIP3   OH226070   2.043   2.668   0.628 -0.0059  0.1150  0.1792
 1552TIP3    H126071   2.063   2.673   0.535 -0.9075  1.2457  0.0302
 1552TIP3    H226072   2.112   2.613   0.665  1.4548  1.2384 -0.8377
 1553TIP3   OH226073   2.548   0.292   2.937 -0.1595 -0.0409 -0.6208
 1553TIP3    H126074   2.473   0.252   2.893  0.7263 -0.2055 -1.9844
 1553TIP3    H226075   2.624   0.257   2.892  0.7077  1.2494 -0.1894
 1554TIP3   OH226076   5.667   3.271  10.950  0.3567  0.4652 -0.6586
 1554TIP3    H126077   5.579   3.248  10.979  0.2997  0.8688 -0.5076
 1554TIP3    H226078   5.679   3.222  10.869  0.9438 -1.5722  0.5974
 1555TIP3   OH226079   3.508   5.677  14.160  0.1006  0.0870  0.1051
 1555TIP3    H126080   3.603   5.664  14.161 -0.1513 -1.8920  1.4256
 1555TIP3    H226081   3.475   5.610  14.100 -0.5203  0.3301  0.1696
 1556TIP3   OH226082   5.517   0.587   0.524  0.3252 -0.1067  0.1361
 1556TIP3    H126083   5.601   0.543   0.534  1.2929  1.4071 -1.0355
 1556TIP3    H226084   5.454   0.516   0.510  1.6448 -1.1898 -0.4549
 1557TIP3   OH226085   5.973   0.430   3.836  0.2375 -0.2936 -0.2159
 1557TIP3    H126086   5.985   0.370   3.762  0.2554 -1.0752  0.4135
 1557TIP3    H226087   6.061   0.460   3.857  0.4068 -1.2011  0.4112
 1558TIP3   OH226088   6.161   6.206   2.486  0.6980  0.2861 -0.2799
 1558TIP3    H126089   6.239   6.180   2.438  0.5187 -1.0583  0.1426
 1558TIP3    H226090   6.114   6.263   2.426  1.1466 -0.2894 -1.1934
 1559TIP3   OH226091   4.915   3.145   0.444 -0.3507 -0.4014  0.6784
 1559TIP3    H126092   4.899   3.058   0.480  2.6504 -0.5597  1.7554
 1559TIP3    H226093   4.864   3.147   0.363 -1.8850 -2.4834  1.5463
 1560TIP3   OH226094   0.590   4.137   5.651  0.1816 -0.9813  0.4749
 1560TIP3    H126095   0.562   4.082   5.724  0.1379 -0.9331  0.4939
 1560TIP3    H226096   0.572   4.227   5.681 -0.4911 -0.9991  0.1161
 1561TIP3   OH226097   1.704   1.391  13.622 -0.1039  0.4852 -0.1262
 1561TIP3    H126098   1.692   1.298  13.642 -0.2909  0.7322  0.9655
 1561TIP3    H226099   1.725   1.431  13.707 -1.9597  1.7563 -0.2283
 1562TIP3   OH226100   4.703   3.849  15.968  0.0854 -0.7495 -0.3253
 1562TIP3    H126101   4.648   3.806  15.902 -0.6499 -0.3756  0.0411
 1562TIP3    H226102   4.641   3.878  16.035  0.5328  1.1308 -0.6900
 1563TIP3   OH226103   6.515   2.594   0.217 -0.0539  0.3929  0.5691
 1563TIP3    H126104   6.467   2.559   0.292 -1.5650  1.7829  0.2714
 1563TIP3    H226105   6.598   2.625   0.255 -0.2223 -0.1711  1.4236
 1564TIP3   OH226106   4.684   6.274  12.545 -0.1330 -0.1332  0.3255
 1564TIP3    H126107   4.696   6.181  12.567  0.3040 -0.5651 -1.6355
 1564TIP3    H226108   4.635   6.272  12.462  1.3057  1.3398 -0.5902
 1565TIP3   OH226109   6.220   1.194  16.669  0.7580 -0.9796 -0.0901
 1565TIP3    H126110   6.225   1.269  16.611 -0.5595 -1.7360 -1.1947
 1565TIP3    H226111   6.305   1.151  16.660  2.0116  1.0397  1.5208
 1566TIP3   OH226112   4.569   3.420   3.185 -0.7528 -0.0781  0.8278
 1566TIP3    H126113   4.607   3.466   3.110 -1.7624 -1.2936 -0.4563
 1566TIP3    H226114   4.578   3.327   3.163  0.9707 -0.5249  3.2464
 1567TIP3   OH226115   5.135   3.454  14.640  0.2791 -0.5951 -0.0132
 1567TIP3    H126116   5.147   3.522  14.573  0.0470 -0.5682 -0.0303
 1567TIP3    H226117   5.046   3.468  14.671  0.4348 -0.5280  0.3979
 1568TIP3   OH226118   1.214   0.443  11.884  0.4173 -0.4824 -0.3150
 1568TIP3    H126119   1.301   0.470  11.856  0.0941  3.3032  1.9863
 1568TIP3    H226120   1.224   0.420  11.976 -0.9560 -0.2502 -0.0938
 1569TIP3   OH226121   0.232   4.120  13.178  0.0592 -0.2567  0.1461
 1569TIP3    H126122   0.309   4.069  13.153  1.1054  1.2246  0.2543
 1569TIP3    H226123   0.243   4.203  13.131 -1.9399 -0.3552 -0.5493
 1570TIP3   OH226124   6.244   3.264   3.472 -0.0530 -0.1565 -0.0401
 1570TIP3    H126125   6.180   3.307   3.528  1.7451 -0.4320  2.2604
 1570TIP3    H226126   6.193   3.198   3.424 -1.3594 -0.8893  2.3013
 1571TIP3   OH226127   1.632   2.375   2.355 -0.4555 -0.1247 -0.4384
 1571TIP3    H126128   1.699   2.437   2.385  1.9386 -3.1543  0.7982
 1571TIP3    H226129   1.552   2.404   2.399  0.5126  2.2724 -0.1512
 1572TIP3   OH226130   1.329   4.401   4.872  0.1700  0.4451  0.4919
 1572TIP3    H126131   1.396   4.340   4.903 -0.9199 -0.1788  1.6630
 1572TIP3    H226132   1.263   4.345   4.830 -0.0736  0.9713  0.1664
 1573TIP3   OH226133   4.915   1.093  15.297  0.2758 -0.4270  0.3403
 1573TIP3    H126134   4.880   1.066  15.212  0.2264 -0.4175  0.3574
 1573TIP3    H226135   4.948   1.012  15.336 -1.3942 -0.7689  1.1016
 1574TIP3   OH226136   4.131   3.116  16.825 -0.1052  0.0330 -0.0440
 1574TIP3    H126137   4.110   3.189  16.883 -0.9282  0.2560 -0.6119
 1574TIP3    H226138   4.138   3.155  16.738 -0.3977 -0.5427 -0.3299
 1575TIP3   OH226139   5.887   2.708  14.306 -0.3394  0.1871  0.1873
 1575TIP3    H126140   5.793   2.706  14.285 -0.3859 -3.0011  0.4242
 1575TIP3    H226141   5.890   2.721  14.400 -0.5326  0.9653  0.0850
 1576TIP3   OH226142   4.181   1.540  16.010  0.3914 -0.3201  0.3290
 1576TIP3    H126143   4.109   1.566  15.952 -0.9088 -1.4067  1.4093
 1576TIP3    H226144   4.175   1.444  16.014  2.6135 -0.5115 -0.4545
 1577TIP3   OH226145   6.606   1.972   1.411 -0.4769 -0.1376  0.3586
 1577TIP3    H126146   6.532   1.965   1.352 -0.9310  0.8624  0.7998
 1577TIP3    H226147   6.642   1.884   1.415 -2.3194 -0.8860  1.0186
 1578TIP3   OH226148   2.696   6.366  13.486  0.7862  0.1415 -0.0857
 1578TIP3    H126149   2.647   6.338  13.409  0.2646  1.6928 -0.3237
 1578TIP3    H226150   2.785   6.333  13.472  0.2414 -1.1962 -0.4552
 1579TIP3   OH226151   4.139   0.655  14.885 -0.7522  0.3546  0.3686
 1579TIP3    H126152   4.093   0.578  14.917 -1.2355  0.7183  0.5460
 1579TIP3    H226153   4.079   0.728  14.900  0.1190  0.9135  1.1664
 1580TIP3   OH226154   4.796   0.463  12.642  0.0023 -0.1366 -0.1832
 1580TIP3    H126155   4.737   0.450  12.716  0.2793 -1.5996 -0.2010
 1580TIP3    H226156   4.880   0.486  12.681  0.5182 -2.2965  0.0508
 1581TIP3   OH226157   5.298   5.133  12.776  0.0355  0.0417 -0.2315
 1581TIP3    H126158   5.297   5.190  12.853 -1.6713 -0.2223 -0.0369
 1581TIP3    H226159   5.356   5.177  12.714  0.2795  0.9853  0.6531
 1582TIP3   OH226160   4.866   2.090  16.929  0.6604 -0.1494  0.2505
 1582TIP3    H126161   4.818   2.023  16.881  0.3199 -1.4678  2.3898
 1582TIP3    H226162   4.926   2.042  16.986  1.9968  1.4102  0.2172
 1583TIP3   OH226163   3.028   5.172   0.110  0.0163 -0.0655  0.6989
 1583TIP3    H126164   3.069   5.253   0.080 -2.1750  0.9860  0.4139
 1583TIP3    H226165   3.065   5.157   0.197  1.4359  0.4996  0.2064
 1584TIP3   OH226166   6.067   6.202   4.991  0.1956 -0.1524 -0.0510
 1584TIP3    H126167   6.152   6.159   5.002  1.7664  2.8594 -0.1605
 1584TIP3    H226168   6.017   6.175   5.068  0.5620 -3.3541 -0.8242
 1585TIP3   OH226169   6.205   0.421  16.445  1.0229  0.0869 -0.1362
 1585TIP3    H126170   6.217   0.471  16.365  0.3338  1.0342  0.3303
 1585TIP3    H226171   6.196   0.330  16.417 -2.0700  0.7136 -1.4125
 1586TIP3   OH226172   4.461   0.438  16.165 -0.0205 -0.2145  0.0307
 1586TIP3    H126173   4.521   0.372  16.198 -1.0360 -0.1844  2.0151
 1586TIP3    H226174   4.428   0.401  16.082  0.8049 -1.3612  0.2037
 1587TIP3   OH226175   2.445   0.677  12.717 -0.6974  0.0552 -0.0530
 1587TIP3    H126176   2.492   0.748  12.761 -1.4351  1.0898 -0.9076
 1587TIP3    H226177   2.381   0.647  12.781 -0.2007 -0.0318  0.4088
 1588TIP3   OH226178   5.713   1.431  11.506  0.3491  0.6080 -0.0403
 1588TIP3    H126179   5.717   1.507  11.565  0.4670  0.3010  0.3444
 1588TIP3    H226180   5.804   1.412  11.485  0.2640  1.2938 -1.0613
 1589TIP3   OH226181   5.502   5.793  12.158  0.6270 -0.7058  0.4750
 1589TIP3    H126182   5.478   5.721  12.216 -1.0316  0.2838  1.0469
 1589TIP3    H226183   5.420   5.822  12.119  1.6671 -1.0939 -2.1049
 1590TIP3   OH226184   0.549   4.223   2.360  0.3711 -0.3897  0.5535
 1590TIP3    H126185   0.573   4.134   2.335 -2.4745 -0.9495 -0.3903
 1590TIP3    H226186   0.617   4.278   2.321  1.3261 -2.0389 -0.1589
 1591TIP3   OH226187   0.774   6.479  14.705  0.1562  0.0277  0.3867
 1591TIP3    H126188   0.702   6.484  14.767  0.5014  0.3327  0.7670
 1591TIP3    H226189   0.752   6.406  14.647  1.3794 -2.3955  2.8562
 1592TIP3   OH226190   3.796   1.053  12.690 -0.3740  0.2578 -0.3344
 1592TIP3    H126191   3.713   1.014  12.715  0.6171 -0.8295  1.3587
 1592TIP3    H226192   3.838   0.987  12.635 -0.8349  1.0199 -1.6279
 1593TIP3   OH226193   5.846   4.947  10.527  0.0206  0.1690  0.4111
 1593TIP3    H126194   5.887   4.911  10.605  2.5720  1.3126 -0.3638
 1593TIP3    H226195   5.888   5.032  10.515 -0.9347  0.3588 -1.7381
 1594TIP3   OH226196   3.202   3.862   2.942 -0.3296 -0.2019 -0.3837
 1594TIP3    H126197   3.175   3.876   2.851  1.2288 -1.4131 -1.0417
 1594TIP3    H226198   3.266   3.931   2.959  0.0890 -0.5606 -0.5088
 1595TIP3   OH226199   3.851   6.639  12.164  0.8423  0.1614 -0.2475
 1595TIP3    H126200   3.811   6.703  12.224 -2.0077 -2.1665  0.4333
 1595TIP3    H226201   3.870   6.563  12.220  1.5337 -0.6760 -1.6080
 1596TIP3   OH226202   0.583   4.464  16.718  0.6171 -0.4790 -0.2282
 1596TIP3    H126203   0.568   4.553  16.687  0.8407 -1.0557 -2.0714
 1596TIP3    H226204   0.496   4.434  16.745  0.3626 -0.0477 -0.5527
 1597TIP3   OH226205   6.235   1.174  14.627  0.0103  0.2418  0.4168
 1597TIP3    H126206   6.300   1.104  14.625  2.2283  2.3288 -1.4680
 1597TIP3    H226207   6.151   1.127  14.634  1.5410 -2.5168  1.2119
 1598TIP3   OH226208   6.132   4.947  15.858 -0.4081 -0.0853  0.1972
 1598TIP3    H126209   6.085   4.864  15.859  1.1781 -1.0438  2.8033
 1598TIP3    H226210   6.223   4.923  15.840  0.0211  1.0899  0.7079
 1599TIP3   OH226211   6.442   2.591   4.587 -0.0121 -0.5284 -0.0844
 1599TIP3    H126212   6.455   2.615   4.678 -2.2814  2.1644 -0.4166
 1599TIP3    H226213   6.506   2.643   4.538 -1.2963  0.8686 -0.3206
 1600TIP3   OH226214   6.294   3.271   5.829  0.0964  0.1652  0.0276
 1600TIP3    H126215   6.363   3.227   5.780 -0.7167  0.0192 -0.9986
 1600TIP3    H226216   6.259   3.203   5.887  0.4740  0.1093  0.1902
 1601TIP3   OH226217   5.035   5.257  11.114  0.0086 -0.1236 -0.1522
 1601TIP3    H126218   5.087   5.329  11.148 -0.7218 -0.2707  1.3147
 1601TIP3    H226219   4.970   5.299  11.058  0.4291  0.2389 -0.3683
 1602TIP3   OH226220   3.854   6.235  15.209 -0.4334 -0.0074  0.5031
 1602TIP3    H126221   3.855   6.141  15.230  0.7458  0.5164  2.9306
 1602TIP3    H226222   3.941   6.266  15.233 -0.1934  1.3872 -1.9891
 1603TIP3   OH226223   3.314   5.788  10.764  0.3407  0.0942 -0.7162
 1603TIP3    H126224   3.348   5.858  10.818 -1.1569  1.3649 -1.3769
 1603TIP3    H226225   3.233   5.761  10.808  0.4684 -0.6310 -0.9184
 1604TIP3   OH226226   1.055   5.040  11.598  0.1228  0.7654  0.1053
 1604TIP3    H126227   1.093   5.127  11.586  0.5046  0.1760 -3.4928
 1604TIP3    H226228   0.964   5.056  11.622  0.6846  2.1435  1.3939
 1605TIP3   OH226229   5.095   1.253   4.582  0.2156  0.5070 -0.5152
 1605TIP3    H126230   5.118   1.221   4.670 -0.0068  0.0132 -0.6321
 1605TIP3    H226231   5.036   1.186   4.547  1.2696  0.0814 -1.5154
 1606TIP3   OH226232   3.707   3.312   4.360  0.3257 -0.0207  0.0781
 1606TIP3    H126233   3.615   3.336   4.350  0.7032  1.2113 -0.4981
 1606TIP3    H226234   3.708   3.217   4.359 -1.2760 -0.1173  2.9140
 1607TIP3   OH226235   0.233   3.639   6.073 -0.6009 -0.2683 -0.4937
 1607TIP3    H126236   0.248   3.602   5.986 -2.6849  2.2591 -1.9877
 1607TIP3    H226237   0.140   3.623   6.091 -1.4612  3.7349 -1.0032
 1608TIP3   OH226238   2.047   0.426  11.529 -0.5608  0.2396 -0.2919
 1608TIP3    H126239   2.072   0.351  11.476  0.8650  1.0078 -0.7328
 1608TIP3    H226240   1.971   0.396  11.579  0.5338 -1.7628  0.2182
 1609TIP3   OH226241   6.029   5.186   4.188  0.4326 -0.6317 -0.2479
 1609TIP3    H126242   5.951   5.189   4.131 -1.3322  1.1507  2.1530
 1609TIP3    H226243   6.023   5.102   4.232  0.0393 -0.6339 -0.3005
 1610TIP3   OH226244   2.456   5.106   3.439 -0.0075 -0.4962 -0.7084
 1610TIP3    H126245   2.511   5.048   3.385  1.4201  0.5860 -0.4511
 1610TIP3    H226246   2.428   5.050   3.512 -1.2773 -1.7347 -2.1123
 1611TIP3   OH226247   5.476   3.064   3.536 -1.0660 -0.2167  0.1190
 1611TIP3    H126248   5.493   3.062   3.630 -1.5573 -2.0266  0.1918
 1611TIP3    H226249   5.559   3.039   3.496 -0.9149  0.3499  0.0755
 1612TIP3   OH226250   6.113   2.464  13.665 -0.6178  0.8558 -0.3892
 1612TIP3    H126251   6.179   2.533  13.658  1.0153 -0.5153  1.2173
 1612TIP3    H226252   6.124   2.413  13.584  0.0206  0.8741 -0.3187
 1613TIP3   OH226253   0.214   5.122  15.659 -0.1993  0.2045 -1.0181
 1613TIP3    H126254   0.171   5.042  15.629  0.4496  0.1698 -1.8637
 1613TIP3    H226255   0.293   5.129  15.605  0.6858  0.4415  0.2769
 1614TIP3   OH226256   2.241   2.433  10.847  0.0332  0.5493  0.2315
 1614TIP3    H126257   2.175   2.481  10.898  0.4372  0.5901  0.7147
 1614TIP3    H226258   2.225   2.459  10.757 -0.3350  0.8968  0.3958
 1615TIP3   OH226259   0.928   5.381   6.589  0.5069 -0.6050 -0.4069
 1615TIP3    H126260   0.842   5.385   6.632  0.9337 -2.1185  0.6011
 1615TIP3    H226261   0.966   5.467   6.603  0.0410 -0.6285  1.0068
 1616TIP3   OH226262   0.365   3.536  11.039  0.3191  0.1115 -0.4226
 1616TIP3    H126263   0.309   3.597  11.088 -0.0419 -0.8741  0.4325
 1616TIP3    H226264   0.330   3.537  10.950  0.6358  1.5241 -0.5421
 1617TIP3   OH226265   0.375   6.132   5.605  0.3009 -0.0695 -0.2111
 1617TIP3    H126266   0.280   6.143   5.603  0.3518  0.3059 -0.7173
 1617TIP3    H226267   0.393   6.086   5.687 -0.3398 -0.3524 -0.2311
 1618TIP3   OH226268   1.176   0.607  13.826  0.1754 -0.1582  0.4204
 1618TIP3    H126269   1.089   0.568  13.822 -1.4056  3.3469 -1.8812
 1618TIP3    H226270   1.216   0.585  13.741  0.3819  0.7293  0.2801
 1619TIP3   OH226271   5.590   6.462  11.607  0.1680 -0.2543  0.5434
 1619TIP3    H126272   5.575   6.419  11.691 -0.6504 -0.4091  0.3151
 1619TIP3    H226273   5.512   6.515  11.593  0.5895  0.2815  0.1898
 1620TIP3   OH226274   6.099   2.063   3.089 -0.1410 -0.1817  0.3828
 1620TIP3    H126275   6.155   2.077   3.166  2.2397  0.9464 -1.4746
 1620TIP3    H226276   6.010   2.063   3.124  0.8751  0.4223  3.1262
 1621TIP3   OH226277   4.878   6.607   2.076  0.1609 -0.5393  0.6723
 1621TIP3    H126278   4.935   6.567   2.010  1.6948  1.1738  0.9078
 1621TIP3    H226279   4.898   6.701   2.071 -2.8770  0.1447  0.5695
 1622TIP3   OH226280   2.066   0.883   4.055  0.1762  0.5557 -0.1159
 1622TIP3    H126281   2.150   0.896   4.098  0.0216 -0.9601  0.6865
 1622TIP3    H226282   2.039   0.795   4.080 -0.6360  0.1936 -2.1023
 1623TIP3   OH226283   1.236   0.204   6.873  0.1293  0.0534  0.1155
 1623TIP3    H126284   1.320   0.248   6.885 -0.0120  0.4880 -0.4759
 1623TIP3    H226285   1.172   0.274   6.868 -0.2792 -0.2815  0.5974
 1624TIP3   OH226286   3.794   0.655  10.996 -0.2014  0.7083 -0.4923
 1624TIP3    H126287   3.878   0.642  10.952  0.4345  0.7763  0.6653
 1624TIP3    H226288   3.794   0.747  11.020 -0.5343  0.6687 -0.3407
 1625TIP3   OH226289   3.206   2.993   2.362  0.4802 -0.7938  0.3362
 1625TIP3    H126290   3.136   3.013   2.300  0.8713  1.3284  0.5573
 1625TIP3    H226291   3.286   3.017   2.316  0.7769  0.8400  1.6422
 1626TIP3   OH226292   2.092   1.842  16.626 -0.0943 -0.4925 -0.2515
 1626TIP3    H126293   2.019   1.870  16.683  1.5636  1.2666  1.0651
 1626TIP3    H226294   2.168   1.890  16.659  1.1158 -0.1047 -3.4186
 1627TIP3   OH226295   3.863   5.117   5.232 -0.0342  0.6140 -0.5940
 1627TIP3    H126296   3.915   5.055   5.182 -1.2622 -2.3366  1.6686
 1627TIP3    H226297   3.922   5.149   5.300 -0.7158 -1.8332  1.2330
 1628TIP3   OH226298   3.767   5.331  15.574  0.7887 -0.1799  0.2959
 1628TIP3    H126299   3.819   5.253  15.554  1.4774 -0.2232  2.1096
 1628TIP3    H226300   3.698   5.298  15.633  1.2272  0.6051  1.2629
 1629TIP3   OH226301   6.717   3.212   0.999  0.3790  0.9179  0.1465
 1629TIP3    H126302   6.764   3.293   1.018 -1.9879  2.5224 -0.5738
 1629TIP3    H226303   6.753   3.181   0.916 -0.7103  2.8502 -1.0788
 1630TIP3   OH226304   0.092   3.438  15.999 -0.1713 -0.0624 -0.7109
 1630TIP3    H126305   0.048   3.353  16.002 -1.3026  0.5335  0.0576
 1630TIP3    H226306   0.028   3.500  16.035  1.4213  0.7802  0.7499
 1631TIP3   OH226307   6.493   3.004  11.446 -0.2753 -0.4100 -0.0982
 1631TIP3    H126308   6.428   2.938  11.468  0.2326 -1.0562 -0.5182
 1631TIP3    H226309   6.518   2.985  11.356  2.3092 -1.7209  0.8473
 1632TIP3   OH226310   0.893   2.131  11.314  0.0207  0.4366 -0.6077
 1632TIP3    H126311   0.833   2.057  11.312  0.0495  0.4125 -3.3515
 1632TIP3    H226312   0.862   2.189  11.244  0.6664  2.4695  0.7501
 1633TIP3   OH226313   0.591   5.108   1.300 -0.1200 -0.6245 -0.3759
 1633TIP3    H126314   0.580   5.149   1.214 -0.5464  0.8245  0.3589
 1633TIP3    H226315   0.685   5.088   1.305 -0.1544 -1.0361 -1.3185
 1634TIP3   OH226316   3.489   0.033  12.082 -0.1110 -0.5606  0.0120
 1634TIP3    H126317   3.502  -0.041  12.023 -1.2727 -0.2252 -0.6828
 1634TIP3    H226318   3.573   0.079  12.082 -0.1963 -0.3637 -1.6612
 1635TIP3   OH226319   1.991   5.899  14.639  0.3821  0.2634  0.2170
 1635TIP3    H126320   2.052   5.825  14.644  2.3690  1.7925 -0.6511
 1635TIP3    H226321   2.007   5.950  14.718  1.4602  1.5522 -0.7923
 1636TIP3   OH226322   4.007   5.637  11.544 -0.5205  0.7142  0.0151
 1636TIP3    H126323   3.948   5.666  11.613  1.0272  1.3545  1.1034
 1636TIP3    H226324   3.968   5.556  11.511 -1.2870  0.4150  1.6285
 1637TIP3   OH226325   5.782   1.869  15.506 -0.2420 -0.0543  0.3730
 1637TIP3    H126326   5.699   1.835  15.538  0.7224 -1.6345  1.2618
 1637TIP3    H226327   5.801   1.944  15.564 -0.7238 -0.0874  0.5759
 1638TIP3   OH226328   1.871   6.583  15.677 -0.0661 -0.6424  0.3874
 1638TIP3    H126329   1.794   6.635  15.654 -1.0509 -2.0685  0.3743
 1638TIP3    H226330   1.898   6.617  15.763 -0.6082 -0.0174  0.3158
 1639TIP3   OH226331   4.410   4.894  11.351 -0.1424 -0.4090 -0.1713
 1639TIP3    H126332   4.419   4.836  11.275 -0.4215 -0.7340  0.0410
 1639TIP3    H226333   4.499   4.920  11.373 -0.0004 -0.9215 -0.1424
 1640TIP3   OH226334   0.417   0.879  17.148  0.3375 -0.2554  0.2696
 1640TIP3    H126335   0.503   0.890  17.189  0.8329  1.5286 -1.2232
 1640TIP3    H226336   0.436   0.875  17.054 -1.2902  0.9406 -0.1067
 1641TIP3   OH226337   1.867   2.598   2.188  0.8034  0.2610 -0.2468
 1641TIP3    H126338   1.830   2.563   2.269  0.2439 -0.0832 -0.6436
 1641TIP3    H226339   1.799   2.654   2.153 -1.0284 -3.4689 -3.0308
 1642TIP3   OH226340   2.164   4.805   5.028  0.2175  0.4402 -0.3650
 1642TIP3    H126341   2.147   4.841   5.115 -1.2032 -1.3333  0.1242
 1642TIP3    H226342   2.244   4.754   5.038 -1.5257 -2.1813  0.6704
 1643TIP3   OH226343   4.722   5.748   4.397  0.0757  0.7767  0.3063
 1643TIP3    H126344   4.784   5.709   4.458  0.0743 -0.1459 -0.2699
 1643TIP3    H226345   4.773   5.813   4.349  0.5733  0.0976 -0.0905
 1644TIP3   OH226346   2.721   3.469   3.080  0.3099 -0.3122 -0.4852
 1644TIP3    H126347   2.811   3.448   3.107  0.3689  1.7947  1.0022
 1644TIP3    H226348   2.667   3.405   3.125  0.7545  0.7500  1.6136
 1645TIP3   OH226349   0.518   1.553  15.850 -0.0050 -0.3692  0.6632
 1645TIP3    H126350   0.457   1.493  15.806  0.6411 -0.6306  0.1091
 1645TIP3    H226351   0.480   1.640  15.835  0.4219 -0.4188 -0.7856
 1646TIP3   OH226352   6.571   4.764   3.714 -0.4881  0.0680  0.8735
 1646TIP3    H126353   6.568   4.856   3.685  0.7315  0.3891  1.7368
 1646TIP3    H226354   6.480   4.742   3.732 -0.5897  1.7689  2.6336
 1647TIP3   OH226355   5.941   3.391  14.809 -0.3269 -0.7879 -0.3770
 1647TIP3    H126356   6.025   3.379  14.765  0.7604  1.3171  0.9993
 1647TIP3    H226357   5.960   3.373  14.901 -2.0711 -3.0706 -0.4180
 1648TIP3   OH226358   6.711   0.914  14.159  0.2611 -0.0028  0.5563
 1648TIP3    H126359   6.805   0.900  14.167  0.0997 -2.8577 -1.6160
 1648TIP3    H226360   6.687   0.873  14.075 -2.7918  1.3046  0.7081
 1649TIP3   OH226361   1.055   5.412  16.585 -0.4048 -0.2196 -0.4094
 1649TIP3    H126362   1.010   5.448  16.662 -3.1578 -1.2365 -1.4946
 1649TIP3    H226363   1.069   5.487  16.528 -2.1703 -0.1150 -0.7386
 1650TIP3   OH226364   3.408   0.607   0.854 -0.1541  0.4030  0.0734
 1650TIP3    H126365   3.413   0.698   0.826  3.2450  0.8179  1.8580
 1650TIP3    H226366   3.415   0.610   0.949  1.7192 -1.7846  0.0562
 1651TIP3   OH226367   3.953   0.746   3.095 -0.1128 -0.2056  0.1285
 1651TIP3    H126368   3.912   0.676   3.045  1.0228 -2.9332  2.8912
 1651TIP3    H226369   3.888   0.816   3.097 -2.2533 -2.1426 -0.5756
 1652TIP3   OH226370   1.816   2.353  16.472 -0.1387 -0.1958 -0.2606
 1652TIP3    H126371   1.761   2.399  16.536 -0.0759 -2.8803  1.8111
 1652TIP3    H226372   1.754   2.320  16.406 -0.7743 -1.2127  0.8171
 1653TIP3   OH226373   6.517   5.162   4.964 -0.6261  0.2083  0.0569
 1653TIP3    H126374   6.611   5.174   4.950 -0.1680 -1.6870  1.1874
 1653TIP3    H226375   6.488   5.115   4.886 -0.8603  1.7465 -0.7895
 1654TIP3   OH226376   1.115   2.853   6.534 -0.1797 -0.2736  0.2465
 1654TIP3    H126377   1.094   2.945   6.516 -1.7524 -0.5310  0.6352
 1654TIP3    H226378   1.204   2.842   6.502  0.6202  1.7963  1.6859
 1655TIP3   OH226379   3.902   6.055  15.495  0.2955 -0.0895  0.0107
 1655TIP3    H126380   3.809   6.073  15.482  0.7319  1.0701 -1.5897
 1655TIP3    H226381   3.911   6.047  15.590 -1.1345  1.5226  0.3142
 1656TIP3   OH226382   1.807   1.989  15.305 -0.2154  0.0950  0.0548
 1656TIP3    H126383   1.743   1.921  15.285 -0.2264 -0.3235  1.4582
 1656TIP3    H226384   1.850   2.008  15.221  0.8377 -2.7043 -0.0808
 1657TIP3   OH226385   2.969   1.447   3.177 -0.3988 -0.0834 -0.2847
 1657TIP3    H126386   3.026   1.457   3.101  0.1916 -2.3918 -0.2027
 1657TIP3    H226387   2.887   1.490   3.153  0.4776  0.9708 -1.4256
 1658TIP3   OH226388   0.421   4.522   5.374 -0.5485  0.5147 -0.4813
 1658TIP3    H126389   0.492   4.462   5.351 -1.1416  0.1168 -1.3052
 1658TIP3    H226390   0.460   4.609   5.365  0.0180  0.2836 -0.3029
 1659TIP3   OH226391   3.932   1.994   6.288  0.1430  0.6549  0.0385
 1659TIP3    H126392   3.894   2.008   6.201  0.8049  0.6629 -0.2488
 1659TIP3    H226393   3.886   1.916   6.321 -0.7055  1.1429  0.0280
 1660TIP3   OH226394   6.027   4.242  17.159 -0.6697  0.3408 -0.5133
 1660TIP3    H126395   5.939   4.205  17.148 -0.9297  0.6152  0.5167
 1660TIP3    H226396   6.028   4.273  17.250 -0.3783  2.6550 -1.2744
 1661TIP3   OH226397   2.661   2.033  16.897 -0.2897  0.0010 -0.3291
 1661TIP3    H126398   2.687   2.112  16.849  0.7829 -0.0469  0.1653
 1661TIP3    H226399   2.577   2.009  16.859  0.7544 -0.3050 -2.5246
 1662TIP3   OH226400   3.813   2.417   5.822  0.1405 -0.3514  0.3333
 1662TIP3    H126401   3.757   2.360   5.770  2.7292 -0.3051 -2.6661
 1662TIP3    H226402   3.830   2.368   5.902 -1.2914 -1.8426 -0.2562
 1663TIP3   OH226403   3.372   1.673  10.766 -0.5597  0.6296  0.1821
 1663TIP3    H126404   3.413   1.587  10.755 -0.4527  0.6912  0.1079
 1663TIP3    H226405   3.303   1.674  10.700  0.9820  1.5590 -1.4373
 1664TIP3   OH226406   1.375   1.391  12.695  0.3010 -0.4292 -0.0570
 1664TIP3    H126407   1.469   1.388  12.679  0.4428 -0.8434  0.8232
 1664TIP3    H226408   1.349   1.299  12.701 -0.1251 -0.3126 -0.1146
 1665TIP3   OH226409   6.226   6.447  14.132 -0.2892  0.1953  0.3568
 1665TIP3    H126410   6.253   6.444  14.223  0.5429  1.8091  0.1858
 1665TIP3    H226411   6.293   6.398  14.085  0.7913  1.7127  0.2909
 1666TIP3   OH226412   4.100   4.711  14.334 -0.2460 -0.6922  0.0507
 1666TIP3    H126413   4.054   4.669  14.262 -1.3076  0.6762 -0.1044
 1666TIP3    H226414   4.191   4.685  14.324 -0.2597  0.0050 -2.1928
 1667TIP3   OH226415   3.395   4.816  14.925 -0.3547 -0.1125  0.3367
 1667TIP3    H126416   3.349   4.844  15.004  0.9872 -1.7424  1.7412
 1667TIP3    H226417   3.416   4.724  14.941  1.5518  0.0381 -1.1095
 1668TIP3   OH226418   2.636   2.590   5.026 -0.2178 -0.2268 -0.0149
 1668TIP3    H126419   2.639   2.552   5.113 -0.7744  0.1972  0.1975
 1668TIP3    H226420   2.570   2.538   4.979 -1.6735  1.0390  0.5678
 1669TIP3   OH226421   5.804   3.742  14.010 -0.2214 -0.0728  0.8244
 1669TIP3    H126422   5.830   3.691  13.933  0.6277 -0.0337  1.0784
 1669TIP3    H226423   5.725   3.788  13.983 -0.2986 -0.5766  0.1904
 1670TIP3   OH226424   2.651   5.494   2.586  0.3682 -0.0334 -0.0554
 1670TIP3    H126425   2.670   5.401   2.572  1.5180  0.1896 -0.0432
 1670TIP3    H226426   2.567   5.508   2.544 -0.7950 -1.5410  1.6690
 1671TIP3   OH226427   1.444   4.512   5.984  0.4787  0.2381  0.0193
 1671TIP3    H126428   1.404   4.469   6.059  0.5630 -0.4020 -0.3045
 1671TIP3    H226429   1.538   4.510   6.003  0.4583  0.6268  0.1825
 1672TIP3   OH226430   2.640   3.620   2.632  0.3522 -1.0622 -0.5887
 1672TIP3    H126431   2.560   3.576   2.603 -0.5965  0.8992 -1.0114
 1672TIP3    H226432   2.689   3.552   2.679 -2.4604 -1.8163  1.4159
 1673TIP3   OH226433   4.207   4.457   0.686  0.7982 -0.0403 -0.0517
 1673TIP3    H126434   4.213   4.513   0.764 -0.2603 -2.1120  1.5471
 1673TIP3    H226435   4.297   4.448   0.656  1.0653  1.9394  0.0533
 1674TIP3   OH226436   0.544   3.075  16.848  0.2836  0.1021  0.1275
 1674TIP3    H126437   0.449   3.087  16.836  0.1830 -1.5438 -0.8463
 1674TIP3    H226438   0.583   3.155  16.814 -0.6039 -0.3927 -2.1114
 1675TIP3   OH226439   6.246   6.280  14.520 -0.0336  0.1886 -0.2784
 1675TIP3    H126440   6.193   6.304  14.595 -0.1322  0.7175 -0.5149
 1675TIP3    H226441   6.322   6.339  14.524  0.9034 -1.0640  0.4757
 1676TIP3   OH226442   3.063   2.877   1.233  0.5108  0.1444 -0.2406
 1676TIP3    H126443   3.067   2.965   1.269  2.0072  0.3578 -0.8688
 1676TIP3    H226444   2.981   2.874   1.184  0.8803  1.4924 -0.9701
 1677TIP3   OH226445   4.299   2.454   0.197 -0.5334 -0.1838 -0.1218
 1677TIP3    H126446   4.264   2.466   0.285 -0.9738  0.7629 -0.4131
 1677TIP3    H226447   4.394   2.459   0.208 -0.6215  1.6359  0.0908
 1678TIP3   OH226448   3.621   1.252  13.820  0.4105  0.0032  0.1293
 1678TIP3    H126449   3.717   1.245  13.823  0.4867 -0.2649 -1.8956
 1678TIP3    H226450   3.593   1.175  13.771 -0.8668 -0.0811  0.9853
 1679TIP3   OH226451   0.879   1.352  16.378  0.0345  0.7432  0.6730
 1679TIP3    H126452   0.928   1.422  16.420  0.0197  0.3015  1.4212
 1679TIP3    H226453   0.943   1.306  16.324 -0.4086  2.7495 -1.6636
 1680TIP3   OH226454   5.556   0.862   3.743 -0.1715  0.1813  0.1895
 1680TIP3    H126455   5.522   0.940   3.699 -1.6640  0.9110  2.5078
 1680TIP3    H226456   5.649   0.879   3.755 -0.2600  1.0813 -0.4041
 1681TIP3   OH226457   2.602   4.448  14.998  0.1197 -0.3340  0.5279
 1681TIP3    H126458   2.545   4.394  14.943  0.8481  0.4346 -0.9806
 1681TIP3    H226459   2.560   4.534  14.999  0.0460 -0.3697  1.3001
 1682TIP3   OH226460   5.830   5.383  14.489  1.1002  0.0220  0.1818
 1682TIP3    H126461   5.850   5.403  14.581 -2.3594  1.4905  0.6734
 1682TIP3    H226462   5.818   5.468  14.448 -0.7857 -0.6942 -0.8107
 1683TIP3   OH226463   4.184   6.287   5.864  0.5636  0.1365 -0.6278
 1683TIP3    H126464   4.225   6.212   5.906 -0.7186  0.6239  1.5488
 1683TIP3    H226465   4.255   6.351   5.854  1.5422 -1.1570 -2.0470
 1684TIP3   OH226466   4.600   2.939  12.239 -0.8180 -0.3214 -0.4182
 1684TIP3    H126467   4.637   2.950  12.326 -3.0369 -1.1339  0.6480
 1684TIP3    H226468   4.586   3.028  12.207  2.5285  0.0238 -1.0928
 1685TIP3   OH226469   3.214   2.191   5.453  0.5596 -0.0605  0.6929
 1685TIP3    H126470   3.144   2.189   5.518 -1.2080 -2.6351 -1.2253
 1685TIP3    H226471   3.243   2.100   5.446  1.5003  0.3740 -1.3100
 1686TIP3   OH226472   0.323   1.893   4.920  0.0813  0.1664  0.2928
 1686TIP3    H126473   0.346   1.867   5.009 -1.1334  2.0638  1.1932
 1686TIP3    H226474   0.228   1.880   4.914 -0.1878  2.1013  0.0053
 1687TIP3   OH226475   0.038   6.178   5.005  0.4546 -0.0973  0.0475
 1687TIP3    H126476  -0.055   6.187   5.028  0.6347  1.6777  0.1508
 1687TIP3    H226477   0.038   6.176   4.909  0.1860 -1.7718  0.0670
 1688TIP3   OH226478   5.783   1.645  16.063 -0.1630 -0.2864 -0.2499
 1688TIP3    H126479   5.809   1.559  16.096  1.5730  0.3151 -0.0479
 1688TIP3    H226480   5.687   1.639  16.056 -0.2710 -1.4827  1.8584
 1689TIP3   OH226481   4.362   2.390   3.323  0.4040  0.1187  0.3335
 1689TIP3    H126482   4.352   2.351   3.236  0.6372  0.3304  0.2093
 1689TIP3    H226483   4.298   2.345   3.377 -1.2453  1.4682 -0.4407
 1690TIP3   OH226484   4.536   4.928  14.223 -0.2530 -0.1504 -0.1323
 1690TIP3    H126485   4.611   4.986  14.211  0.1096 -0.1227  1.9618
 1690TIP3    H226486   4.540   4.868  14.149  2.6192 -0.9538  0.6100
 1691TIP3   OH226487   4.247   6.517   1.900 -0.6587 -0.6585 -0.0655
 1691TIP3    H126488   4.186   6.589   1.885  0.3946  0.5690  1.4203
 1691TIP3    H226489   4.199   6.458   1.959 -0.3061  0.4927  1.4149
 1692TIP3   OH226490   4.784   2.783   2.243  0.2166  0.0687 -0.2216
 1692TIP3    H126491   4.693   2.762   2.263  0.0765 -0.6804 -1.6190
 1692TIP3    H226492   4.835   2.744   2.315 -0.4079 -1.1060 -0.4144
 1693TIP3   OH226493   6.437   4.983  11.477  0.2211  0.2739 -0.2268
 1693TIP3    H126494   6.486   4.911  11.517 -1.1442  0.5554  2.0920
 1693TIP3    H226495   6.449   5.057  11.537 -1.2377  0.9475 -0.7264
 1694TIP3   OH226496   3.722   2.256  11.328 -0.2714 -0.0949 -0.6749
 1694TIP3    H126497   3.777   2.197  11.277 -1.9725 -3.1848  0.8991
 1694TIP3    H226498   3.767   2.264  11.413 -0.0747  0.8301 -0.8639
 1695TIP3   OH226499   2.037   5.323   3.691 -0.8294 -0.1764  0.0410
 1695TIP3    H126500   1.966   5.260   3.676 -1.6250 -0.1333  3.1194
 1695TIP3    H226501   2.090   5.282   3.759  0.7770  0.8406 -0.5863
 1696TIP3   OH226502   2.457   1.849  12.796 -0.1015  0.3032  0.3748
 1696TIP3    H126503   2.489   1.926  12.750 -1.7147  0.5903 -0.2956
 1696TIP3    H226504   2.535   1.796  12.812  0.6964  0.9780 -1.2252
 1697TIP3   OH226505   2.653   5.448   4.783 -0.3700 -0.1875 -0.4899
 1697TIP3    H126506   2.677   5.387   4.713 -0.9394  0.8375 -1.5958
 1697TIP3    H226507   2.657   5.395   4.863  1.8242 -0.9818 -1.0946
 1698TIP3   OH226508   2.475   6.106   4.951 -0.8175  0.1976 -0.0456
 1698TIP3    H126509   2.404   6.102   5.015  0.5015 -0.1984  1.4112
 1698TIP3    H226510   2.534   6.035   4.975  0.6480  1.2169 -0.5488
 1699TIP3   OH226511   6.485   3.337   3.334  0.0115  0.0375  0.0836
 1699TIP3    H126512   6.463   3.393   3.259  1.4009  0.8500  0.2792
 1699TIP3    H226513   6.400   3.306   3.366 -0.6731  0.7718 -0.9886
 1700TIP3   OH226514   4.625   1.464  16.658  0.1136 -0.0467 -0.6145
 1700TIP3    H126515   4.560   1.430  16.719  1.4682 -0.6134  0.5630
 1700TIP3    H226516   4.700   1.486  16.713  0.8842  0.6892 -1.9227
 1701TIP3   OH226517   2.610   1.829   1.499  0.7676  0.3120  0.7334
 1701TIP3    H126518   2.640   1.792   1.416 -1.5016  1.8916 -0.8653
 1701TIP3    H226519   2.547   1.766   1.532 -1.3923  1.5542 -0.8543
 1702TIP3   OH226520   0.364   3.451   1.803 -0.4785  0.3159  0.2802
 1702TIP3    H126521   0.393   3.388   1.869  0.6243 -0.2550 -0.7203
 1702TIP3    H226522   0.424   3.438   1.729 -2.0002  0.5962 -1.0350
 1703TIP3   OH226523   0.154   2.671  14.379 -0.6830 -0.2959  0.2078
 1703TIP3    H126524   0.094   2.737  14.344  0.7538  0.5504 -0.7069
 1703TIP3    H226525   0.164   2.608  14.307 -0.3448 -0.3443  0.2990
 1704TIP3   OH226526   0.906   1.660   2.750  0.3741 -0.5986  0.0315
 1704TIP3    H126527   0.946   1.704   2.675 -0.9507  0.3548 -0.1279
 1704TIP3    H226528   0.965   1.587   2.769  2.0793  0.6606 -0.3242
 1705TIP3   OH226529   0.330   4.647  12.852  0.2310  0.5742 -0.0562
 1705TIP3    H126530   0.308   4.701  12.776  1.5162  0.1931 -0.7096
 1705TIP3    H226531   0.364   4.710  12.916  1.0126  0.6489 -0.5382
 1706TIP3   OH226532   1.522   0.972  11.816  0.2202  0.0222  0.3009
 1706TIP3    H126533   1.523   1.067  11.818  0.4554  0.0559 -0.9883
 1706TIP3    H226534   1.611   0.947  11.791 -0.1796 -0.4908 -0.6431
 1707TIP3   OH226535   0.012   3.625   2.242  0.0882 -0.1190  0.3452
 1707TIP3    H126536  -0.022   3.540   2.271 -0.5570 -0.2873 -0.8929
 1707TIP3    H226537  -0.042   3.648   2.167  1.4667  0.5172 -0.4675
 1708TIP3   OH226538   1.280   4.902   3.703  0.0344  1.2281 -0.2544
 1708TIP3    H126539   1.355   4.959   3.688 -0.2305  1.6649  0.0710
 1708TIP3    H226540   1.236   4.898   3.618  0.9363  0.2205 -0.6879
 1709TIP3   OH226541   1.537   4.238   5.270  0.5285  0.0341 -0.4347
 1709TIP3    H126542   1.494   4.323   5.270  1.0936  0.3229  0.5920
 1709TIP3    H226543   1.513   4.198   5.353 -0.7656 -1.3548 -1.4438
 1710TIP3   OH226544   4.555   3.735   2.797 -0.0179 -0.1344  0.6042
 1710TIP3    H126545   4.649   3.723   2.811  0.0047  0.2025  0.7604
 1710TIP3    H226546   4.517   3.729   2.885  0.3073  3.6393  1.1131
 1711TIP3   OH226547   5.054   4.567  12.734  0.0622  0.0276  0.1529
 1711TIP3    H126548   5.035   4.657  12.709 -0.2033 -0.4593 -1.4642
 1711TIP3    H226549   5.001   4.551  12.811 -2.1691  0.3437 -1.2719
 1712TIP3   OH226550   3.056   0.352   3.371  0.4860  0.2778  0.6144
 1712TIP3    H126551   2.961   0.346   3.357  0.1984  1.4980  1.9327
 1712TIP3    H226552   3.068   0.433   3.420  2.4482  1.2689 -1.4447
 1713TIP3   OH226553   2.579   2.044   1.927  0.2780 -0.0213  0.4916
 1713TIP3    H126554   2.547   1.954   1.933  0.2372 -0.0388 -0.0160
 1713TIP3    H226555   2.652   2.040   1.866  0.3010  0.2853  0.4982
 1714TIP3   OH226556   1.658   1.997   5.542 -0.1738  0.3801  0.3249
 1714TIP3    H126557   1.683   1.912   5.578  0.8889  0.3894 -0.3619
 1714TIP3    H226558   1.641   2.052   5.619 -1.6681 -0.6868  0.7564
 1715TIP3   OH226559   5.469   1.141   2.223 -0.2772 -0.4057 -0.1419
 1715TIP3    H126560   5.418   1.200   2.167 -0.5699  1.8198  2.4004
 1715TIP3    H226561   5.559   1.172   2.214 -0.2758 -0.2708  0.3699
 1716TIP3   OH226562   0.551   3.080   6.671 -0.2384  0.1503 -0.0718
 1716TIP3    H126563   0.642   3.096   6.696  0.3646 -1.4779 -1.1716
 1716TIP3    H226564   0.544   2.985   6.663 -1.2336  0.4194 -2.9727
 1717TIP3   OH226565   2.587   5.396   1.892 -0.0771 -0.3266  0.0940
 1717TIP3    H126566   2.670   5.420   1.934  0.0083 -0.5939  0.0780
 1717TIP3    H226567   2.567   5.309   1.928  1.7964 -2.1763 -3.0832
 1718TIP3   OH226568   4.099   2.547   1.236 -0.1571 -0.2750 -0.1022
 1718TIP3    H126569   4.122   2.633   1.270  0.6773 -0.7769  0.6220
 1718TIP3    H226570   4.081   2.494   1.314 -0.7603 -0.7394 -0.5436
 1719TIP3   OH226571   5.756   2.720   6.227  0.1186  0.4116  0.3581
 1719TIP3    H126572   5.828   2.715   6.290 -0.4154  0.8004  1.0212
 1719TIP3    H226573   5.704   2.642   6.245  1.0029 -0.4732 -0.9125
 1720TIP3   OH226574   4.625   1.820  16.012  0.1433 -0.0258 -0.4628
 1720TIP3    H126575   4.542   1.774  16.024  0.1279 -0.3558 -1.7079
 1720TIP3    H226576   4.675   1.764  15.953  0.5955  0.9626 -1.0347
 1721TIP3   OH226577   3.071   2.358   3.702 -0.2152  0.0860  0.0510
 1721TIP3    H126578   2.990   2.325   3.665  0.2859  0.1161 -1.0928
 1721TIP3    H226579   3.091   2.297   3.773 -0.9387 -0.2535 -0.0304
 1722TIP3   OH226580   5.897   2.417  13.256  0.3802 -0.1567 -0.7870
 1722TIP3    H126581   5.859   2.478  13.319 -0.8101  0.3685 -1.9632
 1722TIP3    H226582   5.963   2.468  13.210  2.0057 -0.8468  0.7296
 1723TIP3   OH226583   5.056   5.179   4.126  0.3992 -0.4370  0.3549
 1723TIP3    H126584   4.966   5.161   4.102  0.2158  0.3068  0.4534
 1723TIP3    H226585   5.105   5.102   4.100 -0.0659 -0.3168 -0.8672
 1724TIP3   OH226586   3.801   5.487  13.487  0.7554 -0.2744 -0.2247
 1724TIP3    H126587   3.840   5.409  13.525 -0.2483 -0.6206  0.1122
 1724TIP3    H226588   3.724   5.455  13.440 -0.1593  0.6128  0.6557
 1725TIP3   OH226589   1.669   4.778  13.821  0.0311  0.6595  0.2751
 1725TIP3    H126590   1.605   4.847  13.842  0.4486  1.5641 -1.3633
 1725TIP3    H226591   1.708   4.806  13.739 -0.2305 -1.8760 -0.7471
 1726TIP3   OH226592   1.196   1.691  14.402  0.4505 -0.2332 -0.6801
 1726TIP3    H126593   1.195   1.770  14.349 -0.7523  1.5027  1.8470
 1726TIP3    H226594   1.266   1.706  14.466  0.3177 -1.2997 -0.2681
 1727TIP3   OH226595   6.659   5.826  13.688 -0.0210  0.1173  0.3510
 1727TIP3    H126596   6.592   5.849  13.752  1.3611 -0.3913  1.9917
 1727TIP3    H226597   6.687   5.911  13.652 -2.5556  0.2390 -1.4165
 1728TIP3   OH226598   4.308   6.646   4.363 -0.7090  0.1313 -0.5740
 1728TIP3    H126599   4.279   6.612   4.278  0.1956  0.5820 -1.0685
 1728TIP3    H226600   4.403   6.637   4.362 -0.5653  1.4244 -0.1785
 1729TIP3   OH226601   0.947   2.776   2.905 -0.6194  0.1152  0.3606
 1729TIP3    H126602   0.947   2.797   2.998  2.8686  0.2379  0.3880
 1729TIP3    H226603   1.006   2.701   2.897 -0.7913  0.1831 -1.7746
 1730TIP3   OH226604   5.809   0.927  15.217  0.1571 -0.5706  0.0985
 1730TIP3    H126605   5.751   0.855  15.243  0.5343 -0.6695  0.6725
 1730TIP3    H226606   5.842   0.962  15.299  2.0248 -1.4191 -0.2756
 1731TIP3   OH226607   0.588   5.863  12.790  0.3834 -0.0174 -0.1036
 1731TIP3    H126608   0.528   5.789  12.788  0.7487 -0.3532  1.1524
 1731TIP3    H226609   0.635   5.858  12.707  0.0916 -0.9339 -0.2150
 1732TIP3   OH226610   6.513   1.257  13.590 -0.6756  0.5715  0.6409
 1732TIP3    H126611   6.432   1.277  13.637 -1.3980 -0.0219 -0.3260
 1732TIP3    H226612   6.530   1.335  13.537 -0.8788  0.5204  0.4964
 1733TIP3   OH226613   1.755   0.876   5.635 -0.1027  0.2962  0.3223
 1733TIP3    H126614   1.818   0.805   5.622  0.8204  1.4559 -1.7780
 1733TIP3    H226615   1.718   0.891   5.548 -0.3131  2.3584  0.7342
 1734TIP3   OH226616   4.290   6.267  15.088 -0.3975 -0.2446  0.3111
 1734TIP3    H126617   4.204   6.257  15.048 -1.2290 -1.0048  2.2664
 1734TIP3    H226618   4.315   6.178  15.114  1.6994 -0.2970 -1.6555
 1735TIP3   OH226619   6.157   2.348   2.058 -0.0730  0.2013 -0.0650
 1735TIP3    H126620   6.180   2.394   1.978  2.3974  0.1909  0.6004
 1735TIP3    H226621   6.220   2.378   2.123  0.6956 -2.9716  0.7653
 1736TIP3   OH226622   6.366   2.614   4.223 -0.3779 -0.4270 -0.3683
 1736TIP3    H126623   6.402   2.673   4.156 -0.9792  0.8604  0.4115
 1736TIP3    H226624   6.329   2.673   4.289  1.6604 -1.6542  1.9235
 1737TIP3   OH226625   1.560   2.824  15.935  0.0465 -0.0518 -0.1242
 1737TIP3    H126626   1.584   2.865  16.018 -1.4906 -2.4889  1.5910
 1737TIP3    H226627   1.495   2.758  15.959 -1.0038 -0.2673 -3.3797
 1738TIP3   OH226628   3.482   4.179  15.580 -0.0071  0.1952  0.0423
 1738TIP3    H126629   3.544   4.174  15.508  1.4608  1.5134  1.1581
 1738TIP3    H226630   3.459   4.272  15.585 -2.0865 -0.2912 -0.3645
 1739TIP3   OH226631   5.071   2.943  13.340  0.2299  0.6637 -0.3382
 1739TIP3    H126632   5.124   2.963  13.263  0.9812 -0.7041 -0.1937
 1739TIP3    H226633   5.122   2.975  13.413  0.9270 -0.7462 -0.1908
 1740TIP3   OH226634   3.399   0.064  14.669 -0.0892  0.0301  0.2687
 1740TIP3    H126635   3.428  -0.027  14.664  1.8215  0.7151 -1.7124
 1740TIP3    H226636   3.315   0.065  14.622 -0.2633 -0.7445  0.5516
 1741TIP3   OH226637   1.159   1.473  10.362 -0.2428 -0.0539 -0.1688
 1741TIP3    H126638   1.131   1.559  10.393 -0.6337 -0.3849  0.4020
 1741TIP3    H226639   1.085   1.441  10.310 -0.3689 -0.3364  0.1862
 1742TIP3   OH226640   2.678   5.727   3.714  0.0260 -0.6849 -0.5854
 1742TIP3    H126641   2.699   5.775   3.634  1.6007  0.6953  0.6186
 1742TIP3    H226642   2.761   5.723   3.762 -0.8392 -1.7014  0.8705
 1743TIP3   OH226643   0.340   2.425   6.131 -0.3479  0.3105 -0.2835
 1743TIP3    H126644   0.338   2.342   6.179  1.0512  0.7475  0.5864
 1743TIP3    H226645   0.429   2.428   6.094  0.4015  2.4240  1.5651
 1744TIP3   OH226646   5.818   1.234   2.596 -0.1745 -0.1293 -0.1891
 1744TIP3    H126647   5.828   1.172   2.524  0.0403 -0.0799 -0.2019
 1744TIP3    H226648   5.724   1.252   2.599  0.0162  1.1123 -1.5000
 1745TIP3   OH226649   5.611   2.717   4.134 -0.1865  0.3129 -0.5989
 1745TIP3    H126650   5.676   2.764   4.081  0.0370 -0.2717 -0.8413
 1745TIP3    H226651   5.528   2.736   4.092 -0.1277  0.7313 -0.5282
 1746TIP3   OH226652   5.647   3.961   4.046 -0.3355  0.1635 -0.6501
 1746TIP3    H126653   5.702   4.038   4.029 -2.1033  1.3200 -1.3786
 1746TIP3    H226654   5.560   3.987   4.015 -1.9605 -0.5870  2.9723
 1747TIP3   OH226655   3.410   0.464  13.290  0.0758  0.3812 -0.4421
 1747TIP3    H126656   3.503   0.448  13.310 -0.0073  1.1406  0.6184
 1747TIP3    H226657   3.411   0.541  13.233  0.1018  0.3377 -0.5010
 1748TIP3   OH226658   5.126   1.678   5.755 -0.1262  0.1881 -0.5132
 1748TIP3    H126659   5.067   1.649   5.686 -0.1900  0.1216 -0.4309
 1748TIP3    H226660   5.117   1.773   5.757 -4.2979 -0.1341  3.0858
 1749TIP3   OH226661   3.215   4.688   4.226 -0.5000 -0.6102 -0.2874
 1749TIP3    H126662   3.211   4.726   4.314  0.1152  1.6305 -1.1854
 1749TIP3    H226663   3.127   4.651   4.213 -0.4481 -1.4155  1.4323
 1750TIP3   OH226664   4.799   0.339  13.983 -0.7528 -0.4396  0.3083
 1750TIP3    H126665   4.849   0.269  14.024 -0.5132 -1.5813 -1.8185
 1750TIP3    H226666   4.709   0.323  14.010 -0.2218  0.6887  2.8736
 1751TIP3   OH226667   5.353   6.562  16.134  0.3800  0.0892 -0.1983
 1751TIP3    H126668   5.298   6.507  16.190  1.1169 -1.2421 -0.7710
 1751TIP3    H226669   5.315   6.650  16.142 -1.8083 -0.7959 -0.5646
 1752TIP3   OH226670   6.687   4.193   0.895 -0.4617  0.1894 -0.3168
 1752TIP3    H126671   6.752   4.146   0.948  0.1074  1.8538  0.5117
 1752TIP3    H226672   6.686   4.281   0.932 -1.7499  0.7381 -1.6194
 1753TIP3   OH226673   5.918   1.444   2.861 -0.5865 -0.1465  0.2744
 1753TIP3    H126674   5.894   1.351   2.861 -0.9342 -0.0578  1.2211
 1753TIP3    H226675   6.013   1.444   2.868 -0.5476 -0.4362 -0.2083
 1754TIP3   OH226676   5.706   0.046   6.534  0.7566  0.0342 -0.4502
 1754TIP3    H126677   5.642   0.096   6.585  1.7629  0.4807  0.4056
 1754TIP3    H226678   5.672   0.047   6.445 -0.3388  0.4002 -0.0413
 1755TIP3   OH226679   3.367   5.322   2.354 -0.7732  0.2341 -0.9798
 1755TIP3    H126680   3.347   5.295   2.443 -0.4823 -1.2230 -1.3405
 1755TIP3    H226681   3.310   5.397   2.338 -2.6764 -1.0602 -0.4343
 1756TIP3   OH226682   1.844   3.519  13.937  0.0403 -0.3432  0.1517
 1756TIP3    H126683   1.875   3.432  13.962  0.0106 -0.4823 -0.2896
 1756TIP3    H226684   1.799   3.506  13.853 -0.2046  0.0503  0.2153
 1757TIP3   OH226685   3.116   2.052   5.930 -0.0102 -0.1323 -0.1706
 1757TIP3    H126686   3.088   1.981   5.987  0.7455 -0.8221 -0.6594
 1757TIP3    H226687   3.208   2.066   5.952  0.2830 -0.3996 -1.2140
 1758TIP3   OH226688   3.130   4.234   0.124  0.0220  0.2995 -0.1408
 1758TIP3    H126689   3.042   4.232   0.085  0.6921 -0.5151 -1.6810
 1758TIP3    H226690   3.119   4.196   0.211 -0.7687 -1.8976 -1.1667
 1759TIP3   OH226691   6.149   3.544   4.223  0.2009  0.0457  0.4317
 1759TIP3    H126692   6.082   3.478   4.236  0.3327 -0.2764 -0.4707
 1759TIP3    H226693   6.135   3.576   4.134  1.8066 -0.6952 -0.1177
 1760TIP3   OH226694   3.595   3.134  13.046 -0.3014  0.4164  0.1015
 1760TIP3    H126695   3.595   3.039  13.061 -1.2496  0.3371 -0.3546
 1760TIP3    H226696   3.630   3.144  12.957  1.8652  0.6439  0.9665
 1761TIP3   OH226697   5.526   1.923   2.020  0.0795 -0.3059 -0.0015
 1761TIP3    H126698   5.431   1.935   2.020 -0.0438 -1.2517  0.6609
 1761TIP3    H226699   5.559   1.995   1.966 -1.0311 -0.1488 -0.4853
 1762TIP3   OH226700   5.657   2.886  16.500  1.0104 -0.2234  0.1465
 1762TIP3    H126701   5.598   2.959  16.515  0.9940 -0.3095  0.4936
 1762TIP3    H226702   5.694   2.902  16.413  1.7079  0.6818  0.6090
 1763TIP3   OH226703   0.785   1.726   3.534 -0.2269 -0.0358  0.1665
 1763TIP3    H126704   0.743   1.640   3.534 -1.1801  0.4198  0.3928
 1763TIP3    H226705   0.713   1.788   3.552  0.1135  0.9727 -1.7938
 1764TIP3   OH226706   1.301   0.449  13.310 -0.0288 -0.1644  0.2189
 1764TIP3    H126707   1.208   0.458  13.293 -0.1251  0.0746  0.8954
 1764TIP3    H226708   1.343   0.478  13.229 -0.4978  0.9839  0.3879
 1765TIP3   OH226709   4.178   1.127   0.663  0.0962  0.8509 -0.3499
 1765TIP3    H126710   4.252   1.138   0.603  1.0809 -1.4226  0.3994
 1765TIP3    H226711   4.218   1.094   0.744 -1.2874  3.2701  1.3779
 1766TIP3   OH226712   5.222   0.377  11.338 -0.1183 -0.3573 -0.2731
 1766TIP3    H126713   5.220   0.286  11.369  0.9969 -0.7001 -1.1820
 1766TIP3    H226714   5.293   0.379  11.273  0.9022  1.5189  0.8447
 1767TIP3   OH226715   6.610   2.660   0.587  0.0317  0.4058  0.5249
 1767TIP3    H126716   6.683   2.638   0.645  0.0292  0.3809  0.5190
 1767TIP3    H226717   6.531   2.641   0.638  0.0276  0.1065  0.4126
 1768TIP3   OH226718   6.093   3.088   2.198 -0.2718  0.1500 -0.6678
 1768TIP3    H126719   6.102   2.993   2.203 -1.0819  0.1436  1.2072
 1768TIP3    H226720   6.112   3.118   2.287 -1.4063  1.6154 -0.9077
 1769TIP3   OH226721   2.995   5.057  16.198  0.1671  0.8116  0.0608
 1769TIP3    H126722   2.979   4.972  16.239 -0.2525  1.6794  1.7463
 1769TIP3    H226723   2.955   5.050  16.111  0.7809 -0.9489 -0.0900
 1770TIP3   OH226724   0.599   4.044   3.810 -1.3673 -0.8215  0.5124
 1770TIP3    H126725   0.545   4.079   3.881 -3.1349 -0.0322 -1.1776
 1770TIP3    H226726   0.620   4.120   3.756 -1.4940 -1.6667 -0.7533
 1771TIP3   OH226727   6.199   3.727  16.374  0.0032  0.7767  0.5258
 1771TIP3    H126728   6.142   3.777  16.433  1.4016  1.1754  1.5936
 1771TIP3    H226729   6.183   3.636  16.396 -0.5151  0.8732  0.5426
 1772TIP3   OH226730   4.782   0.718  15.745 -0.0200  0.0009 -0.4557
 1772TIP3    H126731   4.739   0.696  15.827 -0.1016 -0.9997 -0.7636
 1772TIP3    H226732   4.848   0.783  15.769 -1.4801  1.3417  0.0643
 1773TIP3   OH226733   6.690   3.880  10.809 -0.4280 -0.3422 -0.3934
 1773TIP3    H126734   6.668   3.807  10.750 -0.3504 -0.0743 -0.7550
 1773TIP3    H226735   6.715   3.951  10.750  0.4250 -0.3266 -0.0136
 1774TIP3   OH226736   5.865   6.335  15.501  0.2663  0.1176 -0.0547
 1774TIP3    H126737   5.798   6.401  15.479 -2.6424 -2.9964 -0.9365
 1774TIP3    H226738   5.933   6.346  15.435 -0.2303  2.1030 -0.2734
 1775TIP3   OH226739   5.258   1.309  17.061  0.7075 -0.5985  0.0918
 1775TIP3    H126740   5.320   1.247  17.099  1.2194 -1.4834 -2.1020
 1775TIP3    H226741   5.174   1.263  17.063  0.4787 -0.1502  1.2773
 1776TIP3   OH226742   3.937   6.180  16.422  0.1598 -0.0968 -0.3503
 1776TIP3    H126743   3.975   6.258  16.463 -0.6367 -0.1533  0.5140
 1776TIP3    H226744   3.845   6.181  16.450  0.4582 -2.0895  0.7975
 1777TIP3   OH226745   6.607   2.944   0.915 -0.2427  0.4103  0.2296
 1777TIP3    H126746   6.538   2.920   0.853 -0.1368  0.6849  0.0085
 1777TIP3    H226747   6.610   3.039   0.913  1.9724  0.3490 -1.7760
 1778TIP3   OH226748   4.748   0.305   3.259  0.5944 -0.3516  0.7746
 1778TIP3    H126749   4.693   0.265   3.192 -2.7322  1.3670  2.2898
 1778TIP3    H226750   4.777   0.232   3.313  0.9115 -1.4485 -0.8547
 1779TIP3   OH226751   6.642   3.204  12.467  0.2277 -0.0731 -0.1678
 1779TIP3    H126752   6.648   3.156  12.550  1.7288 -0.2518 -0.3677
 1779TIP3    H226753   6.555   3.183  12.434  0.6433 -2.2632  0.0162
 1780TIP3   OH226754   0.423   3.353  11.824  0.4737  0.2414 -0.3078
 1780TIP3    H126755   0.475   3.386  11.751  1.0418 -0.6508 -0.3153
 1780TIP3    H226756   0.356   3.297  11.783  0.8872 -0.3825 -0.1421
 1781TIP3   OH226757   3.571   1.215   5.983  0.5734  0.5558 -0.3961
 1781TIP3    H126758   3.490   1.165   5.978  1.9349 -1.6974 -0.3525
 1781TIP3    H226759   3.545   1.305   5.960 -2.3377  0.3545  1.8509
 1782TIP3   OH226760   2.559   4.586  12.381 -0.3230 -0.2302  0.8833
 1782TIP3    H126761   2.641   4.542  12.402 -0.3385 -1.0275 -0.6641
 1782TIP3    H226762   2.537   4.635  12.460  2.5575  1.4395  0.7259
 1783TIP3   OH226763   5.284   6.395  11.314 -0.0340  0.4272 -0.1740
 1783TIP3    H126764   5.261   6.481  11.279 -0.5058  0.0495 -0.7948
 1783TIP3    H226765   5.303   6.411  11.406 -1.6217  0.9600  0.0818
 1784TIP3   OH226766   0.059   2.930  15.935  0.5986 -0.1523  0.0188
 1784TIP3    H126767   0.143   2.975  15.930 -0.3044  1.5966 -0.1498
 1784TIP3    H226768   0.064   2.862  15.868  1.3549  0.8625 -0.9735
 1785TIP3   OH226769   1.367   5.462  11.372 -0.4762  0.3727 -0.0126
 1785TIP3    H126770   1.430   5.523  11.411  0.6891 -0.4435 -0.5933
 1785TIP3    H226771   1.387   5.463  11.279  1.2001 -2.6923  0.2268
 1786TIP3   OH226772   5.368   3.910  14.088 -0.0137 -0.3225 -0.5395
 1786TIP3    H126773   5.357   4.004  14.074  1.2842  0.2125  1.7854
 1786TIP3    H226774   5.285   3.881  14.127 -0.1619 -0.0182 -0.6288
 1787TIP3   OH226775   0.074   4.692   3.306  0.2519 -0.0958  0.0645
 1787TIP3    H126776   0.070   4.760   3.238 -0.0249  0.1111  0.2900
 1787TIP3    H226777   0.055   4.610   3.259 -0.9316  0.1656  0.0721
 1788TIP3   OH226778   3.797   5.253   4.425  0.0077  0.5258 -0.4666
 1788TIP3    H126779   3.729   5.237   4.491  0.4748 -0.0385 -0.1196
 1788TIP3    H226780   3.805   5.169   4.379 -0.7747  1.0965 -1.6787
 1789TIP3   OH226781   4.733   2.116  15.012 -0.3897  0.1841 -0.1750
 1789TIP3    H126782   4.702   2.173  14.941  0.0435  1.6592  0.7987
 1789TIP3    H226783   4.660   2.113  15.074  0.2851  1.2521  0.6915
 1790TIP3   OH226784   6.129   4.375   2.697 -0.4100 -0.0259 -0.5218
 1790TIP3    H126785   6.190   4.429   2.748 -1.5576 -0.3248  1.1919
 1790TIP3    H226786   6.185   4.333   2.631  1.0824  0.4650  0.3885
 1791TIP3   OH226787   5.516   0.277  15.404 -0.0135 -0.7882  1.0117
 1791TIP3    H126788   5.451   0.265  15.334  1.6947 -0.9165 -0.5968
 1791TIP3    H226789   5.491   0.213  15.471 -2.6047  0.4083  1.2403
 1792TIP3   OH226790   4.936   0.849  16.227 -0.4985  0.2880  0.5784
 1792TIP3    H126791   4.944   0.760  16.194 -0.2630  0.7069 -0.4977
 1792TIP3    H226792   5.010   0.896  16.188  0.3281  0.5755  2.4212
 1793TIP3   OH226793   1.510   1.344  10.514 -0.6479 -0.1166  0.8172
 1793TIP3    H126794   1.507   1.270  10.574  0.0994  0.0424  1.0552
 1793TIP3    H226795   1.419   1.361  10.492 -0.8412 -0.9089  1.0089
 1794TIP3   OH226796   1.096   5.785  16.039 -0.7298 -0.0787  0.0002
 1794TIP3    H126797   1.140   5.861  16.078 -2.5761  1.1292 -0.2375
 1794TIP3    H226798   1.020   5.770  16.094 -1.2256 -0.7968 -0.8701
 1795TIP3   OH226799   3.564   4.581  13.385 -0.0697 -0.0679 -0.6131
 1795TIP3    H126800   3.547   4.670  13.413  1.0192 -0.1404  0.3063
 1795TIP3    H226801   3.660   4.576  13.376  0.0063 -1.5616  0.8151
 1796TIP3   OH226802   4.882   1.200  11.612  0.5803  0.1075 -0.0348
 1796TIP3    H126803   4.918   1.177  11.527  0.2348 -0.4228 -0.0402
 1796TIP3    H226804   4.874   1.116  11.658  1.2612  0.4459  0.7165
 1797TIP3   OH226805   6.783   3.419  12.651  0.1590  0.4182  0.0883
 1797TIP3    H126806   6.785   3.512  12.632 -2.0558  0.8045  1.6090
 1797TIP3    H226807   6.755   3.378  12.569 -0.2261  1.2078 -0.1760
 1798TIP3   OH226808   2.754   5.114  16.644  0.2553 -0.0274 -0.0840
 1798TIP3    H126809   2.696   5.087  16.716  0.7723 -0.6031  0.1244
 1798TIP3    H226810   2.699   5.108  16.566  0.2040 -1.1994  0.0288
 1799TIP3   OH226811   2.207   1.414  13.478  0.5752 -0.2044 -0.1650
 1799TIP3    H126812   2.157   1.346  13.433  0.8009 -0.7208  0.3486
 1799TIP3    H226813   2.229   1.374  13.563 -0.0812  0.8480  0.5084
 1800TIP3   OH226814   4.068   3.630   1.141  0.4007  0.3564 -0.0547
 1800TIP3    H126815   4.075   3.678   1.223 -0.6530  0.3102  0.0714
 1800TIP3    H226816   3.975   3.634   1.118  0.4720 -0.7127 -0.5834
 1801TIP3   OH226817   0.260   6.509   3.785  0.1608 -0.7300  0.0666
 1801TIP3    H126818   0.337   6.556   3.752  0.3838 -1.1294  0.0180
 1801TIP3    H226819   0.295   6.428   3.821 -0.4508 -1.8298 -1.7466
 1802TIP3   OH226820   2.766   1.570  14.587  0.7448  0.1486 -0.4221
 1802TIP3    H126821   2.838   1.554  14.526  0.2714  0.0782 -0.9650
 1802TIP3    H226822   2.696   1.607  14.533 -1.0219 -3.3605 -0.6162
 1803TIP3   OH226823   3.962   0.389  14.633 -0.5250 -0.1204 -0.2483
 1803TIP3    H126824   3.954   0.325  14.562  0.0088 -2.6370  1.8871
 1803TIP3    H226825   4.056   0.398  14.647 -0.5824  1.5090 -0.8211
 1804TIP3   OH226826   3.739   1.584  13.201 -0.4236  0.4304  0.1085
 1804TIP3    H126827   3.747   1.491  13.182 -0.6445  0.4940 -0.2993
 1804TIP3    H226828   3.827   1.619  13.187 -0.2631  0.2304  0.5814
 1805TIP3   OH226829   6.611   2.093  16.581  0.4032  0.2155 -0.4826
 1805TIP3    H126830   6.574   2.006  16.565  0.7023  0.1985 -1.0823
 1805TIP3    H226831   6.678   2.079  16.648  0.9965 -0.1476 -1.1443
 1806TIP3   OH226832   6.556   2.998  13.288 -0.4686  0.0133 -0.0256
 1806TIP3    H126833   6.517   2.915  13.259 -1.5455 -0.3504  2.4096
 1806TIP3    H226834   6.633   2.972  13.339  1.3196  0.6581 -2.3003
 1807TIP3   OH226835   2.622   6.618  10.511 -0.2227 -0.3559  0.1199
 1807TIP3    H126836   2.623   6.697  10.458  1.2042  1.1179  2.2738
 1807TIP3    H226837   2.667   6.553  10.458 -1.0444  0.3624 -1.5055
 1808TIP3   OH226838   5.288   4.031  13.092  0.0481  0.1186 -0.4590
 1808TIP3    H126839   5.231   3.988  13.028 -1.0890  0.8015  0.0801
 1808TIP3    H226840   5.336   3.959  13.133  0.5123 -0.3531 -1.8131
 1809TIP3   OH226841   4.618   3.197  15.047  0.2836  0.3618  0.2948
 1809TIP3    H126842   4.708   3.225  15.067 -0.6186  3.5318  0.2116
 1809TIP3    H226843   4.621   3.169  14.956  1.3610 -0.3669  0.5470
 1810TIP3   OH226844   1.998   0.575   1.653  0.2351 -0.3211  0.2760
 1810TIP3    H126845   2.077   0.537   1.615  0.0655 -1.7182  1.2471
 1810TIP3    H226846   2.029   0.624   1.729  0.3304  0.4687 -0.2720
 1811TIP3   OH226847   0.450   1.836  15.272  0.3849  0.6391  0.1099
 1811TIP3    H126848   0.449   1.743  15.250 -0.5835  0.4727  0.8149
 1811TIP3    H226849   0.539   1.852  15.306  0.2076 -0.2940  1.0582
 1812TIP3   OH226850   3.787   5.390  10.323  0.3433 -0.8771  0.2484
 1812TIP3    H126851   3.710   5.361  10.274  0.1963  0.7223 -0.4904
 1812TIP3    H226852   3.842   5.311  10.329  0.0404 -1.2815 -1.8749
 1813TIP3   OH226853   4.043   5.314  13.576 -0.5274 -0.7347  0.0279
 1813TIP3    H126854   4.058   5.257  13.651 -1.1532  2.5590  2.7804
 1813TIP3    H226855   4.128   5.355  13.560 -0.8147 -0.0829  0.1348
 1814TIP3   OH226856   2.119   3.799   5.799  0.0022 -0.2564 -0.1929
 1814TIP3    H126857   2.027   3.804   5.772  0.2445 -2.3579 -1.5402
 1814TIP3    H226858   2.159   3.879   5.765 -0.6251 -0.9039 -2.5089
 1815TIP3   OH226859   1.987   1.429   2.205  0.0635  0.3024 -0.8267
 1815TIP3    H126860   1.946   1.413   2.120  0.8671 -0.6061 -1.0576
 1815TIP3    H226861   2.016   1.520   2.201 -0.7936  0.5692 -1.1389
 1816TIP3   OH226862   0.608   5.281   2.764  0.0162 -0.3758 -0.5522
 1816TIP3    H126863   0.619   5.279   2.669 -0.1165  1.6166 -0.6384
 1816TIP3    H226864   0.515   5.301   2.776  0.3962  1.1737 -0.0431
 1817TIP3   OH226865   0.279   1.629   4.735 -0.4733 -0.2747 -0.3432
 1817TIP3    H126866   0.346   1.673   4.787 -0.8248 -0.8685  0.6265
 1817TIP3    H226867   0.197   1.668   4.764 -0.8710 -2.1536  1.1623
 1818TIP3   OH226868   0.501   0.753  11.090 -0.5442  0.0507 -0.1699
 1818TIP3    H126869   0.515   0.806  11.168 -0.0473  1.0593 -0.9289
 1818TIP3    H226870   0.408   0.766  11.068  0.3212  3.2677 -2.2259
 1819TIP3   OH226871   4.733   3.608  13.790 -0.7808 -0.4040  0.3159
 1819TIP3    H126872   4.686   3.692  13.786 -1.4757 -0.8254 -0.6724
 1819TIP3    H226873   4.796   3.619  13.861 -0.9211  0.9306  0.2512
 1820TIP3   OH226874   2.032   3.740   0.249  0.2107 -0.3452  0.2878
 1820TIP3    H126875   1.949   3.788   0.252  1.0758  1.0975  1.5954
 1820TIP3    H226876   2.005   3.648   0.238 -1.6328 -0.0629  2.0412
 1821TIP3   OH226877   4.668   5.975  11.457 -0.2628 -0.0588 -0.0677
 1821TIP3    H126878   4.735   6.037  11.429 -0.8115 -0.2691 -1.8715
 1821TIP3    H226879   4.585   6.011  11.425 -0.8746 -0.4510  1.0281
 1822TIP3   OH226880   2.017   4.530   2.238 -0.3164  0.0954 -0.0396
 1822TIP3    H126881   1.973   4.451   2.206  0.2049 -0.3914  0.4405
 1822TIP3    H226882   2.107   4.502   2.255  0.1257  1.0292 -0.7950
 1823TIP3   OH226883   5.855   3.580   3.294  0.1546 -0.8455 -0.9078
 1823TIP3    H126884   5.849   3.667   3.333 -0.5240 -1.2005 -0.1943
 1823TIP3    H226885   5.949   3.561   3.291  0.1959 -0.9355  0.8345
 1824TIP3   OH226886   1.484   2.690   0.405  0.5178  0.2200 -0.1853
 1824TIP3    H126887   1.403   2.641   0.422 -0.5815  2.4116  1.0689
 1824TIP3    H226888   1.478   2.767   0.461  1.7789  2.2865 -2.7776
 1825TIP3   OH226889   2.126   3.267  13.122 -0.3947 -0.3022  0.8184
 1825TIP3    H126890   2.068   3.192  13.109  2.1526 -2.0259 -1.1343
 1825TIP3    H226891   2.204   3.246  13.071  0.3131  3.8034  0.0206
 1826TIP3   OH226892   5.779   1.077  12.790  0.2721  0.3559  0.1747
 1826TIP3    H126893   5.814   1.166  12.795  0.6051  0.3902 -2.2065
 1826TIP3    H226894   5.855   1.021  12.802  0.5236  0.4190 -1.0501
 1827TIP3   OH226895   4.875   1.324   5.675 -0.2044  0.3720 -0.1894
 1827TIP3    H126896   4.860   1.318   5.769 -2.7931 -0.9948 -0.6480
 1827TIP3    H226897   4.950   1.266   5.659 -1.6835 -1.8277  0.6425
 1828TIP3   OH226898   3.779   1.994  13.997 -0.1332  0.2267  0.3131
 1828TIP3    H126899   3.869   2.023  14.008  0.1147 -0.0156 -0.9716
 1828TIP3    H226900   3.757   1.951  14.080  0.9423  0.2299  0.6025
 1829TIP3   OH226901   3.148   2.160   6.636  0.4257 -0.0266  0.5240
 1829TIP3    H126902   3.221   2.189   6.581  0.8633 -1.2633  0.4410
 1829TIP3    H226903   3.183   2.086   6.685 -0.3945  0.1855  1.4304
 1830TIP3   OH226904   1.560   0.492  14.771  0.4210 -0.0535  0.0859
 1830TIP3    H126905   1.511   0.410  14.766  0.4050  0.0073 -0.7843
 1830TIP3    H226906   1.496   0.560  14.749  0.0554  0.3448  2.2457
 1831TIP3   OH226907   2.038   2.801  13.687  0.0875  0.0134  0.0534
 1831TIP3    H126908   2.013   2.887  13.652  0.9252  0.7395  1.1721
 1831TIP3    H226909   1.994   2.796  13.772  2.3077  0.6003  1.2871
 1832TIP3   OH226910   3.319   0.912   5.443 -0.0119  0.1835  0.5571
 1832TIP3    H126911   3.314   0.821   5.473 -1.2963  0.2270  0.4907
 1832TIP3    H226912   3.354   0.959   5.518 -3.4882  0.3411  2.2037
 1833TIP3   OH226913   4.926   1.181   5.924 -0.0902 -0.1589  0.1067
 1833TIP3    H126914   4.943   1.202   6.016  0.6582  0.5924 -0.2039
 1833TIP3    H226915   5.002   1.130   5.896  0.6759  1.3899 -0.6781
 1834TIP3   OH226916   1.532   4.569  16.789 -0.1674 -0.2404 -0.0884
 1834TIP3    H126917   1.560   4.529  16.706  2.6659  0.0849  0.6657
 1834TIP3    H226918   1.563   4.660  16.783 -1.5259  0.2745  0.5937
 1835TIP3   OH226919   4.916   6.519  15.593  0.1640  0.2756  0.5169
 1835TIP3    H126920   4.930   6.609  15.562 -0.8679 -0.0369 -0.8996
 1835TIP3    H226921   4.895   6.469  15.515 -2.2279 -0.5909  1.6618
 1836TIP3   OH226922   1.433   6.213  15.353  0.2558 -0.4244 -0.1133
 1836TIP3    H126923   1.502   6.179  15.409  1.1808  2.2951  0.4818
 1836TIP3    H226924   1.479   6.251  15.278 -0.5322  1.6284  0.3997
 1837TIP3   OH226925   0.311   6.224  14.383 -0.1299 -0.2711 -0.7721
 1837TIP3    H126926   0.232   6.170  14.382 -0.8487  0.7842 -2.0964
 1837TIP3    H226927   0.279   6.312  14.401  0.6506  0.3157 -2.1952
 1838TIP3   OH226928   2.421   4.040   1.310 -0.3762  0.3259 -0.1280
 1838TIP3    H126929   2.472   4.098   1.365 -0.9279 -0.7666  1.5782
 1838TIP3    H226930   2.486   3.993   1.257  0.4330 -1.2766  2.2348
 1839TIP3   OH226931   5.003   1.269   3.618 -0.9072  0.0497 -0.3920
 1839TIP3    H126932   4.945   1.325   3.568 -1.4331  0.0723  0.2321
 1839TIP3    H226933   4.948   1.235   3.689 -0.1877 -0.0004  0.1514
 1840TIP3   OH226934   0.487   3.665   5.109  0.2699  0.3933  0.6013
 1840TIP3    H126935   0.494   3.724   5.184 -0.1225  0.5182  0.5381
 1840TIP3    H226936   0.402   3.622   5.120 -0.5324  1.6367 -0.6631
 1841TIP3   OH226937   4.810   0.569   6.074  0.3173 -0.5173  0.2628
 1841TIP3    H126938   4.817   0.639   6.139 -0.0549  0.0891 -0.3457
 1841TIP3    H226939   4.870   0.501   6.106  2.7597  1.1667 -0.5109
 1842TIP3   OH226940   6.412   0.452  14.332  1.0294  0.1281 -0.2561
 1842TIP3    H126941   6.418   0.419  14.421  0.2952  3.0265  0.9332
 1842TIP3    H226942   6.490   0.418  14.288  2.7170  0.6979  2.2073
 1843TIP3   OH226943   2.234   6.153  16.183 -0.1667 -0.0812 -0.0250
 1843TIP3    H126944   2.143   6.124  16.181 -0.0790 -0.3414 -0.7304
 1843TIP3    H226945   2.244   6.202  16.101  0.5718 -0.8351 -0.3898
 1844TIP3   OH226946   5.741   4.093  16.646 -0.3697  0.5918  0.0593
 1844TIP3    H126947   5.670   4.153  16.671 -1.4237 -0.0755 -1.2528
 1844TIP3    H226948   5.819   4.148  16.642 -0.9127  1.4464  1.0182
 1845TIP3   OH226949   3.518   2.343  14.041 -0.0497 -0.0099  0.0842
 1845TIP3    H126950   3.594   2.320  13.988 -1.0961  1.0840 -1.9704
 1845TIP3    H226951   3.473   2.410  13.990 -1.0355  1.1906  2.4562
 1846TIP3   OH226952   0.390   0.723  16.588 -0.1719  0.4173 -0.8112
 1846TIP3    H126953   0.397   0.816  16.608  1.4297 -0.0879  1.2437
 1846TIP3    H226954   0.441   0.712  16.508 -0.3947  1.3278 -1.0774
 1847TIP3   OH226955   6.312   5.380   2.905  0.1976  0.2595  0.3807
 1847TIP3    H126956   6.393   5.427   2.927  0.7459 -0.4337 -0.1302
 1847TIP3    H226957   6.332   5.336   2.823 -1.4243  1.8117 -0.8813
 1848TIP3   OH226958   3.015   0.364  11.393 -0.5451 -0.2262  0.3176
 1848TIP3    H126959   2.935   0.345  11.343  0.4921 -1.4069 -0.9204
 1848TIP3    H226960   3.036   0.455  11.370 -0.9018 -0.2802 -0.2479
 1849TIP3   OH226961   5.176   2.759  15.617 -0.2431  0.2676 -0.0044
 1849TIP3    H126962   5.123   2.782  15.540 -0.9179  0.2439  0.4445
 1849TIP3    H226963   5.223   2.840  15.639 -0.3277  0.3767 -0.2265
 1850TIP3   OH226964   3.915   5.188   0.668  0.1421 -0.7463 -0.0220
 1850TIP3    H126965   3.975   5.200   0.595 -2.0940  1.1634 -1.6234
 1850TIP3    H226966   3.875   5.274   0.680 -1.7869 -1.8163  1.4005
 1851TIP3   OH226967   6.509   2.570  13.944  0.7730 -0.5847  0.2402
 1851TIP3    H126968   6.588   2.612  13.908  0.1830 -0.6901 -1.2236
 1851TIP3    H226969   6.468   2.638  13.997  1.7191 -0.4493  0.8223
 1852TIP3   OH226970   5.416   3.025   0.994  0.2503 -0.2193  0.2246
 1852TIP3    H126971   5.375   2.942   1.018  0.5988 -0.1590  1.0095
 1852TIP3    H226972   5.502   3.024   1.035  1.6210 -0.9313 -2.5473
 1853TIP3   OH226973   1.023   3.380   2.616  0.0463  0.1782 -0.6841
 1853TIP3    H126974   1.070   3.393   2.698  0.1669 -0.4200 -0.6597
 1853TIP3    H226975   0.937   3.421   2.631 -1.2159 -2.9415  0.9621
 1854TIP3   OH226976   2.793   2.381  11.627  0.0087 -0.3293 -0.1584
 1854TIP3    H126977   2.764   2.410  11.540 -1.3192 -1.2186 -0.0236
 1854TIP3    H226978   2.719   2.331  11.661  0.1410  0.8562  1.9129
 1855TIP3   OH226979   2.494   4.541   2.479 -0.1419 -0.0134  0.6013
 1855TIP3    H126980   2.548   4.572   2.551  0.4491  0.4039 -0.0169
 1855TIP3    H226981   2.479   4.619   2.425 -3.6300  0.5061  2.1693
 1856TIP3   OH226982   0.087   0.094  11.873 -0.0681  0.6480  0.0955
 1856TIP3    H126983   0.129   0.017  11.835  1.2302  0.5250  1.7406
 1856TIP3    H226984   0.055   0.143  11.797 -0.5967 -1.3128 -0.9857
 1857TIP3   OH226985   6.443   0.649   2.905 -0.1119  0.3156 -0.0645
 1857TIP3    H126986   6.533   0.650   2.938 -0.5956 -1.5766  1.3504
 1857TIP3    H226987   6.416   0.557   2.909 -2.5752  1.0392  0.8143
 1858TIP3   OH226988   3.586   6.411  15.599 -0.2820  0.3610  0.2507
 1858TIP3    H126989   3.528   6.451  15.663  1.5110  2.6051  0.5364
 1858TIP3    H226990   3.655   6.475  15.585  1.7494 -1.9203 -0.6256
 1859TIP3   OH226991   4.068   5.516  16.479  0.0150  0.4052 -0.6400
 1859TIP3    H126992   4.145   5.458  16.479  0.9008  1.5626 -0.1209
 1859TIP3    H226993   3.994   5.457  16.490  0.6921 -0.8975 -2.6559
 1860TIP3   OH226994   2.433   4.005  12.148  0.3506 -0.0839  0.3305
 1860TIP3    H126995   2.381   3.929  12.123  1.5470 -0.3405 -1.4463
 1860TIP3    H226996   2.435   4.002  12.244 -3.8580  0.6004  0.5487
 1861TIP3   OH226997   5.214   5.105  16.913 -0.1826 -0.5713 -0.1473
 1861TIP3    H126998   5.147   5.079  16.850 -0.1016 -0.7227 -0.1727
 1861TIP3    H226999   5.232   5.197  16.894  0.6333 -0.9058 -1.0728
 1862TIP3   OH227000   5.260   4.411  13.020 -0.4270 -0.0955  0.1433
 1862TIP3    H127001   5.274   4.370  12.935 -0.3672  0.5443 -0.1576
 1862TIP3    H227002   5.303   4.353  13.083 -1.2306 -1.0305 -0.1654
 1863TIP3   OH227003   2.004   2.942   3.982  0.3097 -0.8239 -0.0833
 1863TIP3    H127004   2.038   3.031   3.976 -1.4429 -0.2558 -2.2653
 1863TIP3    H227005   2.082   2.888   3.999  1.2614  1.1803  2.3092
 1864TIP3   OH227006   0.836   2.144   0.824 -0.0899  0.1058 -0.2159
 1864TIP3    H127007   0.876   2.078   0.881  0.2299  0.3026 -0.2127
 1864TIP3    H227008   0.835   2.224   0.877  0.6272  0.4052 -0.6423
 1865TIP3   OH227009   2.491   1.347   1.535  0.2553  0.3556  0.0691
 1865TIP3    H127010   2.466   1.330   1.626 -0.6928 -4.3256 -0.8969
 1865TIP3    H227011   2.581   1.316   1.529 -0.7154 -2.3854 -1.2408
 1866TIP3   OH227012   6.141   3.084  12.524  0.1427  0.2746 -0.4040
 1866TIP3    H127013   6.058   3.095  12.478 -0.4297  0.0495  0.5717
 1866TIP3    H227014   6.119   3.094  12.616  1.0307 -0.7446 -0.0727
 1867TIP3   OH227015   4.035   1.590   5.523  0.2911 -0.4492 -0.1449
 1867TIP3    H127016   4.054   1.539   5.445  0.5475  0.1781 -0.4977
 1867TIP3    H227017   3.939   1.593   5.527  0.2600  0.6983 -1.2307
 1868TIP3   OH227018   3.543   4.677  11.956 -0.4508  0.1486 -0.2621
 1868TIP3    H127019   3.561   4.638  11.871  1.4209 -1.9586  1.0624
 1868TIP3    H227020   3.483   4.616  11.999 -0.5674  0.6622  0.3212
 1869TIP3   OH227021   3.150   5.723   3.666  0.0748 -0.1494  0.4715
 1869TIP3    H127022   3.069   5.772   3.685 -0.0714 -0.1542 -0.1143
 1869TIP3    H227023   3.155   5.657   3.735  0.4212  0.8655  1.4325
 1870TIP3   OH227024   2.303   4.588  14.194 -0.4225  0.3523 -0.2464
 1870TIP3    H127025   2.212   4.610  14.176 -1.1536 -2.1284  0.2144
 1870TIP3    H227026   2.350   4.609  14.113 -1.6297  0.3924 -0.9393
 1871TIP3   OH227027   3.523   0.260   3.514  0.3076  0.3342  0.0952
 1871TIP3    H127028   3.594   0.244   3.575 -2.4240 -0.8452  3.1055
 1871TIP3    H227029   3.515   0.178   3.465  0.7774  0.3455 -0.0002
 1872TIP3   OH227030   3.091   4.622  16.543 -0.0078  0.1207  0.0037
 1872TIP3    H127031   3.051   4.565  16.478  0.0723  2.3051 -2.0562
 1872TIP3    H227032   3.169   4.575  16.573 -0.2576 -1.0805 -1.1948
 1873TIP3   OH227033   4.922   5.094   3.253  0.0756 -0.1437 -0.4694
 1873TIP3    H127034   4.975   5.015   3.262 -0.3594 -0.5007 -0.9525
 1873TIP3    H227035   4.906   5.124   3.342 -0.1556 -0.8754 -0.2638
 1874TIP3   OH227036   0.122   3.362  14.529  0.0005 -0.3491 -0.4975
 1874TIP3    H127037   0.165   3.340  14.613 -1.9906 -0.9679  0.3877
 1874TIP3    H227038   0.131   3.282  14.477 -1.8169 -1.2095  0.4480
 1875TIP3   OH227039   3.665   4.193  11.681 -0.1065  0.5433  0.1381
 1875TIP3    H127040   3.603   4.122  11.663 -0.0107  0.4947 -0.0002
 1875TIP3    H227041   3.615   4.273  11.668 -0.2826  0.4989  0.5362
 1876TIP3   OH227042   5.007   0.948   3.683  0.0827 -0.1653 -0.3089
 1876TIP3    H127043   5.069   0.976   3.616  0.4365  0.3467  0.2203
 1876TIP3    H227044   4.966   1.029   3.713  1.1531 -0.1770  1.2722
 1877TIP3   OH227045   0.246   5.192  12.940  0.0010 -0.3081  0.2638
 1877TIP3    H127046   0.283   5.162  13.023 -2.0548 -2.0733  0.5929
 1877TIP3    H227047   0.259   5.118  12.880  0.9204  0.7198 -0.8290
 1878TIP3   OH227048   1.631   2.160  12.779 -0.4014 -0.3602  0.0123
 1878TIP3    H127049   1.642   2.234  12.840  2.3238 -0.5234 -0.2253
 1878TIP3    H227050   1.657   2.083  12.829 -0.5455 -0.8110 -0.5964
 1879TIP3   OH227051   5.924   3.508   1.063  0.0898  0.2566 -0.1326
 1879TIP3    H127052   6.015   3.496   1.035  0.3755 -0.0764  0.9347
 1879TIP3    H227053   5.874   3.506   0.981  0.9759 -0.1805 -0.6752
 1880TIP3   OH227054   4.695   3.905   0.560  0.5274  0.6882  0.0614
 1880TIP3    H127055   4.721   3.814   0.549 -2.2379  0.0485 -2.0077
 1880TIP3    H227056   4.667   3.912   0.651 -0.5520 -0.9295 -0.1297
 1881TIP3   OH227057   3.724   5.397   3.650 -0.1964 -0.9339 -0.1107
 1881TIP3    H127058   3.750   5.482   3.685 -0.0457 -1.1921  0.4214
 1881TIP3    H227059   3.728   5.408   3.555 -0.8588 -0.1480 -0.0502
 1882TIP3   OH227060   0.122   2.748   4.664 -0.5482  0.6683 -0.7339
 1882TIP3    H127061   0.069   2.733   4.742 -0.2773 -0.2056 -0.7095
 1882TIP3    H227062   0.148   2.840   4.670  2.7725 -0.3153  2.3253
 1883TIP3   OH227063   0.406   5.347  13.409  0.5680  0.3997  0.1694
 1883TIP3    H127064   0.499   5.335  13.394  0.7645  1.8357  0.2128
 1883TIP3    H227065   0.393   5.442  13.407 -1.1940  0.1720 -1.7722
 1884TIP3   OH227066   0.293   2.036  11.754  0.3766  0.4846 -0.1411
 1884TIP3    H127067   0.214   2.059  11.803 -1.1552 -1.4234 -1.6248
 1884TIP3    H227068   0.347   1.988  11.817 -0.9724 -0.7680  0.1031
 1885TIP3   OH227069   3.704   6.620   1.700 -0.1518 -0.4535  0.8105
 1885TIP3    H127070   3.751   6.671   1.635  3.9007 -3.7708  0.9448
 1885TIP3    H227071   3.666   6.548   1.650  0.2748 -1.2511  1.6319
 1886TIP3   OH227072   3.138   1.973  11.522 -0.0663  0.0652  0.9618
 1886TIP3    H127073   3.047   1.949  11.539 -0.2491  0.8409  1.1159
 1886TIP3    H227074   3.132   2.061  11.482  0.6709  0.5581  1.9197
 1887TIP3   OH227075   5.808   4.529   1.589  0.5420  0.7369  0.4018
 1887TIP3    H127076   5.795   4.511   1.496  1.4895  0.4345  0.3174
 1887TIP3    H227077   5.895   4.570   1.593  0.1398  1.5261  1.0567
 1888TIP3   OH227078   2.141   4.059   2.320 -0.5216 -0.3271  0.4665
 1888TIP3    H127079   2.192   3.981   2.297 -0.4498 -0.2910  0.5005
 1888TIP3    H227080   2.203   4.132   2.308  0.1409 -0.4743  2.7739
 1889TIP3   OH227081   4.924   2.651  16.939  0.3544  0.3968 -0.4398
 1889TIP3    H127082   5.007   2.689  16.969  0.8975  1.1189 -2.7250
 1889TIP3    H227083   4.932   2.558  16.960  1.6164  0.5102 -0.3361
 1890TIP3   OH227084   5.051   5.512   0.992  0.3991  0.3311 -0.0296
 1890TIP3    H127085   5.102   5.541   1.067 -0.6561  0.3651  0.6925
 1890TIP3    H227086   5.084   5.424   0.973  1.2230  0.6381 -0.0357
 1891TIP3   OH227087   0.221   6.720  13.989 -0.1218  0.1504  0.0242
 1891TIP3    H127088   0.295   6.772  13.958  0.1690 -1.3485 -1.8442
 1891TIP3    H227089   0.247   6.692  14.077  2.1277 -1.3975 -1.0645
 1892TIP3   OH227090   6.104   1.882  12.340  0.2612  0.2235  0.2719
 1892TIP3    H127091   6.175   1.903  12.401 -1.5213  2.9006  1.5175
 1892TIP3    H227092   6.043   1.829  12.391 -1.5518  3.0044  1.1351
 1893TIP3   OH227093   6.702   5.820   3.825 -0.4232  0.0267 -0.2924
 1893TIP3    H127094   6.739   5.894   3.873 -0.6894  1.3678 -2.1157
 1893TIP3    H227095   6.620   5.801   3.872 -1.1161  1.8830 -0.6720
 1894TIP3   OH227096   1.338   5.279  16.211  0.2126 -0.1196  0.4361
 1894TIP3    H127097   1.353   5.184  16.215  2.2019  0.0527 -2.0780
 1894TIP3    H227098   1.316   5.296  16.119 -5.5940  1.1659  1.8460
 1895TIP3   OH227099   1.395   4.178  13.229  0.2677 -0.3209 -0.0666
 1895TIP3    H127100   1.391   4.161  13.135  0.8809 -2.3345  0.2536
 1895TIP3    H227101   1.304   4.175  13.258  0.2027 -1.2370 -0.3443
 1896TIP3   OH227102   0.613   2.972   5.374 -0.0659 -0.5552  0.1607
 1896TIP3    H127103   0.675   3.003   5.308  0.8561 -1.6428  0.5006
 1896TIP3    H227104   0.575   3.052   5.411  0.9766  0.1170 -0.2044
 1897TIP3   OH227105   3.715   0.251   3.775  0.1098 -0.0277 -0.6434
 1897TIP3    H127106   3.800   0.292   3.789 -0.5831  1.4791 -0.6510
 1897TIP3    H227107   3.658   0.292   3.841 -0.5996 -1.0213 -0.6290
 1898TIP3   OH227108   3.640   5.286  13.873  0.1878 -0.2416  0.2022
 1898TIP3    H127109   3.726   5.327  13.883 -0.0067  0.1529  0.2510
 1898TIP3    H227110   3.611   5.311  13.786 -0.3483  0.5129  0.5948
 1899TIP3   OH227111   4.811   1.940  11.823 -0.0318  0.0198  0.0870
 1899TIP3    H127112   4.804   1.855  11.780 -0.2922  0.7796 -1.4030
 1899TIP3    H227113   4.740   1.992  11.786  1.6812  1.6882 -0.9440
 1900TIP3   OH227114   4.389   1.197  13.118  0.0328 -0.3352 -0.2146
 1900TIP3    H127115   4.328   1.270  13.126  1.3969  0.7851  0.0471
 1900TIP3    H227116   4.389   1.156  13.205  1.3822  1.0704  0.4760
 1901TIP3   OH227117   0.812   3.118   3.018  0.2063  0.0904 -0.1509
 1901TIP3    H127118   0.739   3.127   2.957 -0.4206  2.8667  0.9759
 1901TIP3    H227119   0.887   3.152   2.969  0.1485  0.1980 -0.1639
 1902TIP3   OH227120   5.283   3.019  11.437  0.0263  0.3820 -0.4844
 1902TIP3    H127121   5.326   2.965  11.370  2.1752  0.6876  0.5870
 1902TIP3    H227122   5.271   2.960  11.511 -1.2278  0.3592 -0.7049
 1903TIP3   OH227123   0.820   6.447   4.828  0.0648 -0.6686  0.0286
 1903TIP3    H127124   0.750   6.477   4.770 -0.3341 -0.4328  0.6213
 1903TIP3    H227125   0.895   6.431   4.770 -0.5364 -1.1095 -0.6312
 1904TIP3   OH227126   1.874   6.089   0.318 -0.2478 -0.0378 -0.0766
 1904TIP3    H127127   1.785   6.120   0.301  0.3185  1.0480 -1.1779
 1904TIP3    H227128   1.889   6.021   0.252 -0.2229 -0.1337  0.0276
 1905TIP3   OH227129   1.830   2.530   3.256 -0.3471 -0.4111 -0.0422
 1905TIP3    H127130   1.786   2.448   3.278 -0.9385 -0.6849 -2.1510
 1905TIP3    H227131   1.913   2.526   3.304 -0.9611 -1.6309  0.9392
 1906TIP3   OH227132   3.457   1.454   5.895 -0.5389  0.2761  0.1883
 1906TIP3    H127133   3.395   1.436   5.966  0.8663  1.1833  1.6991
 1906TIP3    H227134   3.441   1.546   5.873 -0.8751  0.0341 -0.5739
 1907TIP3   OH227135   0.894   5.372  13.186 -0.6152 -0.1153  0.0507
 1907TIP3    H127136   0.957   5.387  13.115 -0.6220 -1.5917 -0.2918
 1907TIP3    H227137   0.853   5.457  13.201  0.6714  0.6065 -0.4881
 1908TIP3   OH227138   0.548   4.296  14.384  0.2479  0.0865  0.3552
 1908TIP3    H127139   0.581   4.370  14.436 -1.4265  1.0589  0.0585
 1908TIP3    H227140   0.606   4.293  14.308 -0.0856  1.5280  0.0346
 1909TIP3   OH227141   1.355   6.056   3.781  0.6017  0.1068 -0.3287
 1909TIP3    H127142   1.431   5.998   3.788 -0.7843 -1.8042 -0.8556
 1909TIP3    H227143   1.280   6.000   3.796 -0.7595  1.8726 -0.3659
 1910TIP3   OH227144   6.244   6.495   1.335  0.0536 -0.2263  0.2760
 1910TIP3    H127145   6.177   6.537   1.388 -2.1930 -2.2860 -0.8241
 1910TIP3    H227146   6.325   6.510   1.382 -1.6452 -0.5588  3.4378
 1911TIP3   OH227147   4.659   6.536  17.070  0.0726 -0.4877 -0.1374
 1911TIP3    H127148   4.706   6.474  17.126  0.4916 -0.0637 -0.0182
 1911TIP3    H227149   4.583   6.487  17.039  0.0780 -0.8697  0.4411
 1912TIP3   OH227150   0.409   0.599   3.374  0.2281  0.3465  0.2981
 1912TIP3    H127151   0.498   0.583   3.343  0.3698 -0.3621  1.0616
 1912TIP3    H227152   0.375   0.667   3.316  1.3726  0.8349  0.2059
 1913TIP3   OH227153   6.399   1.412   3.624  0.0423  0.2952  0.1702
 1913TIP3    H127154   6.401   1.472   3.699 -1.4239 -1.1194  1.3823
 1913TIP3    H227155   6.467   1.348   3.644  0.6543  0.7529 -0.4387
 1914TIP3   OH227156   5.056   2.556  14.724 -0.3670 -0.2002 -0.0525
 1914TIP3    H127157   5.042   2.588  14.813  1.3734  0.9308 -0.1697
 1914TIP3    H227158   4.984   2.495  14.709 -0.7518 -0.3043  2.0825
 1915TIP3   OH227159   2.987   1.475  15.321  0.7602 -0.0087 -0.4865
 1915TIP3    H127160   2.974   1.423  15.401 -1.0340  2.4499  0.8827
 1915TIP3    H227161   3.063   1.530  15.339 -1.7254  3.0861  0.9828
 1916TIP3   OH227162   1.796   0.846   3.955 -0.3385 -0.4639 -0.0616
 1916TIP3    H127163   1.833   0.757   3.956 -0.2327 -0.4223 -0.2920
 1916TIP3    H227164   1.822   0.884   4.039  0.1411 -0.4344 -0.2212
 1917TIP3   OH227165   2.679   4.670   6.789  0.1168  0.5021  0.4787
 1917TIP3    H127166   2.769   4.662   6.757 -0.5138  3.6377 -2.3894
 1917TIP3    H227167   2.638   4.587   6.765  1.6034 -0.0027 -0.4317
 1918TIP3   OH227168   5.813   4.282  13.250  0.2648  0.5085 -0.4648
 1918TIP3    H127169   5.888   4.335  13.280  0.1284  0.2605  0.3303
 1918TIP3    H227170   5.830   4.195  13.285 -0.3058  0.4096 -0.4331
 1919TIP3   OH227171   0.536   2.881   4.978 -0.0358  0.0331 -0.3065
 1919TIP3    H127172   0.523   2.795   4.937  1.2496  0.1818 -1.0437
 1919TIP3    H227173   0.539   2.942   4.905  2.7293  0.2486 -0.0736
 1920TIP3   OH227174   3.158   4.366   0.974 -0.1246 -0.1414  0.3824
 1920TIP3    H127175   3.224   4.435   0.969  0.0128 -0.3450 -0.7094
 1920TIP3    H227176   3.145   4.339   0.883 -0.9249 -0.8465  0.7036
 1921TIP3   OH227177   0.638   1.066  15.400  0.1380  0.0418 -0.0915
 1921TIP3    H127178   0.574   1.100  15.462  2.2817 -0.3316  2.4305
 1921TIP3    H227179   0.635   0.971  15.411  0.4348 -0.0397 -0.6812
 1922TIP3   OH227180   6.310   6.119  12.309 -0.6961  0.0614  0.2566
 1922TIP3    H127181   6.344   6.198  12.350 -0.4951 -1.2014  2.6440
 1922TIP3    H227182   6.355   6.114  12.225  1.2978  1.0601  1.2334
 1923TIP3   OH227183   2.667   4.059  11.990 -0.2349  0.5688  0.3216
 1923TIP3    H127184   2.592   4.040  12.047 -0.3053 -0.6764 -0.1674
 1923TIP3    H227185   2.632   4.116  11.923 -0.5926  0.5281  0.4713
 1924TIP3   OH227186   3.181   2.682   4.325 -0.5289 -0.4798  0.0280
 1924TIP3    H127187   3.159   2.591   4.343  1.5072 -1.1924 -0.9424
 1924TIP3    H227188   3.160   2.693   4.232  0.0750 -0.2043 -0.0730
 1925TIP3   OH227189   2.255   1.517  12.706  0.0972 -0.0260  0.2060
 1925TIP3    H127190   2.170   1.474  12.708 -0.0507  0.3226  3.1069
 1925TIP3    H227191   2.310   1.465  12.764  0.9653  1.5372  0.8229
 1926TIP3   OH227192   3.444   1.246   3.536  0.0212  0.2359  0.2070
 1926TIP3    H127193   3.434   1.267   3.443 -0.8132  0.0304  0.2482
 1926TIP3    H227194   3.356   1.250   3.572  0.2125 -0.6338  0.8016
 1927TIP3   OH227195   5.289   4.721  11.414  0.2333 -0.1194 -0.8532
 1927TIP3    H127196   5.216   4.770  11.451 -0.0710 -0.0203 -1.5750
 1927TIP3    H227197   5.366   4.774  11.433 -0.0360  0.4013 -1.2114
 1928TIP3   OH227198   1.304   1.118  11.574 -0.0003 -0.1120 -0.1692
 1928TIP3    H127199   1.224   1.138  11.525  0.3260  0.0850 -0.6270
 1928TIP3    H227200   1.275   1.064  11.647 -0.6265  0.4120 -0.0283
 1929TIP3   OH227201   6.621   3.183   3.703  0.8410  0.1769  0.4593
 1929TIP3    H127202   6.573   3.138   3.634 -1.5851  2.6721  0.4246
 1929TIP3    H227203   6.710   3.192   3.669  0.3352 -0.9150 -1.2086
 1930TIP3   OH227204   0.667   3.155   0.290  0.8524 -0.4645 -0.2714
 1930TIP3    H127205   0.589   3.147   0.345  0.8929 -1.0523 -0.2984
 1930TIP3    H227206   0.673   3.248   0.270 -0.9529 -0.6733 -1.8865
 1931TIP3   OH227207   6.606   5.151  13.400  0.1652  0.1329  0.2176
 1931TIP3    H127208   6.532   5.117  13.451 -0.6178 -1.1888 -1.7362
 1931TIP3    H227209   6.565   5.192  13.324  1.4563 -0.9661 -1.0859
 1932TIP3   OH227210   2.892   4.521  16.705  0.1922  0.1276 -0.5468
 1932TIP3    H127211   2.938   4.595  16.665 -0.2546  0.5008 -0.3741
 1932TIP3    H227212   2.917   4.524  16.797  1.0140 -0.5754 -0.7441
 1933TIP3   OH227213   3.709   6.495   6.678  0.0684  0.2738 -0.0898
 1933TIP3    H127214   3.767   6.571   6.684 -1.3800  1.4224 -0.1517
 1933TIP3    H227215   3.733   6.440   6.751  1.4832  0.5608 -0.3302
 1934TIP3   OH227216   6.579   3.663   1.528  0.3449  0.1929 -0.1742
 1934TIP3    H127217   6.630   3.651   1.608  1.5046 -0.9151 -1.0500
 1934TIP3    H227218   6.644   3.657   1.457 -0.7276  0.7092 -1.2188
 1935TIP3   OH227219   4.326   2.602  11.469  0.1481  0.1588 -0.5615
 1935TIP3    H127220   4.349   2.656  11.393 -1.3564  3.0818  0.9547
 1935TIP3    H227221   4.391   2.626  11.535 -1.0904  0.8357  0.4302
 1936TIP3   OH227222   1.580   6.010   3.452  0.1647  0.0061 -0.4384
 1936TIP3    H127223   1.558   5.918   3.437 -0.3727  0.0853 -0.1518
 1936TIP3    H227224   1.637   6.033   3.379  0.6558 -0.6770 -0.2824
 1937TIP3   OH227225   5.060   2.723   0.731 -0.0603 -0.3660 -0.1805
 1937TIP3    H127226   5.096   2.742   0.818  0.2693  1.4933 -0.7032
 1937TIP3    H227227   4.966   2.738   0.741 -0.1527 -1.1056  0.0976
 1938TIP3   OH227228   6.183   0.184  14.872  0.1556  0.2145  0.0314
 1938TIP3    H127229   6.150   0.187  14.962  0.6704  0.9136  0.2050
 1938TIP3    H227230   6.265   0.233  14.875 -0.5400  1.4784 -1.1267
 1939TIP3   OH227231   5.402   3.686  16.646 -0.7852 -0.2781 -0.4307
 1939TIP3    H127232   5.472   3.626  16.620  1.6992  1.0667  2.8413
 1939TIP3    H227233   5.429   3.771  16.613 -3.3853 -0.4961 -3.3962
 1940TIP3   OH227234   6.348   1.792   6.527 -0.0293  0.5199 -0.0679
 1940TIP3    H127235   6.344   1.709   6.479  1.4744  0.5587 -0.2566
 1940TIP3    H227236   6.410   1.846   6.478 -0.9519  1.7625  0.0777
 1941TIP3   OH227237   5.972   3.071  15.559 -0.1319  0.0552 -0.0046
 1941TIP3    H127238   6.047   3.072  15.499 -1.1324 -2.4186 -1.4188
 1941TIP3    H227239   6.001   3.018  15.633 -0.4942 -0.9834 -0.5963
 1942TIP3   OH227240   2.484   3.158   1.588 -0.3452 -0.2863  0.2841
 1942TIP3    H127241   2.422   3.177   1.518  0.4296  0.0702 -0.3133
 1942TIP3    H227242   2.511   3.067   1.573  0.5221  0.0845 -0.4341
 1943TIP3   OH227243   2.992   4.168   5.031  0.1092  0.3851 -0.2752
 1943TIP3    H127244   2.919   4.116   4.997 -0.6567  0.4694  1.2037
 1943TIP3    H227245   3.068   4.111   5.023 -0.5203 -0.5422  0.2617
 1944TIP3   OH227246   1.697   2.476  15.281 -0.1579  0.1828 -0.7183
 1944TIP3    H127247   1.603   2.462  15.286 -0.0615 -0.9157 -1.8396
 1944TIP3    H227248   1.735   2.399  15.324  0.2131  1.5144  1.4363
 1945TIP3   OH227249   3.904   3.747   3.264  0.1934  0.0592 -0.1461
 1945TIP3    H127250   3.879   3.692   3.339 -1.9540  0.6955 -0.3565
 1945TIP3    H227251   3.860   3.706   3.190  1.3304  0.1383 -0.8714
 1946TIP3   OH227252   1.656   0.235  14.994  0.4287 -0.3140 -0.1960
 1946TIP3    H127253   1.667   0.169  14.925 -0.7019 -0.3725 -0.3259
 1946TIP3    H227254   1.629   0.185  15.071 -0.1093 -0.0339 -0.2050
 1947TIP3   OH227255   2.033   3.758   2.823  0.4547 -0.1853  0.0835
 1947TIP3    H127256   2.030   3.792   2.912 -0.3353 -3.1269  1.2487
 1947TIP3    H227257   2.059   3.833   2.769  2.1301  1.3517  2.9163
 1948TIP3   OH227258   5.108   5.241   1.748 -0.1923  0.0908  0.1247
 1948TIP3    H127259   5.032   5.225   1.691 -0.5410  2.1857 -0.0310
 1948TIP3    H227260   5.164   5.165   1.734 -1.8482 -1.0784 -0.4280
 1949TIP3   OH227261   5.634   2.025   2.268 -0.6321  0.5734 -0.6943
 1949TIP3    H127262   5.598   1.948   2.224 -1.2296  1.1569 -1.2393
 1949TIP3    H227263   5.557   2.074   2.297 -0.2669  1.3720 -1.0718
 1950TIP3   OH227264   0.800   0.498  15.085 -0.0811 -0.2231  0.7337
 1950TIP3    H127265   0.772   0.587  15.060 -0.7054 -0.5263  0.3288
 1950TIP3    H227266   0.763   0.485  15.172  0.3074  0.0475  0.9398
 1951TIP3   OH227267   3.768   3.162   2.661  0.0215  0.2023  0.0842
 1951TIP3    H127268   3.802   3.244   2.626 -1.4543  0.6472 -0.3311
 1951TIP3    H227269   3.726   3.120   2.586 -1.3448  0.1936  0.8505
 1952TIP3   OH227270   4.144   1.782  12.522 -0.2579 -0.2384 -0.1618
 1952TIP3    H127271   4.061   1.788  12.474 -0.7766 -1.7657  0.5115
 1952TIP3    H227272   4.209   1.815  12.460 -1.1326 -0.7087 -1.3672
 1953TIP3   OH227273   6.195   0.187   3.471 -0.2953 -0.7907  0.3466
 1953TIP3    H127274   6.157   0.142   3.547 -0.5603 -1.9077 -0.4390
 1953TIP3    H227275   6.128   0.178   3.403  0.7035 -1.3734 -0.5647
 1954TIP3   OH227276   1.133   6.420  16.904 -0.0389 -0.5284  0.4055
 1954TIP3    H127277   1.123   6.514  16.921  1.8977 -0.6551  2.5108
 1954TIP3    H227278   1.166   6.384  16.986  0.8613 -2.7863 -0.8887
 1955TIP3   OH227279   1.040   2.482   1.250 -0.7355 -0.1381  0.5127
 1955TIP3    H127280   0.961   2.429   1.261 -1.0613 -0.2263 -2.0205
 1955TIP3    H227281   1.029   2.523   1.165  2.0855 -0.3499  0.0189
 1956TIP3   OH227282   0.342   1.599  14.430  0.6681 -0.5136 -0.2979
 1956TIP3    H127283   0.378   1.603  14.519  0.1784  0.0756 -0.1157
 1956TIP3    H227284   0.340   1.506  14.409 -0.8302 -0.8188  1.0084
 1957TIP3   OH227285   2.297   3.400  14.271  0.6784 -0.8680 -0.1924
 1957TIP3    H127286   2.294   3.455  14.350  1.6140  0.1199 -0.8148
 1957TIP3    H227287   2.388   3.407  14.241  0.2358 -0.8843 -1.5878
 1958TIP3   OH227288   1.534   3.790   3.313  0.0353  0.1986 -0.0372
 1958TIP3    H127289   1.589   3.778   3.235  3.0302  0.5128  1.9593
 1958TIP3    H227290   1.527   3.885   3.322 -0.0313  0.1638  0.2696
 1959TIP3   OH227291   2.398   3.522   1.815  0.3978  0.2797 -0.3026
 1959TIP3    H127292   2.470   3.552   1.759  2.4008 -0.0248  2.0113
 1959TIP3    H227293   2.338   3.596   1.820  1.0139  0.8695 -1.5135
 1960TIP3   OH227294   1.647   2.148  16.605 -0.0242 -0.4428 -0.3837
 1960TIP3    H127295   1.578   2.147  16.539 -3.6336  0.2554  3.1834
 1960TIP3    H227296   1.631   2.070  16.658  1.8245 -0.1709  0.6226
 1961TIP3   OH227297   2.600   3.240   2.188  0.5399  0.4430 -0.2694
 1961TIP3    H127298   2.521   3.281   2.153 -0.0497 -0.7549 -0.3692
 1961TIP3    H227299   2.621   3.290   2.267  0.2224  1.3458 -0.7564
 1962TIP3   OH227300   2.117   0.923  13.146  0.2249  0.0754  0.3109
 1962TIP3    H127301   2.105   0.896  13.238 -0.1493  0.3107  0.3313
 1962TIP3    H227302   2.180   0.994  13.150  0.1316  0.1541  0.3987
 1963TIP3   OH227303   2.851   1.703   5.980 -0.2816 -0.3386 -0.3850
 1963TIP3    H127304   2.944   1.705   6.002 -0.7728  1.3043  1.6846
 1963TIP3    H227305   2.839   1.778   5.921 -0.4331 -0.0629 -0.0076
 1964TIP3   OH227306   5.148   3.039   0.775  0.7668 -0.1228  0.3818
 1964TIP3    H127307   5.169   2.984   0.850  1.6777 -0.0179  0.2130
 1964TIP3    H227308   5.052   3.046   0.776  0.7577 -0.2976  1.4003
 1965TIP3   OH227309   3.335   6.706  10.802  0.3413 -0.2575  0.1351
 1965TIP3    H127310   3.416   6.742  10.765 -0.4097  3.4799  1.8167
 1965TIP3    H227311   3.266   6.745  10.748 -0.4046 -2.5313 -0.5850
 1966TIP3   OH227312   3.192   4.913  15.153  0.2482 -0.4675 -0.2932
 1966TIP3    H127313   3.164   5.002  15.173  0.6527 -0.4118  0.0212
 1966TIP3    H227314   3.123   4.857  15.189  1.1498 -0.3858  1.5598
 1967TIP3   OH227315   4.103   1.054   3.741  0.4034  0.1393 -0.0485
 1967TIP3    H127316   4.091   1.094   3.655  1.1833  0.3119 -0.0800
 1967TIP3    H227317   4.117   1.128   3.800 -2.6767  0.2006  0.6838
 1968TIP3   OH227318   1.863   6.042   5.070 -0.3129  0.2806 -0.4565
 1968TIP3    H127319   1.879   6.112   5.007  0.4287 -0.5251 -1.1772
 1968TIP3    H227320   1.937   5.982   5.058  2.3769  2.3432  4.3014
 1969TIP3   OH227321   2.809   3.305   5.879 -0.1403 -0.0291  0.0560
 1969TIP3    H127322   2.720   3.340   5.888 -0.6336 -1.4889  1.0229
 1969TIP3    H227323   2.863   3.362   5.934 -0.3488  1.2775 -1.0663
 1970TIP3   OH227324   1.965   6.437   1.086  0.1138 -0.6918 -0.1606
 1970TIP3    H127325   1.969   6.532   1.083  1.1887 -0.7708 -2.3312
 1970TIP3    H227326   1.872   6.417   1.099 -0.4529  0.6454 -1.9962
 1971TIP3   OH227327   2.263   3.894  13.226  0.1251 -0.1938 -0.0627
 1971TIP3    H127328   2.228   3.811  13.258 -1.6599  0.8921  0.8866
 1971TIP3    H227329   2.335   3.914  13.286 -0.2321 -0.4619  0.4652
 1972TIP3   OH227330   3.225   2.127   3.093 -0.2218 -0.1487 -0.2358
 1972TIP3    H127331   3.213   2.039   3.128 -0.6266 -0.3713 -0.9103
 1972TIP3    H227332   3.259   2.113   3.005 -1.0101  0.3378 -0.6287
 1973TIP3   OH227333   6.626   6.059  12.135 -0.3170 -0.4354 -0.7084
 1973TIP3    H127334   6.592   6.145  12.158  2.0853  0.8064 -1.5582
 1973TIP3    H227335   6.679   6.033  12.211 -0.2656 -0.7272 -0.8411
 1974TIP3   OH227336   5.501   4.073   1.747 -0.1104 -0.2308 -0.5663
 1974TIP3    H127337   5.524   4.027   1.828 -2.3205  0.2711  0.3832
 1974TIP3    H227338   5.565   4.144   1.741  0.7020 -0.8756  0.1746
 1975TIP3   OH227339   0.385   2.042  12.628 -0.1619 -1.1088  0.2070
 1975TIP3    H127340   0.474   2.051  12.594 -0.9037 -1.5368 -1.9375
 1975TIP3    H227341   0.391   1.972  12.694  0.9963 -1.4766 -0.2892
 1976TIP3   OH227342   3.203   6.310  14.283 -0.0718 -0.3654 -0.8093
 1976TIP3    H127343   3.151   6.230  14.284  1.0282 -1.0820 -0.5230
 1976TIP3    H227344   3.231   6.320  14.192 -0.2260 -0.2891 -0.8478
 1977TIP3   OH227345   3.849   6.741   2.143 -0.0093 -0.0965 -0.1161
 1977TIP3    H127346   3.765   6.783   2.163 -0.7278 -1.1112 -0.9682
 1977TIP3    H227347   3.874   6.777   2.058 -0.1686 -0.6807 -0.4137
 1978TIP3   OH227348   1.730   5.241  13.515 -0.5710  0.0221  0.2868
 1978TIP3    H127349   1.806   5.197  13.554  0.2320  1.0744 -0.0715
 1978TIP3    H227350   1.738   5.223  13.422 -0.3268  0.7792  0.1584
 1979TIP3   OH227351   1.339   2.307   3.224  0.7325  0.0441 -0.4274
 1979TIP3    H127352   1.248   2.280   3.234  0.6680 -0.6597 -2.5466
 1979TIP3    H227353   1.367   2.330   3.312 -0.1982 -3.8724  1.0383
 1980TIP3   OH227354   5.627   1.994   4.330 -0.0605 -0.2998  0.3178
 1980TIP3    H127355   5.707   2.047   4.327 -0.8980  1.0990  1.8403
 1980TIP3    H227356   5.556   2.058   4.322 -1.1081 -1.1267  2.5237
 1981TIP3   OH227357   3.606   0.189  10.950 -0.1294 -0.2921  0.5869
 1981TIP3    H127358   3.570   0.240  10.878  0.9032  0.5363  0.6399
 1981TIP3    H227359   3.681   0.240  10.981  0.1062 -1.1768  1.5272
 1982TIP3   OH227360   4.740   5.578   1.470  0.0218  0.2923 -0.0132
 1982TIP3    H127361   4.729   5.672   1.453 -1.5249  0.0033 -0.7312
 1982TIP3    H227362   4.764   5.541   1.385  0.7501  0.0424  0.2939
 1983TIP3   OH227363   2.864   4.180   3.796  0.0793  0.3253 -0.1542
 1983TIP3    H127364   2.862   4.241   3.870  0.7885 -1.2653  1.2002
 1983TIP3    H227365   2.844   4.235   3.720  3.0585  2.7541  0.6865
 1984TIP3   OH227366   3.258   4.369   4.423 -0.4516  0.0340 -0.2239
 1984TIP3    H127367   3.174   4.359   4.379 -0.3689  0.0840 -0.3960
 1984TIP3    H227368   3.240   4.427   4.497 -0.4853  0.3749 -0.4971
 1985TIP3   OH227369   5.559   3.273   5.052 -0.5637  0.5274 -0.1075
 1985TIP3    H127370   5.618   3.348   5.051 -1.2876  1.1810  2.6537
 1985TIP3    H227371   5.608   3.203   5.007  1.0749  1.9124 -0.5233
 1986TIP3   OH227372   5.184   3.005   5.377  0.5151 -0.6026  0.0425
 1986TIP3    H127373   5.097   3.040   5.399  0.4778 -1.2230  0.8867
 1986TIP3    H227374   5.201   3.040   5.289 -1.8952 -2.8874 -1.4265
 1987TIP3   OH227375   0.952   0.579  13.500  0.0467 -0.0617  0.4016
 1987TIP3    H127376   0.961   0.529  13.581  0.7695  0.0060  0.3654
 1987TIP3    H227377   1.034   0.627  13.491 -1.1693  2.2186  1.1386
 1988TIP3   OH227378   5.864   5.223   0.245 -0.0342 -0.1748  0.1181
 1988TIP3    H127379   5.792   5.197   0.189  0.3365  1.4226 -1.1139
 1988TIP3    H227380   5.937   5.239   0.186  0.3856  1.4585  1.0311
 1989TIP3   OH227381   2.686   2.379  15.381 -0.1460 -0.4414  0.3891
 1989TIP3    H127382   2.709   2.296  15.423 -1.4948 -0.6884  0.6528
 1989TIP3    H227383   2.667   2.438  15.453  0.5219  0.0211  0.1928
 1990TIP3   OH227384   3.247   6.298   2.424  0.3068 -0.0449  0.2939
 1990TIP3    H127385   3.193   6.286   2.503 -0.2724 -0.3206 -0.1392
 1990TIP3    H227386   3.275   6.389   2.429 -1.0440  0.4070  0.0052
 1991TIP3   OH227387   5.189   0.939  16.104 -0.5169  0.5584  0.3697
 1991TIP3    H127388   5.244   0.922  16.027 -0.6263  2.4093 -0.1647
 1991TIP3    H227389   5.188   1.035  16.110 -3.1367  0.5255  0.7624
 1992TIP3   OH227390   4.428   0.754   5.259  0.0304  0.1686 -0.1919
 1992TIP3    H127391   4.498   0.765   5.324 -1.1750  2.6179  0.7698
 1992TIP3    H227392   4.411   0.660   5.258  1.3995 -0.1293  1.6490
 1993TIP3   OH227393   1.935   5.352   1.441  0.2525  0.2394 -0.0630
 1993TIP3    H127394   1.855   5.402   1.422 -0.2099  0.0852  1.3985
 1993TIP3    H227395   1.908   5.261   1.437  0.6604  0.1502 -0.8449
 1994TIP3   OH227396   3.650   3.859   1.923  0.3436  0.2262  0.3162
 1994TIP3    H127397   3.659   3.801   1.998  0.3967  0.4026  0.4467
 1994TIP3    H227398   3.558   3.886   1.925 -0.2477 -1.5935 -1.0297
 1995TIP3   OH227399   2.313   0.520  16.044 -0.0473  0.8442  0.2240
 1995TIP3    H127400   2.395   0.504  16.090 -0.4078  2.5345  1.4948
 1995TIP3    H227401   2.264   0.438  16.054  0.7337  0.4555  1.0096
 1996TIP3   OH227402   3.390   2.305   2.178 -0.2566 -0.5499 -0.6492
 1996TIP3    H127403   3.336   2.276   2.252 -0.2748  0.5286 -0.2355
 1996TIP3    H227404   3.341   2.278   2.100 -1.9530  1.3587 -0.2879
 1997TIP3   OH227405   3.820   3.810  12.101  0.8290 -0.2019  0.1434
 1997TIP3    H127406   3.775   3.858  12.032  0.3825  0.7238  1.0628
 1997TIP3    H227407   3.841   3.725  12.062  0.6962  0.3578 -1.1588
 1998TIP3   OH227408   0.683   0.662  13.014 -0.1188  0.3106  0.6157
 1998TIP3    H127409   0.695   0.753  12.985  0.3747  0.0794  0.0972
 1998TIP3    H227410   0.751   0.649  13.080 -0.3417  0.3928  0.8611
 1999TIP3   OH227411   3.704   4.826  13.554  0.4957 -0.8929 -0.5553
 1999TIP3    H127412   3.767   4.819  13.626 -0.3049  2.1888  0.5193
 1999TIP3    H227413   3.620   4.804  13.594  0.4560 -2.1839 -1.3156
 2000TIP3   OH227414   0.564   4.776   5.160 -0.1986  0.4599  0.2087
 2000TIP3    H127415   0.487   4.776   5.103 -0.1786 -1.1816  0.1442
 2000TIP3    H227416   0.607   4.860   5.143 -1.8282  1.2902  0.0645
 2001TIP3   OH227417   3.755   0.926  13.039 -0.6029  0.2858 -0.1747
 2001TIP3    H127418   3.707   1.008  13.050 -0.3919  0.3501  0.2592
 2001TIP3    H227419   3.845   0.953  13.020 -0.4731  0.1539  0.2409
 2002TIP3   OH227420   4.104   3.464   3.792 -0.1282 -0.2637  0.2379
 2002TIP3    H127421   4.028   3.463   3.850  1.0006  0.5222  1.7691
 2002TIP3    H227422   4.163   3.398   3.828  1.1716  1.1979  0.8346
 2003TIP3   OH227423   5.689   0.058   1.841 -0.3051  0.3084 -0.3804
 2003TIP3    H127424   5.723   0.067   1.753  1.6970  1.1075  0.4425
 2003TIP3    H227425   5.681   0.148   1.873  1.9522 -0.0449  1.3146
 2004TIP3   OH227426   1.923   5.518   5.774 -0.2429 -0.0355  0.3483
 2004TIP3    H127427   1.886   5.592   5.725 -0.7695 -1.0033 -0.7622
 2004TIP3    H227428   1.981   5.474   5.711  1.3640  0.3803  1.5088
 2005TIP3   OH227429   4.872   1.033  13.242  0.3144 -0.0779  0.0603
 2005TIP3    H127430   4.866   0.971  13.315  1.0810  0.2064  0.3722
 2005TIP3    H227431   4.785   1.072  13.237  0.2163 -0.2031  0.7295
 2006TIP3   OH227432   5.393   2.110   5.698  0.3012  0.5778  0.6474
 2006TIP3    H127433   5.458   2.043   5.718  0.6168  0.2877 -1.2349
 2006TIP3    H227434   5.432   2.192   5.730  3.0517  0.9056 -3.1637
 2007TIP3   OH227435   5.705   2.255  15.798 -0.4678  0.1704 -0.3022
 2007TIP3    H127436   5.694   2.279  15.891  0.1680 -1.3983  0.1908
 2007TIP3    H227437   5.624   2.284  15.757 -1.9115 -1.5621  1.2608
 2008TIP3   OH227438   1.818   5.949  16.641  0.3146 -0.2311 -0.0946
 2008TIP3    H127439   1.878   5.941  16.566  0.9462 -3.7343  0.6772
 2008TIP3    H227440   1.864   5.907  16.713 -2.3362 -1.4379  0.9740
 2009TIP3   OH227441   5.545   1.855  15.632 -0.0911  0.5387  0.4237
 2009TIP3    H127442   5.508   1.788  15.574  3.2355 -2.2545  1.3303
 2009TIP3    H227443   5.522   1.825  15.720  0.4091  1.2660  0.8074
 2010TIP3   OH227444   4.781   0.132   4.049  0.3581 -0.2835  0.5498
 2010TIP3    H127445   4.762   0.207   3.993 -0.7747 -0.8365  0.1633
 2010TIP3    H227446   4.706   0.073   4.036  1.7783 -2.0062 -0.0410
 2011TIP3   OH227447   6.770   5.403   3.311  0.0538  0.2723  0.0590
 2011TIP3    H127448   6.723   5.359   3.382  2.7699 -3.3746 -0.3027
 2011TIP3    H227449   6.792   5.489   3.347  0.1256 -0.9724  3.1383
 2012TIP3   OH227450   3.167   0.529   5.835  0.8427 -0.6001  0.0760
 2012TIP3    H127451   3.258   0.558   5.822  0.8003 -0.2697  0.5258
 2012TIP3    H227452   3.154   0.463   5.767  0.7507  0.8603 -1.3770
 2013TIP3   OH227453   2.432   5.983   0.181  0.1335 -0.0491 -0.3057
 2013TIP3    H127454   2.423   5.897   0.221  0.3664 -0.4628 -1.1249
 2013TIP3    H227455   2.349   5.998   0.136 -1.1038  1.4964  2.3339
 2014TIP3   OH227456   0.624   4.846  14.041 -0.1348 -0.4797  0.3580
 2014TIP3    H127457   0.547   4.852  14.098 -0.9977 -1.0106 -0.7347
 2014TIP3    H227458   0.609   4.912  13.974 -1.4046 -2.9916 -1.9173
 2015TIP3   OH227459   3.608   0.777  16.573  0.1264 -0.0728  0.1774
 2015TIP3    H127460   3.679   0.793  16.636 -0.3295 -1.1689  0.9854
 2015TIP3    H227461   3.586   0.685  16.586  0.9375 -0.6922 -2.5222
 2016TIP3   OH227462   3.518   0.312   4.371  0.3259  0.5175 -0.5050
 2016TIP3    H127463   3.477   0.241   4.419  1.4917 -0.4393 -0.9023
 2016TIP3    H227464   3.490   0.299   4.280 -1.3661  1.9543 -0.2071
 2017TIP3   OH227465   4.493   6.422   6.143 -0.2472 -0.0934  0.4751
 2017TIP3    H127466   4.561   6.474   6.186  0.0098 -2.6289  3.3093
 2017TIP3    H227467   4.484   6.344   6.198 -2.9103 -1.5187 -1.8441
 2018TIP3   OH227468   4.059   0.310  12.458 -0.1466 -0.1362  0.1488
 2018TIP3    H127469   4.142   0.338  12.498 -0.0459  0.4946 -0.4868
 2018TIP3    H227470   4.085   0.244  12.393 -0.1517 -0.0271  0.0358
 2019TIP3   OH227471   0.362   3.785   3.814  0.2298 -0.1068 -0.1043
 2019TIP3    H127472   0.433   3.849   3.810  1.4781 -1.4117  0.5845
 2019TIP3    H227473   0.401   3.703   3.783 -1.3331 -0.5490 -0.9667
 2020TIP3   OH227474   0.287   1.355  15.847  0.7777 -0.4218  0.0326
 2020TIP3    H127475   0.240   1.357  15.764  0.0774 -1.0329  0.4124
 2020TIP3    H227476   0.263   1.271  15.887  1.3954 -0.2967  0.6870
 2021TIP3   OH227477   6.385   2.566   1.136 -0.0605  0.2262  0.0748
 2021TIP3    H127478   6.419   2.654   1.150 -0.9176  0.4851  0.5770
 2021TIP3    H227479   6.453   2.521   1.086  0.8237  0.8621  0.6907
 2022TIP3   OH227480   2.013   5.025   6.149  0.4150 -0.0389 -0.0141
 2022TIP3    H127481   1.956   5.096   6.121 -0.3395 -0.8958 -0.6597
 2022TIP3    H227482   2.007   5.026   6.244 -0.3771  0.1138 -0.0636
 2023TIP3   OH227483   4.886   1.083   4.526  0.8420 -0.4382  0.5197
 2023TIP3    H127484   4.884   1.013   4.461  0.7208  0.6425 -0.6631
 2023TIP3    H227485   4.846   1.044   4.604 -1.1496 -1.0537 -0.7609
 2024TIP3   OH227486   6.741   0.150  15.153  0.0171  0.0166  0.5405
 2024TIP3    H127487   6.794   0.216  15.197  1.1537 -1.0783  0.8448
 2024TIP3    H227488   6.690   0.199  15.089  0.0030  1.3322  1.5440
 2025TIP3   OH227489   5.814   5.411  11.093  0.1500 -0.2148 -0.0663
 2025TIP3    H127490   5.889   5.470  11.088 -0.0294 -0.0479 -0.9496
 2025TIP3    H227491   5.809   5.371  11.006 -1.2767  0.3979 -0.2811
 2026TIP3   OH227492   4.299   2.819  10.992 -0.2667  0.0518 -1.0616
 2026TIP3    H127493   4.256   2.903  10.983 -1.5252 -0.3938  0.6184
 2026TIP3    H227494   4.228   2.755  10.994  0.5413 -0.8287  0.1840
 2027TIP3   OH227495   3.232   0.911   2.137 -0.2260  0.7990  0.7191
 2027TIP3    H127496   3.142   0.924   2.168 -0.8574 -0.3847 -0.5208
 2027TIP3    H227497   3.232   0.947   2.049 -0.2415 -1.5599 -0.2960
 2028TIP3   OH227498   4.959   5.333  14.169  0.1620 -0.0129  0.0476
 2028TIP3    H127499   4.998   5.257  14.211 -2.6040 -0.0988  2.6653
 2028TIP3    H227500   4.975   5.405  14.230 -2.7736  0.1393  0.7144
 2029TIP3   OH227501   0.856   5.779   3.797 -0.2328  0.0187  0.1279
 2029TIP3    H127502   0.928   5.824   3.752  0.6675 -0.6163  0.9040
 2029TIP3    H227503   0.881   5.687   3.796 -1.4218 -0.3128 -0.2727
 2030TIP3   OH227504   4.841   0.920   4.787  0.8145 -0.1097 -0.2257
 2030TIP3    H127505   4.820   0.958   4.872  1.2605  2.0637 -1.0414
 2030TIP3    H227506   4.916   0.863   4.804  1.4614  0.9978  0.7031
 2031TIP3   OH227507   2.834   3.401   3.750  0.7871 -0.6643  0.9295
 2031TIP3    H127508   2.752   3.360   3.777  0.0609 -1.0030 -1.6569
 2031TIP3    H227509   2.898   3.373   3.816 -1.0088 -0.8925  2.6286
 2032TIP3   OH227510   0.960   5.991   0.609 -0.6083  0.1154  0.5165
 2032TIP3    H127511   0.942   5.909   0.562  2.3351 -1.3989  1.9398
 2032TIP3    H227512   0.873   6.028   0.625 -1.9302 -1.9506 -1.4664
 2033TIP3   OH227513   2.855   3.468  15.271  0.1648 -0.7036  0.4280
 2033TIP3    H127514   2.871   3.403  15.340 -0.3230 -0.3160  0.9084
 2033TIP3    H227515   2.761   3.467  15.257 -0.0329  0.8478  1.4024
 2034TIP3   OH227516   0.916   6.232   0.900  0.0866  0.2879 -0.5182
 2034TIP3    H127517   0.884   6.146   0.871  1.4276  0.2961 -2.0363
 2034TIP3    H227518   0.939   6.278   0.820 -0.2156  1.9340  0.3153
 2035TIP3   OH227519   6.303   1.331  14.407 -0.5499 -0.5108  0.5693
 2035TIP3    H127520   6.307   1.268  14.335  0.1114  0.2835 -0.1054
 2035TIP3    H227521   6.295   1.277  14.486  2.0369 -1.5524  0.1801
 2036TIP3   OH227522   6.181   1.557  15.014  0.5061 -0.0598  0.5118
 2036TIP3    H127523   6.249   1.591  14.955  0.6674  0.8911  1.2412
 2036TIP3    H227524   6.099   1.577  14.969  0.6462  0.2428  0.3904
 2037TIP3   OH227525   1.281   2.865  11.170  0.1582 -0.2128  0.7814
 2037TIP3    H127526   1.204   2.818  11.201 -1.0189  0.2059 -1.4267
 2037TIP3    H227527   1.247   2.934  11.113  2.1958 -0.5244 -0.8995
 2038TIP3   OH227528   5.202   3.249  16.182  0.7572 -0.5215 -0.2908
 2038TIP3    H127529   5.244   3.318  16.233  1.1714 -1.2451  0.3431
 2038TIP3    H227530   5.245   3.252  16.097 -0.0551  0.8054 -0.6826
 2039TIP3   OH227531   3.280   3.783  14.521  0.3433  0.4076 -0.7086
 2039TIP3    H127532   3.293   3.703  14.471  0.2465 -0.1642  0.1600
 2039TIP3    H227533   3.363   3.797  14.567  0.3543  0.7969 -0.8450
 2040TIP3   OH227534   2.565   2.896  15.955  0.0257 -0.2448  0.2972
 2040TIP3    H127535   2.511   2.830  15.910  1.0148 -1.3737  0.7278
 2040TIP3    H227536   2.600   2.949  15.884  0.8261 -1.4416 -0.2313
 2041TIP3   OH227537   4.525   3.934   0.301 -0.0706  0.1585 -0.3458
 2041TIP3    H127538   4.570   3.938   0.385  0.4121  1.8041 -0.6694
 2041TIP3    H227539   4.450   3.877   0.317  1.6987 -2.0509  0.3928
 2042TIP3   OH227540   4.506   5.717   0.829 -0.3322  0.1169  0.2109
 2042TIP3    H127541   4.411   5.726   0.826 -0.4131 -0.1942  1.5129
 2042TIP3    H227542   4.528   5.673   0.747 -1.0989  1.8232 -0.9622
 2043TIP3   OH227543   0.640   1.614   2.433  0.1048  0.4215 -0.0626
 2043TIP3    H127544   0.551   1.587   2.409  0.7395 -1.8515 -0.0442
 2043TIP3    H227545   0.628   1.674   2.506 -1.3995 -0.4641  0.4424
 2044TIP3   OH227546   1.107   2.407  13.566 -0.2230  0.4527 -0.6268
 2044TIP3    H127547   1.046   2.481  13.561 -0.2246  0.4610 -0.4878
 2044TIP3    H227548   1.176   2.428  13.504  0.3131  1.0662  0.1767
 2045TIP3   OH227549   5.104   5.807   0.704 -0.0888  0.3075 -0.2131
 2045TIP3    H127550   5.146   5.752   0.637  0.6525 -0.0210  0.5061
 2045TIP3    H227551   5.089   5.748   0.777 -0.6930  0.7205  0.0023
 2046TIP3   OH227552   2.732   1.634   2.066 -0.3919 -0.3665  0.0380
 2046TIP3    H127553   2.808   1.605   2.116  0.6830 -0.5178 -1.6829
 2046TIP3    H227554   2.766   1.654   1.979 -2.2969 -0.3078 -0.7099
 2047TIP3   OH227555   6.046   2.300  11.223 -0.0779 -0.2161  0.7076
 2047TIP3    H127556   6.016   2.246  11.150  0.1689  0.0436  0.4142
 2047TIP3    H227557   5.969   2.353  11.246  0.5091  1.3874 -0.9025
 2048TIP3   OH227558   6.067   2.936  15.795 -0.2060  0.5654  0.5267
 2048TIP3    H127559   6.009   2.869  15.760 -1.1663  0.9550  1.3219
 2048TIP3    H227560   6.144   2.888  15.826 -0.0910  0.0473 -0.5742
 2049TIP3   OH227561   2.192   4.900  16.250 -0.4742  0.5441 -0.3502
 2049TIP3    H127562   2.123   4.845  16.286 -0.7442  0.0094 -1.6766
 2049TIP3    H227563   2.261   4.839  16.223 -0.1149  0.9613 -0.3914
 2050TIP3   OH227564   3.135   5.915   3.315  0.2268  0.4783 -0.1066
 2050TIP3    H127565   3.222   5.897   3.281 -0.3651 -0.3723 -1.2027
 2050TIP3    H227566   3.149   5.938   3.407  1.5800  0.1960 -0.2374
 2051TIP3   OH227567   0.568   1.557  13.645 -0.2238  0.3622  0.1012
 2051TIP3    H127568   0.539   1.512  13.725  0.8362 -1.5665 -0.5917
 2051TIP3    H227569   0.597   1.643  13.676  0.2201 -0.3825  1.8069
 2052TIP3   OH227570   1.098   2.861   3.971 -0.1498  0.2153  0.4151
 2052TIP3    H127571   1.146   2.789   3.930  0.0895  0.6780 -0.1310
 2052TIP3    H227572   1.137   2.870   4.058  0.3048  0.1562  0.2178
 2053TIP3   OH227573   3.846   1.121   0.221  0.4337  0.1703  0.9406
 2053TIP3    H127574   3.861   1.135   0.314  2.9312 -1.1161  0.7532
 2053TIP3    H227575   3.918   1.066   0.192 -2.7733 -3.3630 -0.7935
 2054TIP3   OH227576   6.738   0.310   3.217 -1.0377  0.4059  0.2277
 2054TIP3    H127577   6.652   0.347   3.235 -0.4475  1.8961  0.0340
 2054TIP3    H227578   6.769   0.358   3.140 -0.2710 -0.5083 -0.0341
 2055TIP3   OH227579   5.752   0.812  13.464 -0.6077 -0.3140  0.0760
 2055TIP3    H127580   5.792   0.799  13.550 -0.3842  0.4482  0.0865
 2055TIP3    H227581   5.754   0.906  13.450  0.0852 -0.5002 -1.1113
 2056TIP3   OH227582   5.623   3.926   4.655 -0.2159  0.0332 -0.0652
 2056TIP3    H127583   5.697   3.985   4.669  0.5486 -0.7844 -0.5702
 2056TIP3    H227584   5.570   3.970   4.589 -0.8696  1.2327  1.2380
 2057TIP3   OH227585   3.024   4.142   3.350 -0.2192 -0.3679 -0.3108
 2057TIP3    H127586   3.013   4.080   3.278 -0.6308  0.1468 -0.6937
 2057TIP3    H227587   3.105   4.188   3.330  0.8388 -1.7178  0.6883
 2058TIP3   OH227588   6.372   0.572  15.213  0.2763 -0.2269 -0.2793
 2058TIP3    H127589   6.340   0.608  15.130 -1.3714  0.0174  0.4485
 2058TIP3    H227590   6.418   0.646  15.254 -1.6124  0.5688  0.4322
 2059TIP3   OH227591   6.772   0.240   1.056  0.1131  0.2833 -0.6176
 2059TIP3    H127592   6.856   0.195   1.045  1.1131  1.9361  0.0666
 2059TIP3    H227593   6.791   0.332   1.033 -1.8130  0.4379 -1.7359
 2060TIP3   OH227594   0.564   2.393   1.781 -0.6602  0.1301  0.3468
 2060TIP3    H127595   0.550   2.470   1.837  0.8470  1.9180 -1.6137
 2060TIP3    H227596   0.626   2.339   1.830 -0.3303  1.0525  0.9868
 2061TIP3   OH227597   2.634   1.813   5.436  0.0187  0.2123 -0.1250
 2061TIP3    H127598   2.576   1.854   5.373  0.7541  0.5517 -0.5923
 2061TIP3    H227599   2.684   1.885   5.475  2.1664 -0.2963 -1.8185
 2062TIP3   OH227600   1.553   2.212  11.812  0.1286  0.0816 -0.4779
 2062TIP3    H127601   1.488   2.156  11.770  0.7333 -0.3424 -0.8441
 2062TIP3    H227602   1.636   2.188  11.771  0.5324  0.5560  0.0574
 2063TIP3   OH227603   0.151   3.076   3.957 -0.2031  0.4677 -0.0005
 2063TIP3    H127604   0.169   3.167   3.933 -0.0263  0.0546 -1.4643
 2063TIP3    H227605   0.067   3.079   4.003 -0.8852  1.1928 -1.2812
 2064TIP3   OH227606   3.358   1.339  15.415  0.0149  0.0079 -0.4884
 2064TIP3    H127607   3.390   1.349  15.504  2.0292 -1.1152 -1.0479
 2064TIP3    H227608   3.326   1.249  15.410 -0.2629  0.1229 -0.8456
 2065TIP3   OH227609   1.943   5.278  12.046  1.0339 -0.1995 -0.3067
 2065TIP3    H127610   2.001   5.353  12.058  0.2328  0.8038 -2.5731
 2065TIP3    H227611   1.857   5.308  12.074  0.9246 -0.6412 -0.1533
 2066TIP3   OH227612   5.783   1.363   6.664 -0.2583 -0.0476  0.1474
 2066TIP3    H127613   5.794   1.274   6.697 -0.4065 -0.0460  0.2021
 2066TIP3    H227614   5.689   1.373   6.653 -0.0767 -0.8893 -2.6141
 2067TIP3   OH227615   0.096   0.708  16.964  0.3023 -0.0991  0.1408
 2067TIP3    H127616   0.103   0.647  16.890  0.5547 -2.7339  2.2845
 2067TIP3    H227617   0.015   0.756  16.947  0.4468 -0.5426 -1.9419
 2068TIP3   OH227618   1.356   1.101   3.424  0.0798  0.2274  0.2843
 2068TIP3    H127619   1.375   1.008   3.421  0.8617  0.4102 -0.6561
 2068TIP3    H227620   1.290   1.115   3.355 -0.4377  0.2827  0.7843
 2069TIP3   OH227621   5.319   3.766   1.854 -0.1961  0.3163 -0.6308
 2069TIP3    H127622   5.275   3.848   1.875 -0.8524 -0.3143  0.5630
 2069TIP3    H227623   5.409   3.778   1.883 -0.2341  0.7043 -0.6796
 2070TIP3   OH227624   6.107   5.600  11.731 -0.0301  0.6908 -0.2122
 2070TIP3    H127625   6.064   5.619  11.648 -0.2253 -0.0112 -0.2721
 2070TIP3    H227626   6.120   5.505  11.731 -0.3551  0.6403  0.7151
 2071TIP3   OH227627   6.178   3.019   3.307  0.5548 -1.1890  0.2360
 2071TIP3    H127628   6.159   2.963   3.383  1.3598 -2.0469 -0.1838
 2071TIP3    H227629   6.112   2.992   3.242  0.3371 -0.9741  0.3659
 2072TIP3   OH227630   1.582   2.881   0.977  0.3513 -0.2125 -0.2157
 2072TIP3    H127631   1.532   2.844   1.050  0.9000  0.8165  0.6825
 2072TIP3    H227632   1.556   2.828   0.901 -1.0682 -0.5667  0.5023
 2073TIP3   OH227633   3.812   4.024   4.316 -0.5172 -0.3361  0.0287
 2073TIP3    H127634   3.803   4.037   4.222 -1.9625  1.1379  0.3664
 2073TIP3    H227635   3.832   3.930   4.325  3.4330  0.1856 -1.9782
 2074TIP3   OH227636   4.762   2.182  12.758  0.2944 -0.4340  0.2317
 2074TIP3    H127637   4.853   2.206  12.775  1.1362 -1.8780 -2.0228
 2074TIP3    H227638   4.739   2.230  12.678  0.0648 -2.3613 -0.8933
 2075TIP3   OH227639   2.948   1.234   2.045  0.0888 -0.1198  0.2831
 2075TIP3    H127640   2.913   1.191   2.123  2.1124 -1.4039  0.5236
 2075TIP3    H227641   2.977   1.320   2.077  1.5354 -0.8937  1.1393
 2076TIP3   OH227642   0.640   1.188   4.642 -0.3735 -0.5392 -0.7694
 2076TIP3    H127643   0.614   1.241   4.566  0.7853  0.4921 -0.4631
 2076TIP3    H227644   0.727   1.155   4.618  0.9970  1.6269  0.9976
 2077TIP3   OH227645   5.650   3.347  16.835  0.0512  0.5457 -0.4715
 2077TIP3    H127646   5.670   3.260  16.802  2.0092  1.0400 -0.6468
 2077TIP3    H227647   5.586   3.383  16.773 -0.4107 -0.5739 -0.6562
 2078TIP3   OH227648   4.140   1.257  10.809  0.0858 -0.3496  0.3523
 2078TIP3    H127649   4.076   1.190  10.835 -0.2007  0.1178  0.8717
 2078TIP3    H227650   4.214   1.207  10.775  0.8404 -1.0467  2.8735
 2079TIP3   OH227651   6.526   6.599   0.285  0.0944  0.2613 -0.0906
 2079TIP3    H127652   6.548   6.682   0.243 -0.1033  1.1246  1.4796
 2079TIP3    H227653   6.435   6.583   0.261 -0.5125  1.5439  1.2502
 2080TIP3   OH227654   1.075   5.709  12.900  0.2876  0.1050  0.0696
 2080TIP3    H127655   1.037   5.720  12.987 -0.0254  0.9886 -0.1680
 2080TIP3    H227656   1.091   5.615  12.892 -1.5733 -0.2665  0.2967
 2081TIP3   OH227657   4.946   3.853   4.309  0.5028 -0.0537 -0.8184
 2081TIP3    H127658   4.912   3.923   4.364  1.3734 -1.0115  0.9880
 2081TIP3    H227659   4.911   3.773   4.348  1.2668 -0.7599 -1.5478
 2082TIP3   OH227660   2.718   6.158   4.167 -0.7474 -0.6899 -0.4960
 2082TIP3    H127661   2.667   6.116   4.236 -2.8383  1.1215 -0.8877
 2082TIP3    H227662   2.692   6.250   4.170  1.7331  0.0955 -1.4284
 2083TIP3   OH227663   0.553   5.207  16.756 -0.1366  0.1996 -0.2346
 2083TIP3    H127664   0.542   5.113  16.771 -0.3140  0.1471 -0.6871
 2083TIP3    H227665   0.647   5.218  16.740 -0.3527 -0.1510 -1.8539
 2084TIP3   OH227666   4.374   6.277  14.083  0.2983  0.2011  0.9072
 2084TIP3    H127667   4.427   6.324  14.147  0.7369  0.2377  0.5246
 2084TIP3    H227668   4.309   6.340  14.053 -0.7931 -0.2269  2.3309
 2085TIP3   OH227669   1.301   5.280   5.955 -0.8307 -0.1811 -0.4406
 2085TIP3    H127670   1.249   5.351   5.915 -0.5833 -0.9470 -2.1557
 2085TIP3    H227671   1.373   5.325   5.998 -1.3648  0.6998 -0.4411
 2086TIP3   OH227672   1.153   6.525   6.594  0.0181 -0.5958  0.4234
 2086TIP3    H127673   1.106   6.485   6.521  1.8849 -0.1160 -1.0884
 2086TIP3    H227674   1.086   6.539   6.661 -2.0104  0.2573 -1.7302
 2087TIP3   OH227675   2.963   0.214  15.097 -0.1023  0.1612 -0.1089
 2087TIP3    H127676   2.992   0.168  15.176  1.2804  0.3768 -0.4756
 2087TIP3    H227677   2.874   0.183  15.082  0.5372 -1.8280  0.0768
 2088TIP3   OH227678   0.489   2.198   1.503 -0.1423 -0.6529 -0.1572
 2088TIP3    H127679   0.448   2.248   1.432  1.5681  1.7501  0.4977
 2088TIP3    H227680   0.433   2.214   1.579  0.3129  0.1526  0.0126
 2089TIP3   OH227681   5.715   2.241  16.612 -0.1787 -1.0584 -0.2320
 2089TIP3    H127682   5.649   2.300  16.646  0.1414 -1.3588  0.9308
 2089TIP3    H227683   5.790   2.296  16.593  0.2758 -1.1433  1.2707
 2090TIP3   OH227684   4.502   6.717  15.258  0.2150 -0.0887 -0.2732
 2090TIP3    H127685   4.547   6.634  15.274 -1.0299 -0.9123 -0.9992
 2090TIP3    H227686   4.561   6.766  15.200  0.3894 -0.9633 -0.8355
 2091TIP3   OH227687   0.966   1.790   1.682  1.0189 -0.0006 -0.7516
 2091TIP3    H127688   0.998   1.775   1.593  0.4507 -2.9751 -0.4916
 2091TIP3    H227689   1.034   1.753   1.738 -0.0429 -0.8905 -0.0397
 2092TIP3   OH227690   6.679   1.018   4.010  0.5157 -0.0373  0.2496
 2092TIP3    H127691   6.746   0.957   4.040  1.2911 -0.4358 -2.1833
 2092TIP3    H227692   6.694   1.026   3.916 -2.8667 -0.1505 -0.3603
 2093TIP3   OH227693   3.712   3.847   4.882  0.6488  0.4021 -0.4296
 2093TIP3    H127694   3.801   3.819   4.905  0.4141 -1.2518 -1.4344
 2093TIP3    H227695   3.706   3.936   4.915  2.7689  0.6217 -0.5443
 2094TIP3   OH227696   0.603   5.332  11.310 -0.0911  0.1586  0.1111
 2094TIP3    H127697   0.611   5.244  11.275  1.8096  0.1999  0.4132
 2094TIP3    H227698   0.518   5.333  11.353 -1.0996 -0.8407 -1.7989
 2095TIP3   OH227699   2.693   6.711   6.579  0.3424 -0.5325  0.4891
 2095TIP3    H127700   2.684   6.760   6.498 -0.1299  0.3101  1.0559
 2095TIP3    H227701   2.771   6.656   6.565  0.9202  0.4284 -0.1128
 2096TIP3   OH227702   4.612   4.139  14.518 -0.0822  0.4630  0.1550
 2096TIP3    H127703   4.578   4.126  14.607  0.7607 -0.8462  0.2978
 2096TIP3    H227704   4.551   4.092  14.462  0.5130 -0.4407  0.2485
 2097TIP3   OH227705   1.447   3.239   3.384 -0.3028  0.4687 -0.2895
 2097TIP3    H127706   1.536   3.228   3.348  0.4508  0.4145  1.5577
 2097TIP3    H227707   1.397   3.167   3.344  0.6374  0.1104 -0.8542
 2098TIP3   OH227708   0.357   3.527  14.338  0.3342  0.3337 -0.4981
 2098TIP3    H127709   0.434   3.486  14.378 -0.0634  1.0975  1.0459
 2098TIP3    H227710   0.295   3.455  14.328  1.6712 -0.5626 -2.9203
 2099TIP3   OH227711   4.695   0.776  12.419 -0.6714  0.4479  0.1719
 2099TIP3    H127712   4.735   0.710  12.362 -1.3954  1.8107 -1.9985
 2099TIP3    H227713   4.616   0.733  12.453 -1.4399  0.3534 -1.6693
 2100TIP3   OH227714   2.498   6.228  11.281 -0.2082  0.1716  0.1204
 2100TIP3    H127715   2.475   6.142  11.318 -2.1593 -0.1926 -1.8677
 2100TIP3    H227716   2.593   6.233  11.291 -0.0349 -2.3443  0.0903
 2101TIP3   OH227717   1.671   0.963   1.259 -0.0663 -0.1383  0.0526
 2101TIP3    H127718   1.760   0.978   1.227  0.1154  1.7671  1.3567
 2101TIP3    H227719   1.645   1.046   1.298 -2.0758 -0.9558  0.5420
 2102TIP3   OH227720   3.903   2.427   1.031 -0.2648 -0.4224  0.1603
 2102TIP3    H127721   3.971   2.375   1.074 -0.6641 -0.2675  0.9808
 2102TIP3    H227722   3.880   2.494   1.095  0.0893  0.6342 -0.8058
 2103TIP3   OH227723   1.172   4.338  14.077 -0.5717  0.1961  0.0965
 2103TIP3    H127724   1.247   4.360  14.132 -0.7561 -0.1759  0.5005
 2103TIP3    H227725   1.204   4.267  14.021 -1.7505 -2.6952  2.9470
 2104TIP3   OH227726   1.450   0.629  12.576 -0.4775  0.0727  0.1772
 2104TIP3    H127727   1.504   0.591  12.506 -0.8007  2.9185 -1.6808
 2104TIP3    H227728   1.373   0.572  12.580 -0.4385 -0.1580 -1.7776
 2105TIP3   OH227729   5.193   1.896   1.925  0.2863 -0.1268 -0.5436
 2105TIP3    H127730   5.183   1.849   2.008 -1.0466 -0.1650 -0.7200
 2105TIP3    H227731   5.137   1.849   1.864  0.2738  0.6586 -1.1466
 2106TIP3   OH227732   5.809   4.136   5.077  0.0020  0.2595 -0.6644
 2106TIP3    H127733   5.810   4.041   5.087  2.2129  0.2809 -0.4476
 2106TIP3    H227734   5.728   4.164   5.120  1.3077 -1.1823  2.8984
 2107TIP3   OH227735   3.994   1.412   3.231 -0.2815  0.2279  0.0743
 2107TIP3    H127736   4.018   1.479   3.168 -0.8658 -0.5890 -1.0423
 2107TIP3    H227737   4.071   1.356   3.238 -0.3901  0.0275 -0.3086
 2108TIP3   OH227738   6.360   4.652  12.226 -0.1450 -0.1321 -0.0203
 2108TIP3    H127739   6.366   4.580  12.163  0.6189  1.1946 -1.4977
 2108TIP3    H227740   6.450   4.681  12.238 -0.3170 -0.1641  1.4780
 2109TIP3   OH227741   5.408   5.038  14.153  0.3564 -0.0076 -0.4744
 2109TIP3    H127742   5.477   4.982  14.118 -0.9781 -1.8309 -0.2771
 2109TIP3    H227743   5.453   5.117  14.182  2.1267 -0.4850 -1.8433
 2110TIP3   OH227744   3.152   4.009   3.951  0.5619 -0.8617 -0.2286
 2110TIP3    H127745   3.062   4.002   3.919 -0.4158  2.9467  1.4144
 2110TIP3    H227746   3.165   3.927   4.000 -0.9542 -2.7446 -2.8156
 2111TIP3   OH227747   5.496   0.588  11.811  0.0885  1.1439 -0.3140
 2111TIP3    H127748   5.519   0.606  11.902 -3.1649  0.2618  0.7647
 2111TIP3    H227749   5.468   0.672  11.776 -3.0091  0.7202  0.9431
 2112TIP3   OH227750   0.179   5.633   2.012  0.1823 -0.5068  0.1434
 2112TIP3    H127751   0.212   5.666   1.929  1.0173  0.3521  0.7985
 2112TIP3    H227752   0.249   5.653   2.075 -1.2346  0.5426  1.4036
 2113TIP3   OH227753   2.300   3.889   2.159  0.1754  0.0160 -0.7351
 2113TIP3    H127754   2.380   3.898   2.211 -1.9623  4.5345  2.1405
 2113TIP3    H227755   2.317   3.937   2.079  0.7115  0.0511 -0.6012
 2114TIP3   OH227756   0.350   6.757  16.849 -0.5529 -0.2668  0.6907
 2114TIP3    H127757   0.369   6.667  16.874 -0.7948  0.0026  1.8576
 2114TIP3    H227758   0.347   6.755  16.753 -0.5472 -1.4886  0.7098
 2115TIP3   OH227759   6.771   1.493  15.044 -0.3140 -0.3114  0.2587
 2115TIP3    H127760   6.709   1.446  14.988 -0.5620 -1.3737  1.4102
 2115TIP3    H227761   6.723   1.510  15.125  0.1190  1.0103  0.2475
 2116TIP3   OH227762   2.578   1.466   3.209  0.1298  0.2969 -0.4664
 2116TIP3    H127763   2.563   1.509   3.293 -1.0032  0.0582 -0.5442
 2116TIP3    H227764   2.511   1.399   3.203  0.4577  0.0353 -1.3797
 2117TIP3   OH227765   6.202   6.244  13.788  0.1330 -0.3546  0.2257
 2117TIP3    H127766   6.159   6.330  13.784  0.0357 -0.4166 -0.1339
 2117TIP3    H227767   6.242   6.241  13.875  0.0543  0.0173  0.2787
 2118TIP3   OH227768   4.781   2.915  16.389 -0.3924 -0.1177  0.3779
 2118TIP3    H127769   4.763   2.952  16.303  0.1522  1.7793  1.0423
 2118TIP3    H227770   4.876   2.922  16.398 -0.5069  0.2655  1.3572
 2119TIP3   OH227771   5.668   6.527  12.351 -0.1125 -0.0931  0.1658
 2119TIP3    H127772   5.671   6.436  12.382  2.5221  0.1140  0.6371
 2119TIP3    H227773   5.752   6.541  12.308 -0.3338  2.2520  0.4106
 2120TIP3   OH227774   2.485   4.043   2.335  0.4784 -0.0492  0.0625
 2120TIP3    H127775   2.540   4.116   2.364  1.7549 -0.0845 -2.1359
 2120TIP3    H227776   2.527   3.965   2.372 -0.4000  0.2534  1.7084
 2121TIP3   OH227777   2.615   0.448  13.689  0.0466  0.4497 -1.1136
 2121TIP3    H127778   2.616   0.357  13.661 -1.3092  0.1304 -0.1231
 2121TIP3    H227779   2.707   0.474  13.687  0.3629 -0.7011 -2.1465
 2122TIP3   OH227780   3.488   2.147  16.457 -0.0786 -0.4912  0.2134
 2122TIP3    H127781   3.403   2.192  16.449  0.0171 -0.2503  0.5100
 2122TIP3    H227782   3.479   2.094  16.537 -0.5073 -1.7045 -0.6350
 2123TIP3   OH227783   0.656   5.342   6.665  0.3079 -0.5538 -0.3974
 2123TIP3    H127784   0.598   5.403   6.620  0.8053 -0.7168 -1.2675
 2123TIP3    H227785   0.632   5.256   6.631  2.0969 -0.4795 -1.9344
 2124TIP3   OH227786   0.662   1.361   2.115 -0.1471  0.4645 -0.2494
 2124TIP3    H127787   0.722   1.328   2.047 -0.5141 -0.7611  0.0053
 2124TIP3    H227788   0.614   1.283   2.143  0.6351  0.7763  2.0759
 2125TIP3   OH227789   1.039   3.824   4.106 -0.0773 -0.0277 -0.5223
 2125TIP3    H127790   1.109   3.837   4.169 -0.7247 -0.5499  0.3136
 2125TIP3    H227791   0.965   3.793   4.158 -0.4109 -1.1192 -1.6193
 2126TIP3   OH227792   2.352   4.733  14.446 -0.1214  0.3126 -0.1020
 2126TIP3    H127793   2.288   4.681  14.397  1.5198  1.5581 -3.7486
 2126TIP3    H227794   2.303   4.810  14.476 -1.1253 -0.4112  0.1385
 2127TIP3   OH227795   3.712   1.209  17.218  0.1668 -0.3811  0.8995
 2127TIP3    H127796   3.760   1.202  17.300  1.2226  1.4603  0.4910
 2127TIP3    H227797   3.706   1.304  17.202 -2.2650 -0.6277  0.1477
 2128TIP3   OH227798   5.590   1.948   0.070  0.0877 -0.3662 -0.0381
 2128TIP3    H127799   5.524   1.973   0.006  1.0572  1.6994 -0.2967
 2128TIP3    H227800   5.563   1.993   0.151  0.1427 -1.0658  0.3764
 2129TIP3   OH227801   3.177   3.551   1.539 -0.0763  0.0034 -0.1136
 2129TIP3    H127802   3.271   3.565   1.552 -0.1094 -1.0929  1.5675
 2129TIP3    H227803   3.143   3.636   1.512  0.9855  1.0605  1.7902
 2130TIP3   OH227804   2.676   4.866  12.288 -0.1111 -0.3339  0.0573
 2130TIP3    H127805   2.760   4.842  12.328 -0.2440 -0.6130  0.1767
 2130TIP3    H227806   2.668   4.808  12.212 -0.3869 -0.6053  0.2874
 2131TIP3   OH227807   3.900   3.516   0.843  0.3917 -0.4876  0.0478
 2131TIP3    H127808   3.859   3.481   0.923  0.1573 -0.2425  0.0386
 2131TIP3    H227809   3.905   3.610   0.859 -0.1534 -0.3702 -0.4462
 2132TIP3   OH227810   6.169   2.722  11.084  0.2162 -0.1804  0.2867
 2132TIP3    H127811   6.248   2.769  11.059 -0.7925  1.2489 -0.2976
 2132TIP3    H227812   6.172   2.641  11.035 -0.1563  1.1959 -2.0893
 2133TIP3   OH227813   5.029   3.393  10.670 -0.0010  0.2730  0.4341
 2133TIP3    H127814   5.117   3.430  10.680 -0.6631  1.6026  1.6188
 2133TIP3    H227815   5.030   3.313  10.723  0.7551 -0.1850 -0.2728
 2134TIP3   OH227816   1.844   3.565  12.378 -0.7006  0.0032 -0.3791
 2134TIP3    H127817   1.827   3.493  12.318  0.0301  0.5283 -1.2225
 2134TIP3    H227818   1.784   3.634  12.351 -1.5178 -0.3303  0.5338
 2135TIP3   OH227819   0.067   4.822   2.587  0.0498 -0.1447 -0.5063
 2135TIP3    H127820  -0.015   4.795   2.630  0.2936  0.9722  0.6885
 2135TIP3    H227821   0.136   4.783   2.642  0.4050  2.7050  1.1660
 2136TIP3   OH227822   3.148   6.035   1.846 -0.1775  0.1707 -0.2173
 2136TIP3    H127823   3.063   6.033   1.802 -0.2019  0.1870 -0.1709
 2136TIP3    H227824   3.146   6.116   1.898 -0.7050 -0.5437  0.9090
 2137TIP3   OH227825   2.021   2.004   3.454  0.5265 -0.1394 -0.1501
 2137TIP3    H127826   2.079   2.047   3.392 -1.8850  0.1749 -2.2540
 2137TIP3    H227827   2.006   2.069   3.522 -0.1167  1.0239 -1.3902
 2138TIP3   OH227828   1.105   6.461  11.139  0.2035  0.6695 -0.3723
 2138TIP3    H127829   1.047   6.524  11.097 -1.5532 -1.2497 -0.9457
 2138TIP3    H227830   1.168   6.436  11.072  0.5525  1.3799 -0.3115
 2139TIP3   OH227831   3.049   4.489  10.816  0.6689 -0.1282 -0.3226
 2139TIP3    H127832   3.012   4.404  10.839  1.2851 -0.2395  0.2731
 2139TIP3    H227833   2.986   4.553  10.850  0.9364 -0.3176  0.5375
 2140TIP3   OH227834   4.255   2.594  13.052 -0.4678  0.4361  0.3510
 2140TIP3    H127835   4.219   2.537  13.121 -2.2281  0.9486 -0.1376
 2140TIP3    H227836   4.349   2.598  13.072  0.0102 -3.9399 -0.5133
 2141TIP3   OH227837   5.542   5.582   0.785 -0.1088  0.2415  0.1537
 2141TIP3    H127838   5.498   5.665   0.768  2.0980  1.5200  0.4930
 2141TIP3    H227839   5.502   5.520   0.724 -3.9972  0.7554  2.0614
 2142TIP3   OH227840   0.591   2.946  16.415  0.6352  0.6728  0.2469
 2142TIP3    H127841   0.564   3.026  16.370  0.8280 -0.2439 -1.5439
 2142TIP3    H227842   0.510   2.896  16.426  0.9817 -0.3479 -1.6391
 2143TIP3   OH227843   2.842   4.510  11.189  0.0651 -0.0947  0.1566
 2143TIP3    H127844   2.922   4.563  11.179  0.9795 -1.3792  0.6330
 2143TIP3    H227845   2.775   4.574  11.214  0.9857  0.9682 -0.0262
 2144TIP3   OH227846   1.022   1.462   6.316 -0.6870  0.1372 -0.1413
 2144TIP3    H127847   1.023   1.446   6.222 -1.3703 -1.0324  0.0376
 2144TIP3    H227848   0.938   1.505   6.333 -1.0345 -0.6217  0.0788
 2145TIP3   OH227849   2.876   3.914  12.179  0.4945  0.6189  0.2364
 2145TIP3    H127850   2.805   3.851  12.190  1.7063 -0.8117 -0.0197
 2145TIP3    H227851   2.841   3.978  12.117 -0.9240  0.4937  0.8740
 2146TIP3   OH227852   1.328   5.615  13.122  0.1074 -0.1007 -0.1203
 2146TIP3    H127853   1.366   5.669  13.191  3.7796 -2.3029 -0.2826
 2146TIP3    H227854   1.321   5.673  13.046  1.6462  0.7869  0.4121
 2147TIP3   OH227855   1.843   1.046  12.294 -0.3693 -0.1108 -0.8414
 2147TIP3    H127856   1.811   1.133  12.272  0.4793  0.1140 -1.1811
 2147TIP3    H227857   1.936   1.047  12.270  0.0889 -0.5136  0.8779
 2148TIP3   OH227858   5.497   2.275   6.319  0.1247  0.2057 -0.3837
 2148TIP3    H127859   5.419   2.279   6.374  1.2755  0.9257  1.2248
 2148TIP3    H227860   5.545   2.198   6.350  0.7018  0.5289 -0.4690
 2149TIP3   OH227861   2.258   3.717  16.810 -0.5644  0.1717 -0.2496
 2149TIP3    H127862   2.270   3.687  16.900 -0.7128 -2.6428 -1.1152
 2149TIP3    H227863   2.175   3.678  16.783  0.5800 -0.9036 -2.3231
 2150TIP3   OH227864   1.531   5.803   0.125  0.2106  0.4867  0.2943
 2150TIP3    H127865   1.596   5.733   0.133 -1.7253 -1.3959  0.2695
 2150TIP3    H227866   1.501   5.819   0.214  0.5880  1.2218  0.2891
 2151TIP3   OH227867   5.180   0.414  15.108  0.2081  0.1836 -0.3567
 2151TIP3    H127868   5.117   0.414  15.180  0.3079 -3.4200 -0.1896
 2151TIP3    H227869   5.126   0.411  15.029  0.1343  0.1816 -0.3059
 2152TIP3   OH227870   2.022   5.130   2.536 -0.1217 -1.0033 -0.5864
 2152TIP3    H127871   1.982   5.217   2.538  2.5420  0.3010 -1.8021
 2152TIP3    H227872   1.959   5.076   2.489 -0.2427  1.1377 -2.9846
 2153TIP3   OH227873   4.455   0.463   1.279 -0.3069 -0.1170 -0.3508
 2153TIP3    H127874   4.502   0.434   1.357 -0.1254 -2.0954 -1.1705
 2153TIP3    H227875   4.498   0.545   1.254  0.2908 -0.0010  1.0329
 2154TIP3   OH227876   1.807   5.589  14.377  0.4719 -0.1576 -0.0295
 2154TIP3    H127877   1.800   5.651  14.450 -0.6053 -1.4190  0.9628
 2154TIP3    H227878   1.890   5.544  14.392 -0.5307 -1.5918  1.3977
 2155TIP3   OH227879   0.183   4.736   2.878  0.0841  0.3096 -0.4331
 2155TIP3    H127880   0.259   4.680   2.893 -1.9756 -2.5287 -0.1776
 2155TIP3    H227881   0.131   4.729   2.958 -1.2456  0.9223 -1.2220
 2156TIP3   OH227882   6.755   5.407   0.299  0.3401 -0.2633  0.1348
 2156TIP3    H127883   6.690   5.423   0.367  0.5975 -1.2861  0.6244
 2156TIP3    H227884   6.823   5.355   0.342  0.7619 -0.4602 -0.7576
 2157TIP3   OH227885   1.209   2.293   2.380  0.0820  0.8660  0.0086
 2157TIP3    H127886   1.268   2.242   2.436 -0.5409 -0.0715 -0.1874
 2157TIP3    H227887   1.220   2.256   2.293 -0.7127  0.7488 -0.0487
 2158TIP3   OH227888   3.194   5.662  11.792  0.2246 -0.1679 -0.0282
 2158TIP3    H127889   3.217   5.698  11.706  0.5564 -0.0419  0.1116
 2158TIP3    H227890   3.130   5.724  11.827 -0.2710 -0.4781 -0.3880
 2159TIP3   OH227891   4.413   4.467   0.136 -0.3042 -0.4637  0.5150
 2159TIP3    H127892   4.459   4.428   0.210  0.8749 -1.4474 -0.7125
 2159TIP3    H227893   4.364   4.395   0.097  2.0544 -0.8657 -1.8946
 2160TIP3   OH227894   5.200   1.937   5.275  0.1234 -0.0530 -0.2407
 2160TIP3    H127895   5.187   1.972   5.363  0.1618  3.5500 -1.5838
 2160TIP3    H227896   5.115   1.947   5.232  0.5853 -0.0545 -1.1693
 2161TIP3   OH227897   5.482   1.227  16.065 -0.1925 -0.4692 -0.3716
 2161TIP3    H127898   5.435   1.268  15.992  1.4393 -2.2162 -2.4722
 2161TIP3    H227899   5.563   1.278  16.073 -0.7039  0.1914  0.7557
 2162TIP3   OH227900   2.641   6.773   0.537  0.3113  0.2470 -0.3189
 2162TIP3    H127901   2.707   6.706   0.520 -0.0418 -0.3340  0.5530
 2162TIP3    H227902   2.675   6.820   0.613 -0.2968 -0.0950  0.1739
 2163TIP3   OH227903   3.190   5.780   1.164  0.7003  0.0508  0.6843
 2163TIP3    H127904   3.234   5.820   1.239  0.1999 -0.6435  1.3550
 2163TIP3    H227905   3.148   5.702   1.200  0.9427 -0.6016 -0.4386
 2164TIP3   OH227906   6.336   4.123  11.946 -0.0739  0.7194 -0.0646
 2164TIP3    H127907   6.346   4.171  11.864 -1.3409  1.0956 -0.0078
 2164TIP3    H227908   6.292   4.042  11.922  1.8192 -0.3184 -0.1163
 2165TIP3   OH227909   5.439   1.977  15.319 -0.1585 -0.5876 -0.3002
 2165TIP3    H127910   5.395   2.027  15.250  1.1416  0.0944 -0.6520
 2165TIP3    H227911   5.456   2.040  15.388  0.8145 -0.7031 -0.4257
 2166TIP3   OH227912   5.034   0.394   1.214  0.1158  0.5165  0.1538
 2166TIP3    H127913   4.997   0.418   1.299 -2.0430 -0.7861 -0.3891
 2166TIP3    H227914   5.124   0.367   1.234  0.2838  2.1239  1.7254
 2167TIP3   OH227915   0.602   1.853  14.921 -0.2617  0.1193  0.2460
 2167TIP3    H127916   0.649   1.923  14.965 -0.2917  0.2447  0.0814
 2167TIP3    H227917   0.632   1.858  14.830 -2.6973  2.0537 -0.5220
 2168TIP3   OH227918   6.382   1.232  16.957 -0.0876  0.6130 -0.2342
 2168TIP3    H127919   6.403   1.238  16.864 -1.9387  1.7371 -0.5955
 2168TIP3    H227920   6.289   1.209  16.960  0.3441 -1.0287  1.3451
 2169TIP3   OH227921   3.998   5.212  12.756 -0.2016 -0.1328  0.0986
 2169TIP3    H127922   3.912   5.223  12.715  0.2115 -3.5430 -1.8571
 2169TIP3    H227923   3.978   5.182  12.845 -1.0404  2.0892  0.6869
 2170TIP3   OH227924   3.180   1.681  10.588  0.2506  0.1673 -0.3094
 2170TIP3    H127925   3.125   1.733  10.531  2.2504  1.1083 -1.4147
 2170TIP3    H227926   3.120   1.617  10.627 -1.2688 -0.0354 -2.8918
 2171TIP3   OH227927   5.601   1.751   4.170 -0.4193  0.4000 -0.1053
 2171TIP3    H127928   5.694   1.763   4.153 -0.3354 -0.3514 -0.1923
 2171TIP3    H227929   5.576   1.827   4.222  0.1798  0.7452 -0.3197
 2172TIP3   OH227930   1.969   1.520  16.206 -0.0681 -0.1326  0.0283
 2172TIP3    H127931   2.042   1.581  16.215 -0.8035  0.6957  0.5316
 2172TIP3    H227932   1.917   1.533  16.286 -1.7770  0.6669 -1.1673
 2173TIP3   OH227933   0.271   5.587  13.863  0.3362  0.2648 -0.0698
 2173TIP3    H127934   0.187   5.626  13.837  0.5245  0.1589 -0.8575
 2173TIP3    H227935   0.331   5.661  13.866  0.4771  0.1805 -0.6499
 2174TIP3   OH227936   4.864   5.322  11.873 -1.1719  0.6030 -0.0133
 2174TIP3    H127937   4.934   5.299  11.933 -1.5156  0.3697  0.2990
 2174TIP3    H227938   4.784   5.301  11.920 -1.4099 -1.5601 -1.3271
 2175TIP3   OH227939   0.387   2.934  11.294 -0.0400  0.0082  0.1663
 2175TIP3    H127940   0.440   2.860  11.322  1.7542  1.0468 -0.4247
 2175TIP3    H227941   0.415   3.007  11.350 -1.0805  0.4902  0.0763
 2176TIP3   OH227942   1.654   3.003   5.230  0.3271  0.4739  0.2993
 2176TIP3    H127943   1.690   3.089   5.210  0.9878  0.6610  2.1539
 2176TIP3    H227944   1.715   2.965   5.294 -0.6056 -0.8583  0.4302
 2177TIP3   OH227945   4.148   3.020  15.197  0.1331  0.4119 -0.3676
 2177TIP3    H127946   4.137   2.926  15.184 -0.7630  0.5537 -0.6350
 2177TIP3    H227947   4.239   3.036  15.174  0.4795 -0.5002  0.3211
 2178TIP3   OH227948   5.747   5.034   2.435  0.1954 -0.2058  0.0330
 2178TIP3    H127949   5.766   5.055   2.344  1.1120 -0.4668  0.1620
 2178TIP3    H227950   5.832   5.019   2.475 -0.1016  1.1468  1.2456
 2179TIP3   OH227951   0.933   2.991   3.490 -0.1499 -0.6452  0.1384
 2179TIP3    H127952   0.873   3.011   3.418 -1.0303  0.6303  1.1828
 2179TIP3    H227953   0.991   3.068   3.495  1.0624 -1.5193 -0.3525
 2180TIP3   OH227954   0.557   5.198  17.095  0.0367 -0.2166  0.1352
 2180TIP3    H127955   0.603   5.282  17.102  0.6678 -0.6519  1.4208
 2180TIP3    H227956   0.488   5.214  17.031  0.2772  1.2375  0.2149
 2181TIP3   OH227957   1.027   0.025  14.405  0.1858 -0.3986  0.2421
 2181TIP3    H127958   0.937  -0.009  14.405  0.5276 -1.3236  0.3691
 2181TIP3    H227959   1.082  -0.053  14.396  0.9507  0.2283 -0.6469
 2182TIP3   OH227960   5.635   1.605   0.386  0.0443 -0.0538 -0.3244
 2182TIP3    H127961   5.608   1.548   0.458 -0.3477  0.4487 -0.0651
 2182TIP3    H227962   5.668   1.546   0.319  0.8615 -0.5017  0.4543
 2183TIP3   OH227963   5.064   5.898   3.922  0.2128 -0.4330  0.3130
 2183TIP3    H127964   5.150   5.870   3.890  0.7184  2.2375 -0.7953
 2183TIP3    H227965   5.083   5.966   3.986 -1.0623  0.3275 -0.0942
 2184TIP3   OH227966   6.564   0.972  14.787  0.6792 -0.8287 -0.5815
 2184TIP3    H127967   6.580   1.051  14.736 -0.4040 -0.7008 -0.7304
 2184TIP3    H227968   6.470   0.973  14.805  1.0743 -0.7557  1.6187
 2185TIP3   OH227969   4.778   4.910   2.992  0.3137  0.6107 -0.0127
 2185TIP3    H127970   4.799   5.003   3.003  0.3305  0.6048  0.0050
 2185TIP3    H227971   4.746   4.904   2.902  0.8373  0.5379 -0.1987
 2186TIP3   OH227972   4.809   0.882   2.811  0.3280 -0.1083  0.0262
 2186TIP3    H127973   4.738   0.871   2.874  0.8633  2.5768  1.1420
 2186TIP3    H227974   4.828   0.793   2.781 -1.6944 -1.1425  1.6982
 2187TIP3   OH227975   6.267   2.378   1.535  0.0544  0.2363  0.1942
 2187TIP3    H127976   6.187   2.384   1.483  0.4034 -0.4803 -0.4376
 2187TIP3    H227977   6.338   2.390   1.471  0.4887 -0.8480  0.4581
 2188TIP3   OH227978   6.156   1.299   5.930  0.0246  0.0408  0.1747
 2188TIP3    H127979   6.232   1.337   5.888  0.7543  1.0012  2.2891
 2188TIP3    H227980   6.135   1.222   5.878  1.2313  0.8644 -1.5648
 2189TIP3   OH227981   1.476   4.936  14.886 -0.0572  0.3829 -0.2721
 2189TIP3    H127982   1.500   4.881  14.960  0.3780  1.6243  0.5281
 2189TIP3    H227983   1.390   4.903  14.859 -1.4337  1.5491  2.4322
 2190TIP3   OH227984   4.355   6.535   3.595 -0.4565 -0.0641  0.0165
 2190TIP3    H127985   4.281   6.512   3.651 -1.6573  2.3680 -0.5142
 2190TIP3    H227986   4.425   6.558   3.657 -1.9002  3.0176  0.5824
 2191TIP3   OH227987   6.384   3.442  11.885 -0.2525  0.2698 -0.2186
 2191TIP3    H127988   6.456   3.416  11.828 -0.2201  0.3387 -0.2088
 2191TIP3    H227989   6.422   3.509  11.942 -0.9140  1.9110 -1.6745
 2192TIP3   OH227990   5.277   2.832   2.022  0.4964 -0.7594  0.0496
 2192TIP3    H127991   5.352   2.882   1.990 -0.1055 -0.8265 -1.4995
 2192TIP3    H227992   5.297   2.741   2.000 -0.6064 -0.6356 -1.5254
 2193TIP3   OH227993   5.545   3.148  11.569 -0.2753  0.5458  0.3056
 2193TIP3    H127994   5.603   3.210  11.525 -0.3509  1.1658  1.0716
 2193TIP3    H227995   5.478   3.127  11.503  0.1613  0.7111 -0.1969
 2194TIP3   OH227996   3.575   5.830  15.151  0.0453  0.2587 -0.0194
 2194TIP3    H127997   3.491   5.873  15.171 -0.8394 -0.9411 -1.0888
 2194TIP3    H227998   3.589   5.770  15.224 -1.2353 -1.2846 -1.0226
 2195TIP3   OH227999   3.615   0.168   4.674 -0.0351  0.1212 -0.3675
 2195TIP3    H128000   3.578   0.241   4.724  1.3903 -0.3154  1.3659
 2195TIP3    H228001   3.565   0.092   4.701  0.4947 -0.0548  0.1214
 2196TIP3   OH228002   4.426   1.030  11.995 -0.1401 -0.3465 -0.0071
 2196TIP3    H128003   4.519   1.028  11.971  0.4288 -1.2724  2.1467
 2196TIP3    H228004   4.408   0.941  12.025 -1.4715  0.0928  0.5146
 2197TIP3   OH228005   1.668   4.292  16.744  0.1416 -0.0673  0.1812
 2197TIP3    H128006   1.660   4.327  16.833 -0.2745 -0.2862  0.2269
 2197TIP3    H228007   1.671   4.197  16.756 -0.2352 -0.1101 -0.0633
 2198TIP3   OH228008   0.095   5.971   6.066 -0.0709 -0.0448  0.4242
 2198TIP3    H128009   0.116   5.988   6.158 -0.1845 -1.4020  0.7118
 2198TIP3    H228010   0.010   5.927   6.068  0.5424 -1.2927 -0.2232
 2199TIP3   OH228011   4.004   2.166  14.060  0.0451 -0.1841 -0.0347
 2199TIP3    H128012   4.052   2.172  14.142 -0.5122  1.1477  0.1985
 2199TIP3    H228013   3.921   2.211  14.076 -0.9870 -1.7865 -0.6728
 2200TIP3   OH228014   4.569   0.755  12.894 -0.6673 -0.7796  0.4969
 2200TIP3    H128015   4.613   0.804  12.964 -2.7376 -0.9497  1.9351
 2200TIP3    H228016   4.525   0.823  12.842 -2.4281 -0.9712  1.7083
 2201TIP3   OH228017   1.713   1.790   5.028  0.7409  0.1446 -0.6847
 2201TIP3    H128018   1.681   1.871   5.068 -0.0673 -1.3382  1.7780
 2201TIP3    H228019   1.634   1.745   4.997  0.8057 -1.4511  1.3891
 2202TIP3   OH228020   5.161   0.642   2.098 -0.1182 -0.1221  0.0015
 2202TIP3    H128021   5.133   0.708   2.035  0.1731 -1.5164 -1.6166
 2202TIP3    H228022   5.128   0.674   2.182 -1.1911  1.3705 -0.9614
 2203TIP3   OH228023   4.384   4.318  12.071  0.3264  0.1418  0.4202
 2203TIP3    H128024   4.459   4.368  12.104  0.3027  0.7829 -0.4955
 2203TIP3    H228025   4.366   4.355  11.985 -1.3906  0.3756  0.8513
 2204TIP3   OH228026   0.359   2.445  14.460  0.3340 -0.5582  1.0615
 2204TIP3    H128027   0.390   2.355  14.467  0.8140 -0.3212  2.0957
 2204TIP3    H228028   0.301   2.456  14.536 -0.0271 -0.1200  0.7207
 2205TIP3   OH228029   4.947   1.262   5.334  0.1000  0.0606  0.5040
 2205TIP3    H128030   5.009   1.277   5.406  1.2604  1.4488 -0.7457
 2205TIP3    H228031   4.960   1.337   5.276 -1.1859 -0.7837 -0.8986
 2206TIP3   OH228032   5.542   2.793  12.517  0.2497 -0.1456  0.3577
 2206TIP3    H128033   5.519   2.736  12.590  1.4241 -0.2602  0.6471
 2206TIP3    H228034   5.619   2.751  12.477 -0.9483 -0.6208 -1.5337
 2207TIP3   OH228035   3.563   0.658  16.843  0.2634  0.6182  0.3774
 2207TIP3    H128036   3.529   0.590  16.900  1.4099  1.2027  1.7891
 2207TIP3    H228037   3.496   0.668  16.775 -1.0676 -0.1478  1.5516
 2208TIP3   OH228038   1.831   3.786   2.277 -0.2214  0.0177  0.1466
 2208TIP3    H128039   1.919   3.795   2.240 -0.3586  0.7345 -0.0012
 2208TIP3    H228040   1.835   3.704   2.326  0.4861 -0.0340  0.0145
 2209TIP3   OH228041   0.579   3.216  14.217 -0.1884  0.2356  0.3162
 2209TIP3    H128042   0.637   3.173  14.153 -2.3149 -0.7350 -1.0113
 2209TIP3    H228043   0.580   3.159  14.293 -1.2968 -1.0711 -0.6304
 2210TIP3   OH228044   4.236   0.326  15.670  0.0041  0.5493 -0.0342
 2210TIP3    H128045   4.281   0.285  15.596  1.5288  2.1022 -0.0009
 2210TIP3    H228046   4.143   0.320  15.648  0.3059 -0.9928 -1.0115
 2211TIP3   OH228047   1.210   1.792  15.234 -0.0438 -0.6984  0.5181
 2211TIP3    H128048   1.135   1.823  15.284  0.5878  0.4865  0.7536
 2211TIP3    H228049   1.183   1.800  15.142 -0.8623 -2.0034  0.6241
 2212TIP3   OH228050   3.012   4.767   0.017  0.2852  0.5862  0.0404
 2212TIP3    H128051   2.917   4.763   0.021  0.3216  0.2720  0.5871
 2212TIP3    H228052   3.032   4.776  -0.077 -0.2038 -1.5829 -0.3058
 2213TIP3   OH228053   6.390   3.687  10.351 -0.1136  0.0325 -0.6699
 2213TIP3    H128054   6.449   3.758  10.377  1.0861 -0.1665 -2.8036
 2213TIP3    H228055   6.308   3.707  10.397  1.1450  1.1053  1.1802
 2214TIP3   OH228056   4.259   2.764   1.674  0.2801  0.0703  0.5458
 2214TIP3    H128057   4.207   2.791   1.598  0.8637  0.5505  0.3175
 2214TIP3    H228058   4.349   2.757   1.641  0.5868  0.5472  1.2580
 2215TIP3   OH228059   5.770   1.652   3.861 -0.0039  0.2196 -0.3135
 2215TIP3    H128060   5.726   1.730   3.826  0.8258  0.9145  0.1649
 2215TIP3    H228061   5.829   1.687   3.929  0.4234 -0.8191 -0.1475
 2216TIP3   OH228062   5.852   5.856  14.001 -0.2016 -0.3956 -0.7542
 2216TIP3    H128063   5.942   5.888  13.999 -1.5139  3.5273 -0.6017
 2216TIP3    H228064   5.843   5.803  13.922  2.3101 -1.1295 -0.5810
 2217TIP3   OH228065   0.100   4.197   4.993 -0.4950 -0.1365  0.4576
 2217TIP3    H128066   0.094   4.168   4.902 -0.1368  0.7233  0.1532
 2217TIP3    H228067   0.073   4.289   4.991  2.4128  0.7967  0.7009
 2218TIP3   OH228068   6.773   5.380  14.004  0.5228  0.1406  0.2830
 2218TIP3    H128069   6.734   5.312  13.950 -1.4226  0.6264  1.0388
 2218TIP3    H228070   6.789   5.452  13.943  1.7295 -0.6271 -0.3326
 2219TIP3   OH228071   3.125   2.051   4.395 -0.0125  0.2130  1.4281
 2219TIP3    H128072   3.085   2.060   4.481 -4.6092  1.5431 -0.7029
 2219TIP3    H228073   3.144   2.141   4.368 -3.7461  0.3539 -1.1100
 2220TIP3   OH228074   2.739   2.500   2.171  0.4334 -0.9407  0.0650
 2220TIP3    H128075   2.734   2.464   2.260  0.8801 -0.2036  0.3950
 2220TIP3    H228076   2.711   2.428   2.115 -1.5346 -0.8626  0.9187
 2221TIP3   OH228077   2.177   3.537   3.736  0.2104 -0.1615 -0.4271
 2221TIP3    H128078   2.256   3.488   3.712  1.1132  0.6147  0.8772
 2221TIP3    H228079   2.201   3.629   3.722 -0.2784  0.1079  0.4860
 2222TIP3   OH228080   4.642   4.583   6.062  0.6214  0.0810  0.1178
 2222TIP3    H128081   4.665   4.648   6.128 -0.4144  0.7008 -0.1252
 2222TIP3    H228082   4.722   4.571   6.011  0.7034  1.4674 -0.0959
 2223TIP3   OH228083   5.167   2.019   0.608  0.2601  0.0450 -0.0654
 2223TIP3    H128084   5.169   1.959   0.533 -0.1724 -0.2151  0.1277
 2223TIP3    H228085   5.085   2.068   0.598  1.7428  2.3153 -1.5314
 2224TIP3   OH228086   3.767   6.157   0.026  0.0543 -0.3882  0.5458
 2224TIP3    H128087   3.687   6.148  -0.025  0.7408 -0.8803 -0.4530
 2224TIP3    H228088   3.761   6.089   0.093  1.6015 -3.2754 -2.1549
 2225TIP3   OH228089   5.786   0.410  16.946  0.3676  0.2143 -0.7737
 2225TIP3    H128090   5.862   0.463  16.969  0.7672  0.4819 -2.5968
 2225TIP3    H228091   5.743   0.459  16.876 -0.6611 -0.6466 -0.7553
 2226TIP3   OH228092   3.394   3.109  11.458  0.0404 -0.2252 -0.0425
 2226TIP3    H128093   3.445   3.059  11.394  1.1306 -0.0887  0.7090
 2226TIP3    H228094   3.387   3.051  11.534  0.8989  0.5684  0.6529
 2227TIP3   OH228095   1.382   2.862   3.546 -0.4824 -0.4860  0.4250
 2227TIP3    H128096   1.312   2.923   3.525 -0.3702 -0.7873 -0.8415
 2227TIP3    H228097   1.349   2.777   3.516  0.5726 -0.5727 -0.5335
 2228TIP3   OH228098   4.172   5.516  15.565 -0.2876 -0.1878  0.1837
 2228TIP3    H128099   4.205   5.603  15.542 -0.1556 -0.2632  0.0856
 2228TIP3    H228100   4.192   5.462  15.489  1.2384 -0.7190  0.9454
 2229TIP3   OH228101   3.090   3.851   1.759 -0.1992  0.4835  0.2390
 2229TIP3    H128102   3.074   3.886   1.846 -1.4350  0.6732 -0.0579
 2229TIP3    H228103   3.007   3.863   1.713  0.4494  0.3890 -0.9621
 2230TIP3   OH228104   1.720   6.188   4.164 -0.3871 -0.1179 -0.1865
 2230TIP3    H128105   1.651   6.181   4.230 -2.9988 -2.1769 -2.9795
 2230TIP3    H228106   1.792   6.136   4.199 -1.4223 -0.4856  1.4396
 2231TIP3   OH228107   0.929   6.317   6.172  0.3260 -0.3231 -0.7499
 2231TIP3    H128108   0.853   6.336   6.227  0.0912 -0.6371 -0.9622
 2231TIP3    H228109   1.001   6.303   6.234 -0.3856 -2.7355 -0.4106
 2232TIP3   OH228110   0.516   3.823   1.640 -0.4035 -0.4105 -0.2829
 2232TIP3    H128111   0.475   3.761   1.701  1.6016 -0.6017  0.8973
 2232TIP3    H228112   0.504   3.909   1.682  0.4734 -0.4807  0.1297
 2233TIP3   OH228113   0.884   6.773  14.000  0.5600  0.2756 -0.0045
 2233TIP3    H128114   0.954   6.817  14.048 -0.4995  0.0947  1.7498
 2233TIP3    H228115   0.805   6.825  14.019 -0.4108 -1.4304  0.8441
 2234TIP3   OH228116   6.580   1.419   1.474  0.0267  0.4117  0.0501
 2234TIP3    H128117   6.598   1.393   1.384 -2.4752 -0.1942 -0.3058
 2234TIP3    H228118   6.648   1.376   1.526  2.0447  1.4954 -1.6036
 2235TIP3   OH228119   2.872   3.925   0.402  0.0291 -0.7843  0.1090
 2235TIP3    H128120   2.860   3.834   0.430 -0.5568 -0.7614 -0.0580
 2235TIP3    H228121   2.784   3.962   0.405 -0.1618 -0.9520 -2.3612
 2236TIP3   OH228122   6.560   4.868  12.061  0.2063 -0.2664  0.7143
 2236TIP3    H128123   6.521   4.944  12.104  0.6723  0.4370 -0.0810
 2236TIP3    H228124   6.640   4.902  12.020 -0.0035 -0.9944 -0.3363
 2237TIP3   OH228125   6.165   1.123   3.813  0.1376 -1.1522 -0.1117
 2237TIP3    H128126   6.234   1.159   3.869  0.9353 -1.3333 -0.9527
 2237TIP3    H228127   6.107   1.197   3.795  0.9075 -0.6549 -0.5642
 2238TIP3   OH228128   3.468   3.255  10.889  0.3887 -0.1666 -0.7949
 2238TIP3    H128129   3.376   3.230  10.889  0.3921 -0.3166  1.8090
 2238TIP3    H228130   3.516   3.172  10.888  0.4391 -0.1817  0.7370
 2239TIP3   OH228131   0.517   4.630   0.161 -0.4835 -0.1340 -0.0887
 2239TIP3    H128132   0.533   4.579   0.082 -0.9774 -0.2326 -0.1246
 2239TIP3    H228133   0.604   4.657   0.190 -0.2695 -0.4788 -0.4123
 2240TIP3   OH228134   2.729   2.098  15.610 -0.1337 -0.5050 -0.0101
 2240TIP3    H128135   2.748   2.081  15.517 -0.2254 -1.4062  0.1304
 2240TIP3    H228136   2.780   2.176  15.631  0.7381 -0.9189 -0.5489
 2241TIP3   OH228137   4.129   1.749  11.130  0.4014 -0.5039 -0.0741
 2241TIP3    H128138   4.172   1.679  11.080 -1.8971 -0.3275 -2.4137
 2241TIP3    H228139   4.174   1.829  11.102  0.5334 -0.6377 -0.2508
 2242TIP3   OH228140   2.871   3.940  16.781 -0.2267  0.5238 -0.6349
 2242TIP3    H128141   2.906   4.029  16.774  1.2549  0.1247  1.2160
 2242TIP3    H228142   2.890   3.914  16.871  0.7779 -2.2276 -1.5718
 2243TIP3   OH228143   2.533   1.734  14.506  0.2401  0.0824  0.5273
 2243TIP3    H128144   2.566   1.700  14.423  0.3381 -0.4377  0.7744
 2243TIP3    H228145   2.460   1.791  14.481 -0.1896 -0.6352  0.1269
 2244TIP3   OH228146   2.925   5.706   2.824  1.1446 -0.1551 -0.8089
 2244TIP3    H128147   2.899   5.750   2.742  2.1761 -0.0307 -1.0783
 2244TIP3    H228148   3.021   5.712   2.824  1.1910 -0.9418 -0.0231
 2245TIP3   OH228149   1.219   3.252   1.924 -0.6900 -0.1094  0.2733
 2245TIP3    H128150   1.270   3.327   1.895  1.6777 -1.8803 -0.3291
 2245TIP3    H228151   1.132   3.287   1.942  0.5808  2.9069  0.7984
 2246TIP3   OH228152   4.780   0.339   4.775  0.0868 -0.3454 -0.4434
 2246TIP3    H128153   4.850   0.344   4.710 -0.8052  2.2836 -1.2498
 2246TIP3    H228154   4.707   0.298   4.728  0.0044 -0.0136 -0.6103
 2247TIP3   OH228155   4.758   3.936  15.117 -0.4337 -0.1050  0.5441
 2247TIP3    H128156   4.716   3.881  15.051 -0.9991  0.4656  0.4217
 2247TIP3    H228157   4.836   3.887  15.143 -1.7477 -1.6922  1.5679
 2248TIP3   OH228158   5.810   4.120  12.520 -0.2474  0.1214 -0.1384
 2248TIP3    H128159   5.729   4.073  12.542 -0.8450  2.0406  1.9059
 2248TIP3    H228160   5.861   4.119  12.601  1.4879 -0.4315 -1.2129
 2249TIP3   OH228161   4.404   4.045  14.002  0.2272  0.3581  0.3126
 2249TIP3    H128162   4.425   4.130  13.963 -1.5321  0.7319  0.1239
 2249TIP3    H228163   4.484   3.993  13.991  1.1702  1.8306  0.0139
 2250TIP3   OH228164   1.585   1.337   3.075 -0.5153 -0.4792 -0.0524
 2250TIP3    H128165   1.546   1.300   2.995  0.9956 -0.7214 -0.6918
 2250TIP3    H228166   1.513   1.386   3.116 -1.1573  0.1886 -1.8966
 2251TIP3   OH228167   3.328   3.459  15.601  0.3293  0.0396  0.6428
 2251TIP3    H128168   3.388   3.534  15.606  2.0065 -1.2078 -0.2379
 2251TIP3    H228169   3.316   3.445  15.507 -1.6984  0.5348  0.8138
 2252TIP3   OH228170   3.211   2.753   3.415 -0.1383  0.1628 -0.1984
 2252TIP3    H128171   3.224   2.828   3.472 -1.2281 -0.2424  0.6127
 2252TIP3    H228172   3.246   2.780   3.330 -3.2101  2.7096 -0.7266
 2253TIP3   OH228173   4.237   6.658   4.682  0.3193  0.6117 -0.0255
 2253TIP3    H128174   4.161   6.604   4.659  1.7029 -1.7704  0.9067
 2253TIP3    H228175   4.282   6.672   4.598  0.5317 -0.5847 -0.1201
 2254TIP3   OH228176   1.380   6.715   1.413  0.3104 -0.5030 -0.2402
 2254TIP3    H128177   1.408   6.787   1.469  1.7544 -1.4267  0.2605
 2254TIP3    H228178   1.462   6.680   1.376 -0.6364  0.5247 -3.4860
 2255TIP3   OH228179   4.562   5.495  10.969  0.7977 -1.0536 -0.3559
 2255TIP3    H128180   4.650   5.531  10.977  0.9564 -1.6870  0.9781
 2255TIP3    H228181   4.511   5.563  10.925  1.9630 -0.7023 -1.1600
 2256TIP3   OH228182   3.385   0.107   6.013 -0.3763 -0.3200  0.1057
 2256TIP3    H128183   3.443   0.053   6.067  1.0599 -0.0718 -1.1596
 2256TIP3    H228184   3.300   0.063   6.019 -0.1204 -0.5997  2.1164
 2257TIP3   OH228185   3.444   0.394  15.923 -0.1184 -0.4762 -0.1066
 2257TIP3    H128186   3.465   0.302  15.909  1.2538 -0.0207 -1.1691
 2257TIP3    H228187   3.529   0.437  15.930 -0.7290  0.3147  3.2175
 2258TIP3   OH228188   4.644   5.911   3.773 -0.4994  0.3323 -0.7851
 2258TIP3    H128189   4.716   5.912   3.836 -1.6658  1.1551  0.5464
 2258TIP3    H228190   4.603   5.825   3.784 -0.7919  0.5314 -0.3238
 2259TIP3   OH228191   4.273   4.466   4.786 -0.2202 -0.1688 -0.2197
 2259TIP3    H128192   4.343   4.507   4.837  0.2679 -2.8579  1.3570
 2259TIP3    H228193   4.268   4.518   4.706  3.0030  0.6056  0.0326
 2260TIP3   OH228194   0.443   0.198   1.923 -0.7909 -0.3563 -0.4379
 2260TIP3    H128195   0.440   0.125   1.862  0.3729  0.4296 -1.4533
 2260TIP3    H228196   0.410   0.273   1.874 -3.5134 -0.4713  1.0737
 2261TIP3   OH228197   1.767   4.925  17.221  0.6503  0.4723  0.2416
 2261TIP3    H128198   1.841   4.865  17.217  2.1779  2.3889 -0.6477
 2261TIP3    H228199   1.778   4.983  17.146 -0.6840  2.0065  1.1843
 2262TIP3   OH228200   0.034   1.961  16.731  0.0379  0.1303 -0.1232
 2262TIP3    H128201   0.031   1.999  16.819  0.3229 -0.2831  0.0680
 2262TIP3    H228202   0.122   1.981  16.699 -0.1896  0.5910 -0.4542
 2263TIP3   OH228203   1.295   2.117  16.533 -0.9873 -0.3106  0.0175
 2263TIP3    H128204   1.221   2.057  16.542 -0.3127 -1.4121 -1.4351
 2263TIP3    H228205   1.326   2.132  16.622 -2.5879 -0.3086  0.5793
 2264TIP3   OH228206   4.163   4.926   4.415 -0.4879 -0.4446 -0.5174
 2264TIP3    H128207   4.144   4.899   4.325 -0.9796  1.2882 -0.9452
 2264TIP3    H228208   4.100   4.877   4.468 -1.3088 -0.2296 -1.2763
 2265TIP3   OH228209   0.147   0.540  14.660  0.7163  0.0277  0.7808
 2265TIP3    H128210   0.055   0.539  14.686  0.1579  1.7704 -1.0591
 2265TIP3    H228211   0.194   0.514  14.740 -1.1718  1.8403  2.5406
 2266TIP3   OH228212   6.359   5.778  15.128  0.0434  0.3023 -0.0330
 2266TIP3    H128213   6.274   5.739  15.148  1.4519 -2.5525  0.7620
 2266TIP3    H228214   6.361   5.859  15.179 -2.6042  0.9867 -0.9220
 2267TIP3   OH228215   0.302   0.629   1.115  0.1817 -0.0100  0.7454
 2267TIP3    H128216   0.320   0.643   1.208 -0.3975 -2.3200  1.2408
 2267TIP3    H228217   0.229   0.687   1.096  0.4199  0.6063  1.6973
 2268TIP3   OH228218   0.504   5.978  15.475 -0.1358 -0.2897  0.4963
 2268TIP3    H128219   0.478   6.042  15.541  0.0246 -1.7259  2.0064
 2268TIP3    H228220   0.597   5.965  15.490 -0.5045 -2.1687  1.4294
 2269TIP3   OH228221   4.398   5.563   4.139  0.6125 -0.5030  0.2733
 2269TIP3    H128222   4.491   5.558   4.118  0.3022 -3.1524 -0.7199
 2269TIP3    H228223   4.384   5.492   4.202 -0.7076 -0.0760  0.4797
 2270TIP3   OH228224   3.347   1.665   5.362  0.2181 -0.8032  0.5978
 2270TIP3    H128225   3.329   1.585   5.412  0.4698 -0.0354  1.9379
 2270TIP3    H228226   3.422   1.643   5.308  0.5431 -1.3476  1.2683
 2271TIP3   OH228227   5.544   2.427  16.470 -0.0749  0.0781 -0.0614
 2271TIP3    H128228   5.469   2.385  16.514  0.0150 -0.4910 -0.4433
 2271TIP3    H228229   5.533   2.404  16.378  0.1924  0.5829 -0.2194
 2272TIP3   OH228230   4.921   6.781   1.259  0.6129  0.5507  0.2833
 2272TIP3    H128231   4.841   6.752   1.216  0.4230 -3.3555  3.0317
 2272TIP3    H228232   4.987   6.781   1.190 -1.1278  1.2533 -1.4435
 2273TIP3   OH228233   2.985   1.852   1.858  0.3064  0.0125 -0.3783
 2273TIP3    H128234   3.023   1.861   1.945  1.8697 -1.0796 -0.9019
 2273TIP3    H228235   3.060   1.863   1.799 -0.5990  0.0087 -1.5392
 2274TIP3   OH228236   0.702   2.217   1.932 -0.3003  0.5203  0.4462
 2274TIP3    H128237   0.796   2.221   1.915 -0.1968  0.1220  0.8986
 2274TIP3    H228238   0.695   2.168   2.014 -0.8740  0.9358  0.6508
 2275TIP3   OH228239   0.472   5.815   5.506 -0.4195  0.2594  0.2993
 2275TIP3    H128240   0.532   5.885   5.477  2.2067 -1.6909  0.8136
 2275TIP3    H228241   0.412   5.804   5.432 -0.1617  2.2634 -0.2531
 2276TIP3   OH228242   3.790   0.017  10.837 -0.4055  0.2030 -0.5699
 2276TIP3    H128243   3.858   0.084  10.850  2.1324 -1.9208 -2.3796
 2276TIP3    H228244   3.713   0.052  10.882  1.9840  2.5119  1.9214
 2277TIP3   OH228245   0.705   3.131   3.882  0.0294  0.0195  0.2983
 2277TIP3    H128246   0.729   3.045   3.846 -1.1253 -0.2614  0.1888
 2277TIP3    H228247   0.753   3.136   3.965 -0.1866 -0.8898  0.4840
 2278TIP3   OH228248   3.755   1.131   2.308 -0.4406  0.2248  0.0448
 2278TIP3    H128249   3.754   1.131   2.404 -0.5653  2.6609  0.0682
 2278TIP3    H228250   3.702   1.055   2.284  1.0978 -1.5108  1.8939
 2279TIP3   OH228251   0.012   5.205   4.917  0.0904 -0.2741  0.3161
 2279TIP3    H128252   0.020   5.299   4.935 -1.3811  0.2035 -1.3830
 2279TIP3    H228253   0.067   5.192   4.839 -1.5107 -0.3762 -0.8061
 2280TIP3   OH228254   6.663   1.920  13.580  0.1857 -0.5991 -0.1226
 2280TIP3    H128255   6.656   2.013  13.562  1.3793 -0.5514 -0.3639
 2280TIP3    H228256   6.604   1.906  13.655  0.6361  0.5028  0.4580
 2281TIP3   OH228257   1.041   4.292   5.245 -1.1585  0.7647  0.2733
 2281TIP3    H128258   1.034   4.346   5.324 -1.7889  0.7411  0.2309
 2281TIP3    H228259   0.993   4.341   5.178 -1.5239  0.2651  0.1748
 2282TIP3   OH228260   5.959   3.273   4.502  0.2977  0.2576  0.0027
 2282TIP3    H128261   5.883   3.242   4.452 -0.1462  0.1303  0.7482
 2282TIP3    H228262   6.028   3.282   4.437 -0.4534  0.7146 -0.7436
 2283TIP3   OH228263   3.175   1.182  13.794  0.3291  1.0583  0.0490
 2283TIP3    H128264   3.179   1.104  13.739 -0.2215 -0.7717  2.4711
 2283TIP3    H228265   3.090   1.221  13.774 -0.9395 -0.9561  1.3118
 2284TIP3   OH228266   5.080   4.772   2.799 -0.1105 -0.2906  0.7993
 2284TIP3    H128267   5.038   4.687   2.788 -1.6151  0.6229 -0.8909
 2284TIP3    H228268   5.132   4.783   2.719  0.8096 -0.0203  1.4289
 2285TIP3   OH228269   2.725   1.043  13.539  0.1341  0.9439 -0.5049
 2285TIP3    H128270   2.648   1.006  13.495 -0.4370  1.7743 -0.2146
 2285TIP3    H228271   2.769   1.094  13.472  2.2201 -2.1063 -1.5622
 2286TIP3   OH228272   0.231   4.699  13.584 -0.5829  0.0494  0.0916
 2286TIP3    H128273   0.274   4.621  13.549 -2.4813 -0.6407 -0.7242
 2286TIP3    H228274   0.303   4.751  13.619  1.1455 -0.3914 -2.6120
 2287TIP3   OH228275   2.462   0.003   6.191 -0.1935 -0.3015 -0.3574
 2287TIP3    H128276   2.539  -0.022   6.243 -0.5775  0.2674  0.5127
 2287TIP3    H228277   2.427  -0.079   6.159  0.2895 -0.6371 -0.0349
 2288TIP3   OH228278   3.144   2.329   2.722 -0.1718 -0.1409 -0.0066
 2288TIP3    H128279   3.225   2.334   2.671  0.0692 -1.0563  0.2801
 2288TIP3    H228280   3.078   2.370   2.666  0.4524  0.4635 -0.3105
 2289TIP3   OH228281   0.761   1.367   3.756 -0.6108 -0.6494  0.2135
 2289TIP3    H128282   0.794   1.280   3.734 -0.0919 -0.5047  0.4107
 2289TIP3    H228283   0.728   1.402   3.674  1.7856  0.0981 -0.4698
 2290TIP3   OH228284   1.199   0.668  17.030  0.1120  0.5572 -0.3720
 2290TIP3    H128285   1.178   0.736  16.967  0.0641 -0.4538 -1.4747
 2290TIP3    H228286   1.294   0.659  17.024 -0.0939 -0.8666 -1.7109
 2291TIP3   OH228287   6.783   2.237  16.145 -0.0914  1.0308 -0.3232
 2291TIP3    H128288   6.866   2.283  16.129 -1.4669  3.7356 -0.0673
 2291TIP3    H228289   6.802   2.176  16.216  1.8769  1.0489 -0.8204
 2292TIP3   OH228290   0.043   4.557  12.249  0.4727  0.1110 -0.8742
 2292TIP3    H128291  -0.038   4.609  12.251  0.8790  0.7141 -0.0845
 2292TIP3    H228292   0.015   4.468  12.270  0.1878  0.5412  0.5814
 2293TIP3   OH228293   6.774   2.231   4.558 -0.0559  0.2665 -0.4499
 2293TIP3    H128294   6.816   2.296   4.501  0.1887  0.1942 -0.3505
 2293TIP3    H228295   6.710   2.281   4.609  0.2809  0.4628 -0.2211
 2294TIP3   OH228296   4.417   3.376  14.853 -0.0066 -0.1075 -0.4600
 2294TIP3    H128297   4.506   3.376  14.888 -0.6729  0.9021  1.3065
 2294TIP3    H228298   4.399   3.468  14.832  0.0024 -0.5508 -2.5705
 2295TIP3   OH228299   5.806   1.613   3.048 -0.0229 -0.2118 -0.1017
 2295TIP3    H128300   5.839   1.698   3.076 -1.1688 -0.1998  1.3197
 2295TIP3    H228301   5.866   1.585   2.979  1.2676  1.0520  0.4737
 2296TIP3   OH228302   6.354   4.363   5.473 -0.1719 -0.1418 -0.1503
 2296TIP3    H128303   6.276   4.414   5.494 -1.4049 -1.3683 -1.6580
 2296TIP3    H228304   6.356   4.361   5.377  2.9142  1.6913 -0.1653
 2297TIP3   OH228305   1.692   1.297  11.198  0.0033  0.4080  0.2760
 2297TIP3    H128306   1.766   1.253  11.240 -0.6125 -1.9760 -1.0327
 2297TIP3    H228307   1.615   1.267  11.247 -0.2973  1.2208  0.3101
 2298TIP3   OH228308   3.608   3.384  12.243  0.1253 -0.1617 -0.0377
 2298TIP3    H128309   3.659   3.433  12.179  1.0698 -0.1514  0.7063
 2298TIP3    H228310   3.525   3.432  12.250  0.7578  0.9310  0.1515
 2299TIP3   OH228311   1.226   3.320  17.142 -0.1012 -0.6355 -0.4343
 2299TIP3    H128312   1.231   3.402  17.093  0.5088 -1.4985 -1.8659
 2299TIP3    H228313   1.243   3.252  17.077  1.5440 -1.7864  1.1512
 2300TIP3   OH228314   4.658   1.387  14.545  0.3171  0.4769 -0.0267
 2300TIP3    H128315   4.625   1.384  14.635 -0.4828  3.4838 -0.1884
 2300TIP3    H228316   4.745   1.425  14.552  0.3098  0.5864 -0.5276
 2301TIP3   OH228317   6.031   4.335  15.622  0.4714  0.7813 -0.3191
 2301TIP3    H128318   5.963   4.269  15.606  0.2710  1.2285 -1.3631
 2301TIP3    H228319   6.011   4.370  15.709 -0.1085  0.2841 -0.2493
 2302TIP3   OH228320   1.402   2.250   4.992 -0.6314 -0.0323  0.6039
 2302TIP3    H128321   1.410   2.292   5.077 -3.0957  1.6376  0.0606
 2302TIP3    H228322   1.310   2.258   4.969 -0.0936 -0.7552 -2.0862
 2303TIP3   OH228323   4.911   6.632  11.879  0.5065  0.0089  0.1410
 2303TIP3    H128324   4.906   6.718  11.922  0.7115 -0.0244  0.2298
 2303TIP3    H228325   4.843   6.635  11.812  0.1199  0.0251  0.5315
 2304TIP3   OH228326   5.265   0.629   0.295  0.0891  0.5193  0.1846
 2304TIP3    H128327   5.172   0.644   0.310 -0.2153 -0.3233 -0.8497
 2304TIP3    H228328   5.286   0.553   0.349 -0.2703 -0.4984 -1.0958
 2305TIP3   OH228329   5.039   5.813  14.289 -0.5235  0.2830  0.4743
 2305TIP3    H128330   5.101   5.871  14.245  0.4604 -3.7556 -3.9182
 2305TIP3    H228331   5.093   5.758  14.345 -0.7896  0.2573  0.7070
 2306TIP3   OH228332   4.677   3.090   5.049  0.3397 -0.5023  0.5917
 2306TIP3    H128333   4.679   3.062   4.958 -3.2907 -1.7781  0.8123
 2306TIP3    H228334   4.679   3.186   5.045  1.7571 -0.5560 -0.6917
 2307TIP3   OH228335   5.125   2.492  14.389  0.0853  0.0456 -0.5530
 2307TIP3    H128336   5.042   2.451  14.364 -0.2508  1.4386 -1.7546
 2307TIP3    H228337   5.123   2.578  14.348  0.7816  1.3000  1.9507
 2308TIP3   OH228338   1.148   4.085   5.442  0.1754 -0.3308  0.8644
 2308TIP3    H128339   1.098   4.095   5.523 -0.6140 -2.4671  0.6847
 2308TIP3    H228340   1.104   4.142   5.379  1.0707  1.6978  2.0253
 2309TIP3   OH228341   1.652   4.616   2.765  0.0602  0.0241  0.1174
 2309TIP3    H128342   1.563   4.582   2.775 -0.0341 -0.0709 -0.9585
 2309TIP3    H228343   1.646   4.708   2.793  0.1758 -0.6451  2.3970
 2310TIP3   OH228344   2.924   0.228  14.380 -0.0246 -0.5011  0.4040
 2310TIP3    H128345   2.852   0.259  14.325  0.0712 -1.1410 -0.0943
 2310TIP3    H228346   2.903   0.259  14.468 -0.1581  0.5625 -0.0058
 2311TIP3   OH228347   1.058   4.413   4.366  0.1120  0.0899 -0.6570
 2311TIP3    H128348   1.130   4.476   4.360  0.1586 -0.0639 -1.9205
 2311TIP3    H228349   1.058   4.368   4.281 -1.6544  0.2844 -0.7779
 2312TIP3   OH228350   6.597   1.395  14.492 -0.0344 -0.2236  0.4784
 2312TIP3    H128351   6.613   1.490  14.489  0.1748 -0.3072 -2.0733
 2312TIP3    H228352   6.683   1.356  14.473 -0.0563 -0.9531  1.8092
 2313TIP3   OH228353   0.572   4.815  15.287 -0.4877  0.2596  0.7404
 2313TIP3    H128354   0.528   4.780  15.209 -0.6290  0.5783  0.6767
 2313TIP3    H228355   0.640   4.751  15.307  1.3394  1.4998 -1.2303
 2314TIP3   OH228356   3.274   3.316   3.149  0.0812  0.3226 -0.5014
 2314TIP3    H128357   3.254   3.394   3.097  2.2002 -0.0038 -1.8877
 2314TIP3    H228358   3.369   3.307   3.142  0.0231 -1.5351  0.8709
 2315TIP3   OH228359   2.456   1.625  15.376  0.3024  0.8086  0.3202
 2315TIP3    H128360   2.408   1.705  15.353  1.1778  1.6396  1.3040
 2315TIP3    H228361   2.496   1.645  15.461  0.5416 -0.6819  0.5707
 2316TIP3   OH228362   3.696   5.931  14.163 -0.0093  0.3741 -0.5032
 2316TIP3    H128363   3.678   5.923  14.257 -1.9386  1.3748 -0.7667
 2316TIP3    H228364   3.771   5.990  14.158 -1.3378  2.1506  0.3202
 2317TIP3   OH228365   0.275   3.638  12.455  0.3646 -0.3720  0.2108
 2317TIP3    H128366   0.356   3.642  12.505 -0.3476 -1.5646  1.4931
 2317TIP3    H228367   0.275   3.551  12.416  0.8042  0.4600 -1.7269
 2318TIP3   OH228368   4.460   0.187   3.463 -0.2459  0.1525  0.8121
 2318TIP3    H128369   4.438   0.278   3.445 -1.3727 -0.5233 -1.3861
 2318TIP3    H228370   4.552   0.189   3.488  0.0407  1.7715 -0.2829
 2319TIP3   OH228371   1.993   1.625   2.589 -0.3885  0.1921  0.4660
 2319TIP3    H128372   1.992   1.662   2.501 -0.2399  0.1434  0.4432
 2319TIP3    H228373   1.960   1.536   2.578  0.2528 -0.0363  0.3546
 2320TIP3   OH228374   4.300   3.559  16.673  0.3565  0.1063 -0.8684
 2320TIP3    H128375   4.285   3.541  16.766  2.0184 -1.5793 -0.8831
 2320TIP3    H228376   4.239   3.629  16.651 -2.3554 -1.7151  0.6912
 2321TIP3   OH228377   3.504   0.014   1.462  0.5518  0.1464  1.0613
 2321TIP3    H128378   3.482   0.081   1.526  1.5170 -0.7030  2.3145
 2321TIP3    H228379   3.482  -0.069   1.505  3.2663 -0.5725  1.2201
 2322TIP3   OH228380   1.436   0.740   0.701  0.0779  0.1014  0.1180
 2322TIP3    H128381   1.480   0.676   0.756 -1.1811  0.1303  1.1918
 2322TIP3    H228382   1.482   0.736   0.617  0.4484 -1.7048  0.3965
 2323TIP3   OH228383   6.756   0.117  10.846 -0.5551 -0.1701 -0.6037
 2323TIP3    H128384   6.845   0.123  10.811 -0.8895 -2.2790 -1.8599
 2323TIP3    H228385   6.768   0.107  10.941  0.6731 -3.3095 -1.0353
 2324TIP3   OH228386   5.908   2.382  13.836  0.1457  0.2670  0.0269
 2324TIP3    H128387   5.984   2.393  13.780 -0.7024  0.4421 -1.1058
 2324TIP3    H228388   5.924   2.441  13.910  1.4066 -0.1932  0.1342
 2325TIP3   OH228389   2.918   4.143   1.754 -0.5564 -0.2066  0.1740
 2325TIP3    H128390   3.007   4.165   1.725  0.8605 -2.7295  2.3740
 2325TIP3    H228391   2.897   4.063   1.706 -2.1006  0.9380 -1.1056
 2326TIP3   OH228392   2.034   1.465  13.812  0.8970 -0.1352 -0.3577
 2326TIP3    H128393   2.002   1.375  13.807  1.4153 -0.2829 -1.0167
 2326TIP3    H228394   2.035   1.496  13.722  2.4153 -0.0702 -0.3433
 2327TIP3   OH228395   4.379   4.714   3.351  0.3760 -0.2661  0.5540
 2327TIP3    H128396   4.373   4.618   3.348  1.7102 -0.3604  0.1980
 2327TIP3    H228397   4.422   4.732   3.434  1.6891 -0.0882 -0.1492
 2328TIP3   OH228398   5.068   3.031  15.873 -0.4822 -0.3843 -0.0223
 2328TIP3    H128399   5.111   3.011  15.791  0.5157 -0.1457  0.4334
 2328TIP3    H228400   4.999   3.094  15.850  0.8371  0.9323 -0.4496
 2329TIP3   OH228401   1.064   3.323   1.478  0.2269 -0.8223 -0.0324
 2329TIP3    H128402   1.077   3.238   1.436  1.5013 -0.7350  0.1862
 2329TIP3    H228403   1.152   3.358   1.491 -0.2501  0.1442  0.6821
 2330TIP3   OH228404   6.186   1.185   5.171 -0.2107  0.1959 -0.3698
 2330TIP3    H128405   6.096   1.188   5.141 -0.5984  0.2109  0.7673
 2330TIP3    H228406   6.180   1.168   5.265  0.9735 -0.0355 -0.3188
 2331TIP3   OH228407   2.067   6.477  15.130 -0.5406 -0.0797 -0.3670
 2331TIP3    H128408   2.146   6.427  15.152 -0.0201  0.4317 -1.0452
 2331TIP3    H228409   2.037   6.513  15.213  0.2504  0.1722 -0.1886
 2332TIP3   OH228410   4.871   1.150   3.844 -0.6020  0.4567 -0.0301
 2332TIP3    H128411   4.822   1.218   3.891  0.9266  0.7946  1.0863
 2332TIP3    H228412   4.823   1.069   3.862 -1.0030  0.8474  0.6942
 2333TIP3   OH228413   0.354   4.904  16.128 -0.5529 -0.2243  0.0123
 2333TIP3    H128414   0.299   4.956  16.070  0.1801  0.2185 -0.2908
 2333TIP3    H228415   0.438   4.950  16.130 -0.5560 -0.2374  1.4034
 2334TIP3   OH228416   3.885   3.209  16.398 -0.1290 -0.2813 -0.0668
 2334TIP3    H128417   3.950   3.245  16.337  1.2685 -0.6675  1.1786
 2334TIP3    H228418   3.915   3.235  16.484 -1.6970 -0.3857  0.5251
 2335TIP3   OH228419   1.580   2.497  14.956 -0.6849 -0.4797  0.2229
 2335TIP3    H128420   1.633   2.534  14.886 -0.4048 -0.1262  0.6175
 2335TIP3    H228421   1.520   2.436  14.912 -0.0202 -0.8042 -0.2316
 2336TIP3   OH228422   2.500   4.700  12.633 -0.1507  0.0050 -0.7172
 2336TIP3    H128423   2.541   4.647  12.701 -2.0803  0.0644  0.5740
 2336TIP3    H228424   2.559   4.775  12.622  3.1181 -2.8289 -3.3079
 2337TIP3   OH228425   4.479   2.449  15.459 -0.3104 -0.1325  0.2293
 2337TIP3    H128426   4.566   2.469  15.423 -0.7038  1.3824  0.0918
 2337TIP3    H228427   4.497   2.406  15.542  0.5792 -0.3824 -0.0857
 2338TIP3   OH228428   4.360   1.731   3.011 -0.5375 -0.1523 -0.2192
 2338TIP3    H128429   4.397   1.651   3.049  0.6540  1.9042  3.1607
 2338TIP3    H228430   4.436   1.780   2.978 -0.8546  1.2100  1.0188
 2339TIP3   OH228431   0.640   2.973  15.830 -0.3673 -0.4240  0.1100
 2339TIP3    H128432   0.618   2.885  15.861  1.0914 -0.4780  1.0305
 2339TIP3    H228433   0.642   2.965  15.734 -2.0886 -0.9294  0.0945
 2340TIP3   OH228434   4.349   1.961   3.296 -0.5745 -0.0240  0.2446
 2340TIP3    H128435   4.263   1.981   3.334 -0.2573 -0.7536  1.3915
 2340TIP3    H228436   4.411   2.007   3.352 -0.2202  0.4372 -0.5384
 2341TIP3   OH228437   1.114   2.002  13.528  0.6072 -0.3080  0.3780
 2341TIP3    H128438   1.178   1.931  13.534  0.6605 -0.1691  1.8286
 2341TIP3    H228439   1.163   2.077  13.495  1.2275 -0.1835  1.5401
 2342TIP3   OH228440   4.274   5.385   1.909  0.0415 -0.6936  0.3563
 2342TIP3    H128441   4.244   5.418   1.824  0.1943  2.6035  1.5127
 2342TIP3    H228442   4.210   5.317   1.931 -2.5111  1.3196 -0.4876
 2343TIP3   OH228443   2.084   5.673   3.925  1.1981 -0.6402  0.2228
 2343TIP3    H128444   2.014   5.672   3.990  1.1066  1.7952  0.2061
 2343TIP3    H228445   2.042   5.646   3.843  0.6013 -0.5525  0.5014
 2344TIP3   OH228446   1.016   2.973   4.699  0.6060  0.4632 -0.0916
 2344TIP3    H128447   1.053   2.915   4.766  0.9701  0.1994 -0.5203
 2344TIP3    H228448   1.091   3.003   4.648  0.3084  0.4818 -0.5247
 2345TIP3   OH228449   5.961   1.093   3.147 -0.2802 -0.5179 -0.1570
 2345TIP3    H128450   5.939   1.108   3.055 -0.3493 -3.9835 -0.7915
 2345TIP3    H228451   5.965   1.180   3.186 -0.4421  1.0015 -3.3984
 2346TIP3   OH228452   3.888   6.082   3.144 -0.2926 -0.1190 -0.2904
 2346TIP3    H128453   3.979   6.062   3.164 -0.3494 -0.3605 -0.2667
 2346TIP3    H228454   3.888   6.112   3.054 -0.0893  0.5765 -0.0590
 2347TIP3   OH228455   1.283   5.738   1.137 -0.0276 -0.0321  0.2112
 2347TIP3    H128456   1.287   5.647   1.168  0.9587  0.1413  0.6507
 2347TIP3    H228457   1.221   5.781   1.196  0.9061  0.0020  1.1874
 2348TIP3   OH228458   3.163   1.880   4.028  0.4354 -0.2914 -0.1522
 2348TIP3    H128459   3.103   1.814   4.063  1.3685 -0.1279  1.8300
 2348TIP3    H228460   3.222   1.900   4.101  2.8662 -0.3898 -2.0074
 2349TIP3   OH228461   0.325   4.527  14.077 -0.3897  0.9313 -0.1735
 2349TIP3    H128462   0.230   4.517  14.069 -0.2993  0.8384 -1.1758
 2349TIP3    H228463   0.346   4.604  14.024 -0.0082  1.4395  0.7089
 2350TIP3   OH228464   5.596   1.772   5.452 -0.6480  0.4450 -0.2373
 2350TIP3    H128465   5.527   1.749   5.515 -0.6529 -0.8965 -0.7183
 2350TIP3    H228466   5.568   1.730   5.370  2.1806 -2.5724  0.2586
 2351TIP3   OH228467   5.035   4.709   0.974  0.4916  0.7348  0.2468
 2351TIP3    H128468   5.106   4.773   0.977  0.8607  0.3163  0.5374
 2351TIP3    H228469   5.072   4.636   0.925  0.8458 -0.1936  1.8565
 2352TIP3   OH228470   4.215   1.986   2.693  0.0068 -0.0928 -0.3814
 2352TIP3    H128471   4.234   1.971   2.601  0.9477  0.1987 -0.2383
 2352TIP3    H228472   4.258   2.069   2.713 -1.1201  0.3987  0.0405
 2353TIP3   OH228473   6.267   5.380  13.504 -0.2796 -0.1238  0.6580
 2353TIP3    H128474   6.321   5.424  13.438 -0.7467  0.3794  0.6155
 2353TIP3    H228475   6.253   5.446  13.572 -1.6015  0.0347  0.2459
 2354TIP3   OH228476   5.649   3.180   1.640 -0.5698  0.1222  0.6254
 2354TIP3    H128477   5.636   3.229   1.559  0.1196  0.4432  0.6984
 2354TIP3    H228478   5.620   3.240   1.710 -1.8367 -0.4227  0.5754
 2355TIP3   OH228479   0.460   1.191   3.544  0.0303 -0.5850 -0.1674
 2355TIP3    H128480   0.439   1.238   3.625  0.4895  0.3472 -0.5876
 2355TIP3    H228481   0.383   1.204   3.488 -0.1458 -0.9492 -0.0146
 2356TIP3   OH228482   1.144   0.809  12.179 -0.2102 -0.0970  0.0926
 2356TIP3    H128483   1.214   0.871  12.154 -0.1015 -0.5416 -0.7346
 2356TIP3    H228484   1.136   0.820  12.273 -0.8387  1.8669 -0.1590
 2357TIP3   OH228485   1.932   2.676   0.349 -0.2251 -0.0861 -0.2506
 2357TIP3    H128486   1.868   2.640   0.411  1.4408 -0.8514  1.0647
 2357TIP3    H228487   1.902   2.766   0.334 -0.9797 -0.0628  1.2368
 2358TIP3   OH228488   5.719   2.574   0.174  0.3249  0.1279 -0.4538
 2358TIP3    H128489   5.653   2.537   0.232  1.0508 -0.3847  0.0467
 2358TIP3    H228490   5.780   2.618   0.233  0.4595  0.5622 -0.9160
 2359TIP3   OH228491   2.062   6.483   4.358 -0.0829 -0.6808 -0.4133
 2359TIP3    H128492   2.104   6.398   4.371  0.0630 -0.3642  1.3791
 2359TIP3    H228493   2.134   6.543   4.340 -0.0798 -0.7433 -0.6064
 2360TIP3   OH228494   6.232   2.915  12.935  0.0767  0.8745 -0.4902
 2360TIP3    H128495   6.181   2.960  13.003 -1.7299 -0.8979 -0.6382
 2360TIP3    H228496   6.172   2.850  12.898  2.4725 -1.4034 -0.5496
 2361TIP3   OH228497   0.121   5.596  16.775  0.2129 -0.2723  0.1566
 2361TIP3    H128498   0.076   5.612  16.692 -0.7310  0.8734  0.8896
 2361TIP3    H228499   0.056   5.615  16.842  1.4917  0.4721  1.1974
 2362TIP3   OH228500   0.454   1.956  13.571 -0.1650  0.4061  0.0107
 2362TIP3    H128501   0.468   2.026  13.507  3.3583  0.7935  1.0756
 2362TIP3    H228502   0.492   1.879  13.529  0.5037  0.2628  0.8750
 2363TIP3   OH228503   5.476   5.799  14.572  0.2684  0.1346  0.0758
 2363TIP3    H128504   5.479   5.731  14.639 -1.1455  1.0156  1.0443
 2363TIP3    H228505   5.561   5.794  14.529  0.8213 -1.0884  1.2934
 2364TIP3   OH228506   3.904   3.834   0.607 -0.3216 -0.6904 -0.0314
 2364TIP3    H128507   3.862   3.891   0.671 -1.7199 -1.5265 -0.1762
 2364TIP3    H228508   3.984   3.804   0.651  0.2608  1.0828  0.1619
 2365TIP3   OH228509   1.105   6.563  12.591  0.2424  0.3802  0.2685
 2365TIP3    H128510   1.064   6.477  12.581  0.3439  0.1659  1.6395
 2365TIP3    H228511   1.177   6.548  12.653  0.8443  1.2642 -0.2119
 2366TIP3   OH228512   3.255   3.150   1.912  0.1392 -0.3011 -0.0204
 2366TIP3    H128513   3.225   3.200   1.987  1.2140 -2.2296  1.7361
 2366TIP3    H228514   3.351   3.147   1.921  0.2061 -1.3999 -0.9174
 2367TIP3   OH228515   3.681   1.287  12.483 -0.6217 -0.1305 -0.7114
 2367TIP3    H128516   3.762   1.295  12.534 -0.8664 -0.5156 -0.2659
 2367TIP3    H228517   3.686   1.200  12.444  0.0692  0.5601 -2.2092
 2368TIP3   OH228518   2.050   6.423   3.457  0.3296 -0.0284  0.0124
 2368TIP3    H128519   1.968   6.424   3.507 -0.7763 -0.3917 -1.7365
 2368TIP3    H228520   2.116   6.392   3.519 -0.6646  1.1798  1.7194
 2369TIP3   OH228521   1.008   6.061  14.638  0.1941  0.1956  0.0435
 2369TIP3    H128522   1.093   6.053  14.595  0.5440 -0.7039  0.8875
 2369TIP3    H228523   0.963   5.980  14.618 -0.3616  0.5599 -0.1761
 2370TIP3   OH228524   4.004   4.540  15.805  0.6676 -0.2793 -0.1749
 2370TIP3    H128525   4.067   4.606  15.832 -1.9762  1.6950  1.4375
 2370TIP3    H228526   4.037   4.458  15.841  0.6427  1.2393  3.4800
 2371TIP3   OH228527   0.494   6.332  13.433  0.8018  0.0759  0.6946
 2371TIP3    H128528   0.578   6.345  13.389  0.6480 -0.1481  0.3305
 2371TIP3    H228529   0.511   6.264  13.499  0.5664 -1.0053 -0.3469
 2372TIP3   OH228530   0.360   3.108   0.440 -0.1746  0.0979  0.5244
 2372TIP3    H128531   0.401   3.139   0.521  1.1777 -1.4617  0.4684
 2372TIP3    H228532   0.322   3.023   0.464  2.4701 -1.6016 -1.0833
 2373TIP3   OH228533   3.904   0.117  16.022 -0.1189  0.0170  0.5485
 2373TIP3    H128534   3.969   0.083  15.961  0.0329  1.1927  0.0405
 2373TIP3    H228535   3.955   0.143  16.098  0.0039  0.9032  0.1657
 2374TIP3   OH228536   4.916   5.442   2.683  0.1446  0.1907 -0.0947
 2374TIP3    H128537   4.962   5.517   2.720 -0.3325  0.7973 -0.7214
 2374TIP3    H228538   4.824   5.456   2.707 -0.0862  0.3032 -1.0307
 2375TIP3   OH228539   3.061   2.150  11.332  0.1554 -0.5501 -0.4565
 2375TIP3    H128540   3.050   2.160  11.238  1.1545 -0.2248 -0.5443
 2375TIP3    H228541   2.979   2.111  11.362 -0.4457  0.0169 -1.3505
 2376TIP3   OH228542   4.944   5.004  12.995  0.1300  0.6854 -1.0013
 2376TIP3    H128543   5.038   4.986  12.997 -0.2782 -1.5193 -0.1350
 2376TIP3    H228544   4.934   5.085  13.045  1.5362  0.7570 -0.8160
 2377TIP3   OH228545   3.071   0.415   2.156 -0.0084 -0.1120  0.4158
 2377TIP3    H128546   3.134   0.483   2.180  0.9339 -0.5344 -0.7848
 2377TIP3    H228547   3.029   0.448   2.077  1.2362 -1.3637 -0.8183
 2378TIP3   OH228548   3.418   1.560   4.652  0.0359 -0.1825 -0.1708
 2378TIP3    H128549   3.344   1.598   4.604  1.1516  0.2340 -1.5604
 2378TIP3    H228550   3.379   1.531   4.735 -2.0268 -1.4438 -1.5316
 2379TIP3   OH228551   3.137   6.348   4.407  0.0084  0.5473 -0.4283
 2379TIP3    H128552   3.133   6.335   4.502  1.5996  0.4737 -0.3561
 2379TIP3    H228553   3.139   6.259   4.371 -2.4563  0.5386 -0.6578
 2380TIP3   OH228554   3.416   3.955  15.413  0.1206 -0.3381  0.4364
 2380TIP3    H128555   3.334   3.915  15.443  0.5373 -0.6933  1.0924
 2380TIP3    H228556   3.428   4.030  15.471 -0.4542  0.5234 -0.5367
 2381TIP3   OH228557   3.226   6.392   5.143  0.1063  0.1267 -0.2016
 2381TIP3    H128558   3.243   6.451   5.216 -0.5321  0.3955 -0.2726
 2381TIP3    H228559   3.131   6.390   5.134  0.1463 -0.4756 -0.5576
 2382TIP3   OH228560   6.205   2.962  14.847 -0.6686 -0.1265 -0.3545
 2382TIP3    H128561   6.120   2.995  14.876 -0.2619  1.6712 -1.1888
 2382TIP3    H228562   6.247   2.933  14.928 -1.9516 -0.7615  0.1017
 2383TIP3   OH228563   3.365   5.892   0.581 -0.1722 -0.4673  0.1725
 2383TIP3    H128564   3.297   5.829   0.558 -1.8748  0.8250  1.4857
 2383TIP3    H228565   3.328   5.977   0.556  2.1792  0.0199 -1.7891
 2384TIP3   OH228566   6.208   0.631  14.385  0.5706  0.3142  0.8415
 2384TIP3    H128567   6.236   0.715  14.348 -1.0704  0.2107 -0.6987
 2384TIP3    H228568   6.280   0.571  14.366  0.8629  0.8827  0.1257
 2385TIP3   OH228569   0.119   2.827   2.256 -0.3726  0.8311 -0.3465
 2385TIP3    H128570   0.201   2.778   2.248 -0.4373  0.8626 -1.2637
 2385TIP3    H228571   0.061   2.787   2.192 -1.9376 -0.8874  2.0662
 2386TIP3   OH228572   4.909   0.601   0.596  0.0733 -0.2643  0.1521
 2386TIP3    H128573   4.900   0.657   0.673  0.9409 -1.6653  1.3168
 2386TIP3    H228574   4.829   0.548   0.595  0.1840 -0.4346  0.2496
 2387TIP3   OH228575   4.306   5.714   4.696  0.2049 -0.0308 -0.6000
 2387TIP3    H128576   4.365   5.754   4.761 -0.9034  0.5256  0.0734
 2387TIP3    H228577   4.357   5.641   4.660  1.5568  0.8471 -0.5026
 2388TIP3   OH228578   3.829   0.714  15.113 -0.8886 -0.3650  0.2036
 2388TIP3    H128579   3.760   0.727  15.178 -2.3731  0.0728 -1.4214
 2388TIP3    H228580   3.825   0.620  15.092  0.0236 -0.6352  1.1983
 2389TIP3   OH228581   1.034   4.226  12.500 -0.0475 -0.1381 -0.0186
 2389TIP3    H128582   1.009   4.306  12.546  0.9591 -0.2730  0.7595
 2389TIP3    H228583   1.066   4.256  12.415  0.3556  0.2928  0.2852
 2390TIP3   OH228584   0.531   1.239  14.001 -0.1108 -0.2951 -0.0407
 2390TIP3    H128585   0.455   1.222  14.056  0.3529  0.0469  0.7097
 2390TIP3    H228586   0.500   1.299  13.934 -0.8649 -1.2973 -0.6039
 2391TIP3   OH228587   6.307   4.707  14.952 -0.0967 -1.0274  0.6994
 2391TIP3    H128588   6.320   4.769  14.881  3.0700 -0.6004  1.5748
 2391TIP3    H228589   6.252   4.754  15.015  2.9384  1.2786  1.7311
 2392TIP3   OH228590   5.886   2.844  11.427  0.1200 -0.4888 -0.3956
 2392TIP3    H128591   5.941   2.909  11.383 -0.6201 -2.1509 -3.9423
 2392TIP3    H228592   5.799   2.858  11.390 -0.6500 -1.5552  1.0088
 2393TIP3   OH228593   6.255   1.282   2.502  0.2941  0.5659  0.5879
 2393TIP3    H128594   6.223   1.224   2.571  1.4075  0.7107  1.2452
 2393TIP3    H228595   6.184   1.344   2.486 -1.2453 -1.4918 -0.7299
 2394TIP3   OH228596   2.340   5.137  14.379  0.4294 -0.1516 -1.0881
 2394TIP3    H128597   2.404   5.070  14.355 -1.7384 -2.8062  0.2684
 2394TIP3    H228598   2.341   5.138  14.475 -2.2695 -0.9860 -1.0194
 2395TIP3   OH228599   4.243   2.877  11.902 -0.9672  0.1471  0.2765
 2395TIP3    H128600   4.195   2.951  11.939  0.5382  1.3862 -0.1799
 2395TIP3    H228601   4.209   2.868  11.813 -0.3203  1.0525 -0.0629
 2396TIP3   OH228602   5.042   6.715   4.147  0.3709  0.0636 -0.1359
 2396TIP3    H128603   5.025   6.793   4.093  0.0204  0.9800  1.2682
 2396TIP3    H228604   5.052   6.749   4.236  0.5063 -1.4759  0.4559
 2397TIP3   OH228605   5.475   1.929  11.256 -0.3642  0.3556  0.2883
 2397TIP3    H128606   5.536   1.983  11.307  1.5316 -0.1275 -1.4253
 2397TIP3    H228607   5.469   1.973  11.171 -1.8146 -0.0377  0.1748
 2398TIP3   OH228608   6.077   0.031   1.298 -0.2867 -0.1762  0.0161
 2398TIP3    H128609   6.073   0.127   1.293 -0.7194 -0.2632 -1.5055
 2398TIP3    H228610   6.168   0.012   1.319 -0.1334  0.5553  0.0302
 2399TIP3   OH228611   4.211   5.988  13.443 -0.5098 -0.0142 -0.0751
 2399TIP3    H128612   4.239   5.958  13.356 -0.8348 -1.4856  0.3254
 2399TIP3    H228613   4.292   6.008  13.489 -0.3030  0.0442 -0.4598
 2400TIP3   OH228614   4.789   3.678   4.801  0.1213 -0.5401 -0.2097
 2400TIP3    H128615   4.804   3.620   4.875 -1.0738 -0.5295  0.0492
 2400TIP3    H228616   4.871   3.674   4.750  0.6349 -1.1845  0.6567
 2401TIP3   OH228617   6.278   2.112   2.603 -0.5291 -0.2365 -0.2158
 2401TIP3    H128618   6.314   2.055   2.672 -1.4482  1.2929  1.5432
 2401TIP3    H228619   6.200   2.151   2.642  0.3998  2.7000 -1.1599
 2402TIP3   OH228620   5.415   3.659  11.275  0.1287 -0.3620 -0.9782
 2402TIP3    H128621   5.473   3.606  11.221 -0.1954 -1.6747 -0.0767
 2402TIP3    H228622   5.471   3.724  11.316  0.7477 -0.7768 -1.1672
 2403TIP3   OH228623   2.179   4.320   5.298 -0.5045 -0.5229 -0.4009
 2403TIP3    H128624   2.149   4.246   5.245  1.1661 -0.1026 -1.9780
 2403TIP3    H228625   2.274   4.307   5.306 -0.8933 -1.4532  3.9098
 2404TIP3   OH228626   0.094   1.002   0.778  0.2503  0.1859  0.8459
 2404TIP3    H128627   0.105   1.074   0.716 -1.4991  0.3922  0.7526
 2404TIP3    H228628   0.121   1.038   0.862  0.8432  0.4802  0.5270
 2405TIP3   OH228629   3.320   2.816   1.876  0.4862  0.4681  0.2400
 2405TIP3    H128630   3.385   2.882   1.899  0.4963  0.3657  0.5094
 2405TIP3    H228631   3.250   2.865   1.833  1.1067  0.4662 -0.7875
 2406TIP3   OH228632   6.151   2.374   5.225  0.3447 -0.0645  0.0062
 2406TIP3    H128633   6.208   2.390   5.301  0.2834 -0.3865  0.1175
 2406TIP3    H228634   6.071   2.424   5.245 -0.2829 -1.3772  0.8655
 2407TIP3   OH228635   2.608   6.579  12.792 -0.2710 -0.3346 -0.2239
 2407TIP3    H128636   2.694   6.542  12.775  0.4716  0.3911  1.7895
 2407TIP3    H228637   2.619   6.673  12.775  0.0826  0.1691  2.5198
 2408TIP3   OH228638   0.955   1.326   0.804 -0.0036  0.4761  0.0131
 2408TIP3    H128639   1.018   1.398   0.803 -0.6306  1.0341  0.3911
 2408TIP3    H228640   0.874   1.365   0.770 -0.3638 -0.0320  0.2900
 2409TIP3   OH228641   3.059   5.761  16.153  0.3789 -0.3244 -0.5194
 2409TIP3    H128642   3.030   5.674  16.127  0.2155 -0.2154 -0.6984
 2409TIP3    H228643   3.104   5.795  16.076 -0.9304  0.3727 -0.9912
 2410TIP3   OH228644   0.685   3.727  14.343  0.2665 -0.0476  0.0872
 2410TIP3    H128645   0.780   3.716  14.339  0.1584 -0.5387 -3.8701
 2410TIP3    H228646   0.649   3.639  14.331 -0.6502  0.3928 -0.5502
 2411TIP3   OH228647   4.488   1.098  16.491  0.1008  0.3252  0.0701
 2411TIP3    H128648   4.415   1.149  16.457 -1.3410 -2.6498 -1.5451
 2411TIP3    H228649   4.534   1.068  16.412  2.2520  0.9779  1.0346
 2412TIP3   OH228650   5.966   6.242  15.754 -0.0475  0.2029  0.3301
 2412TIP3    H128651   5.927   6.276  15.834  0.2095  1.2429  0.0290
 2412TIP3    H228652   5.909   6.274  15.684  0.8805  1.0496 -0.0516
 2413TIP3   OH228653   2.641   4.942  11.780 -0.1433  0.3299 -0.1494
 2413TIP3    H128654   2.606   4.866  11.734  2.5127 -1.0904  0.0350
 2413TIP3    H228655   2.571   4.968  11.840 -1.5177 -1.3116 -0.9888
 2414TIP3   OH228656   5.148   2.472   3.024 -0.2749 -0.5218 -0.4663
 2414TIP3    H128657   5.055   2.451   3.035 -0.4145  1.7397  3.2912
 2414TIP3    H228658   5.191   2.429   3.097  1.3484  0.4358 -0.8439
 2415TIP3   OH228659   4.422   3.825  14.505  0.1029 -0.1184 -0.2432
 2415TIP3    H128660   4.509   3.834  14.466 -0.1645 -0.8896 -1.0378
 2415TIP3    H228661   4.381   3.754  14.455 -1.0612  0.3862 -0.0156
 2416TIP3   OH228662   1.961   3.786  15.394 -0.2508 -0.1545  0.2732
 2416TIP3    H128663   2.051   3.762  15.417  0.0227  1.2270  0.6753
 2416TIP3    H228664   1.941   3.862  15.448 -1.0465  0.6107 -1.0512
 2417TIP3   OH228665   5.929   0.994  16.915  0.6141  0.4331 -0.5779
 2417TIP3    H128666   5.934   0.916  16.860 -0.8118  0.0662 -0.2054
 2417TIP3    H228667   5.848   1.036  16.889 -0.7827 -0.4459  2.1393
 2418TIP3   OH228668   3.117   6.207  16.869 -0.5254  0.2916  0.3635
 2418TIP3    H128669   3.095   6.175  16.956 -3.8133  0.5502 -0.3394
 2418TIP3    H228670   3.127   6.127  16.816 -0.7741  0.2022  0.4523
 2419TIP3   OH228671   6.756   0.238  14.512  0.4674 -0.1791  0.5623
 2419TIP3    H128672   6.804   0.284  14.443 -0.8233 -1.8450 -1.4722
 2419TIP3    H228673   6.816   0.241  14.587  2.4407  0.5327 -0.9785
 2420TIP3   OH228674   2.025   5.436  10.344  0.0152  0.0740  0.6752
 2420TIP3    H128675   2.034   5.511  10.404  2.6340  1.2171 -1.0260
 2420TIP3    H228676   2.100   5.380  10.364 -0.6571 -0.9429  0.3733
 2421TIP3   OH228677   1.757   4.403   3.555  0.6520 -0.2739  0.2952
 2421TIP3    H128678   1.668   4.377   3.530  0.2908  1.0735  0.1185
 2421TIP3    H228679   1.794   4.438   3.474  1.2523 -0.5833  0.4395
 2422TIP3   OH228680   4.522   3.849   5.522  0.3571  0.2232  0.6354
 2422TIP3    H128681   4.447   3.895   5.483  0.9306 -1.2612 -2.2927
 2422TIP3    H228682   4.484   3.800   5.595 -1.5056 -0.3740 -0.7072
 2423TIP3   OH228683   0.537   4.864   2.762 -0.2589  0.2894  0.9821
 2423TIP3    H128684   0.493   4.875   2.677  0.2134  1.2856  0.8578
 2423TIP3    H228685   0.596   4.789   2.750  1.0222  1.4512 -0.0839
 2424TIP3   OH228686   3.130   0.344  17.010 -0.6517  0.1935 -0.2935
 2424TIP3    H128687   3.050   0.396  17.018 -0.5978  0.0896  0.9513
 2424TIP3    H228688   3.115   0.268  17.066  0.3495  0.2115  0.0033
 2425TIP3   OH228689   1.379   6.460   6.359 -0.1574 -0.4032  1.2498
 2425TIP3    H128690   1.363   6.544   6.318  0.0530 -0.6443  0.6687
 2425TIP3    H228691   1.471   6.464   6.387  0.7330 -1.5031 -1.3476
 2426TIP3   OH228692   5.551   5.867  14.214 -0.5273  0.5031  0.1142
 2426TIP3    H128693   5.605   5.840  14.288  1.7457 -0.0279 -1.6734
 2426TIP3    H228694   5.564   5.962  14.209 -0.5136  0.5100  0.2556
 2427TIP3   OH228695   3.142   3.788   2.671 -0.3750 -0.2332  0.1701
 2427TIP3    H128696   3.230   3.794   2.634  0.2622 -1.4233  1.4402
 2427TIP3    H228697   3.106   3.708   2.635  0.3328 -1.5202  2.2391
 2428TIP3   OH228698   4.339   4.667  12.745  0.8045 -0.3055 -0.5024
 2428TIP3    H128699   4.268   4.603  12.740  1.7778 -1.3901 -0.8200
 2428TIP3    H228700   4.386   4.645  12.825  0.2481  0.9949  0.1936
 2429TIP3   OH228701   1.444   4.027   3.594 -0.0761  0.3344 -0.7189
 2429TIP3    H128702   1.470   4.081   3.669  0.8757 -0.3681 -0.5278
 2429TIP3    H228703   1.440   3.938   3.630  1.1116 -0.1150 -1.6595
 2430TIP3   OH228704   5.060   6.159  14.019 -0.8749 -0.2481 -0.0178
 2430TIP3    H128705   5.083   6.250  14.037 -0.4407 -0.4019  0.2364
 2430TIP3    H228706   4.986   6.163  13.959  0.9202  0.2844 -2.2408
 2431TIP3   OH228707   4.112   3.472  15.947  0.5875 -0.2358  0.4108
 2431TIP3    H128708   4.099   3.499  15.856  0.8198 -0.4148  0.3244
 2431TIP3    H228709   4.070   3.387  15.953 -0.5446  0.3503  0.7999
 2432TIP3   OH228710   0.619   0.091  11.360 -1.0185  0.5634 -0.5983
 2432TIP3    H128711   0.619   0.098  11.265 -0.1192 -1.6615 -0.7849
 2432TIP3    H228712   0.558   0.021  11.380 -1.2418  1.0494  0.4742
 2433TIP3   OH228713   4.366   4.667  14.307 -0.1032 -0.0381 -0.2751
 2433TIP3    H128714   4.408   4.674  14.221 -1.4366 -0.7624 -0.9978
 2433TIP3    H228715   4.437   4.643  14.366  0.8146  0.3863 -1.1807
 2434TIP3   OH228716   2.392   5.822  16.968 -0.3895  0.5942  0.3103
 2434TIP3    H128717   2.438   5.745  17.000 -0.3152  0.0752 -1.0318
 2434TIP3    H228718   2.456   5.867  16.913 -0.9499  0.7734 -0.1962
 2435TIP3   OH228719   0.053   2.761   6.506 -0.4825 -0.3663 -0.7593
 2435TIP3    H128720   0.025   2.852   6.511  1.3430  0.1275  0.8139
 2435TIP3    H228721   0.133   2.763   6.453  0.2425 -0.8827  0.3011
 2436TIP3   OH228722   4.172   6.187   0.269 -0.1146  0.0762  0.4212
 2436TIP3    H128723   4.089   6.230   0.290 -1.1286 -1.5099 -0.2740
 2436TIP3    H228724   4.237   6.257   0.275 -1.5329  1.3931  0.7486
 2437TIP3   OH228725   5.545   3.715   0.026  0.0445 -0.0963 -0.2425
 2437TIP3    H128726   5.459   3.673   0.031 -0.1651  0.3736  0.0661
 2437TIP3    H228727   5.606   3.648   0.056  0.1038 -1.3888 -3.0556
 2438TIP3   OH228728   1.681   4.323   0.752 -0.2742  0.1465  0.4679
 2438TIP3    H128729   1.679   4.396   0.690 -0.5619 -0.9293 -0.8092
 2438TIP3    H228730   1.725   4.358   0.829  1.0370  1.1937 -0.7421
 2439TIP3   OH228731   6.561   6.107  12.511 -0.5759  0.4914  0.3038
 2439TIP3    H128732   6.636   6.136  12.564  1.1394 -0.6985 -1.4199
 2439TIP3    H228733   6.517   6.042  12.566  2.8929 -2.9588 -0.7771
 2440TIP3   OH228734   2.025   2.996  14.179 -0.5887  0.4549 -0.5191
 2440TIP3    H128735   1.952   3.043  14.137 -1.4466  0.0436  0.4826
 2440TIP3    H228736   2.060   3.059  14.242 -1.1679  0.0828  0.1893
 2441TIP3   OH228737   4.530   5.706  13.123 -0.2815 -0.2525 -0.4743
 2441TIP3    H128738   4.570   5.786  13.090 -0.5260  0.0648 -0.0063
 2441TIP3    H228739   4.484   5.669  13.048 -0.5103  0.2585 -0.5840
 2442TIP3   OH228740   2.463   0.673  14.200 -0.0099  0.5048 -0.2057
 2442TIP3    H128741   2.556   0.698  14.198 -0.2583  1.4983  0.2290
 2442TIP3    H228742   2.428   0.719  14.277 -0.0614 -2.7979  1.8169
 2443TIP3   OH228743   2.869   6.510   6.117 -0.8926  0.1440  0.4699
 2443TIP3    H128744   2.841   6.601   6.105 -1.3967 -0.4093 -3.2253
 2443TIP3    H228745   2.964   6.516   6.129 -0.5276  1.0386 -2.4651
 2444TIP3   OH228746   0.942   2.242  13.739 -0.5498  0.1895  0.5188
 2444TIP3    H128747   0.977   2.254  13.650 -0.5694 -0.3957  0.4319
 2444TIP3    H228748   0.858   2.290  13.738 -1.1831 -0.9216 -0.1837
 2445TIP3   OH228749   5.636   4.519  14.251  0.2175 -1.0391  0.6797
 2445TIP3    H128750   5.578   4.567  14.310  2.0489  1.1364  0.7632
 2445TIP3    H228751   5.723   4.554  14.269  0.8958 -0.6047 -2.9596
 2446TIP3   OH228752   2.191   0.864  11.818 -0.4604  0.0371 -0.7064
 2446TIP3    H128753   2.236   0.931  11.870 -1.2575 -0.1181  0.1919
 2446TIP3    H228754   2.231   0.782  11.845 -1.1774 -0.0864 -0.0181
 2447TIP3   OH228755   2.121   2.724  15.296  0.5976  0.9542  0.1541
 2447TIP3    H128756   2.140   2.677  15.377 -0.0777  0.0783 -0.1779
 2447TIP3    H228757   2.206   2.729  15.251  0.8265  0.7391  0.5557
 2448TIP3   OH228758   3.301   6.373   2.115 -0.1403  0.1412  0.4057
 2448TIP3    H128759   3.229   6.430   2.144 -1.0678 -1.1064  0.6021
 2448TIP3    H228760   3.259   6.289   2.096  0.9147  0.0475 -1.6759
 2449TIP3   OH228761   0.157   3.235  13.112 -0.0100  0.1693  0.1563
 2449TIP3    H128762   0.099   3.159  13.121 -0.0017  0.2245  0.6660
 2449TIP3    H228763   0.100   3.303  13.075  0.7063 -0.9743 -3.2450
 2450TIP3   OH228764   5.044   2.825   1.776 -0.4746 -0.2722  0.2795
 2450TIP3    H128765   5.033   2.808   1.870 -1.0027  1.3638  0.5340
 2450TIP3    H228766   4.964   2.792   1.736  0.2644 -2.0586  0.2445
 2451TIP3   OH228767   2.235   5.354  13.798 -0.1264  0.7065 -0.4532
 2451TIP3    H128768   2.234   5.443  13.834 -1.4607  0.8299 -0.7673
 2451TIP3    H228769   2.325   5.342  13.766  0.4227  1.4449  0.7858
 2452TIP3   OH228770   0.363   4.236  13.601  0.2395 -0.0939  0.1789
 2452TIP3    H128771   0.325   4.148  13.593  0.4761 -0.1668 -0.1293
 2452TIP3    H228772   0.306   4.292  13.548  0.6855 -0.2413 -0.4617
 2453TIP3   OH228773   4.015   3.423   3.515  0.8142 -0.9107  0.4438
 2453TIP3    H128774   3.919   3.412   3.515  0.6331  0.5944  0.1366
 2453TIP3    H228775   4.036   3.448   3.605  0.7491  0.1616  0.1611
 2454TIP3   OH228776   6.414   3.720  12.376  0.2726 -0.8027  0.6937
 2454TIP3    H128777   6.449   3.738  12.463  0.8161 -0.2351  0.3633
 2454TIP3    H228778   6.447   3.792  12.321  1.3847 -2.1026 -0.3717
 2455TIP3   OH228779   5.320   0.464   1.958 -0.7781 -0.4720  0.0896
 2455TIP3    H128780   5.266   0.524   2.009 -1.3573 -0.7738 -0.1673
 2455TIP3    H228781   5.376   0.421   2.023  1.0558  1.7514  0.0850
 2456TIP3   OH228782   6.678   0.870  16.872  0.2243  0.4687  0.0361
 2456TIP3    H128783   6.626   0.831  16.802  1.4258 -1.7440  0.3180
 2456TIP3    H228784   6.702   0.956  16.839 -0.3589 -0.0214 -1.7124
 2457TIP3   OH228785   2.044   0.170  13.403  0.6899  0.2430  0.1378
 2457TIP3    H128786   2.116   0.220  13.443 -0.6958  0.2922  2.6623
 2457TIP3    H228787   1.965   0.219  13.426 -0.3240 -0.8582 -0.9440
 2458TIP3   OH228788   0.225   3.134  16.514 -0.0609 -0.4228 -0.1451
 2458TIP3    H128789   0.236   3.106  16.605  1.6191 -0.0803 -0.2409
 2458TIP3    H228790   0.250   3.057  16.463 -1.5458 -0.8031 -0.3323
 2459TIP3   OH228791   1.241   5.762  14.805 -0.7331 -0.7452  0.5218
 2459TIP3    H128792   1.192   5.756  14.887  0.7674  1.3443  1.6173
 2459TIP3    H228793   1.229   5.852  14.776  1.0834 -0.6511 -0.0385
 2460TIP3   OH228794   0.019   0.539  12.861 -0.1564 -0.2589  0.1412
 2460TIP3    H128795  -0.068   0.510  12.890  0.6444 -0.4169  2.5488
 2460TIP3    H228796   0.002   0.618  12.810 -1.7261 -0.3575  0.4770
 2461TIP3   OH228797   6.125   1.981   5.915 -0.4513  0.0766 -0.4364
 2461TIP3    H128798   6.215   1.959   5.893 -0.0544  1.3382 -0.1025
 2461TIP3    H228799   6.096   1.910   5.973  1.2803  1.1091  1.7955
 2462TIP3   OH228800   2.625   2.273   2.057 -0.0720 -0.0672  0.1699
 2462TIP3    H128801   2.538   2.300   2.085  0.0595 -0.2988  0.8060
 2462TIP3    H228802   2.611   2.189   2.013 -0.0469 -0.5571  1.0959
 2463TIP3   OH228803   3.631   6.769   3.754 -0.2317 -0.3571  0.4157
 2463TIP3    H128804   3.631   6.863   3.771  1.6048 -0.3060  0.2955
 2463TIP3    H228805   3.544   6.740   3.780 -0.2494  1.0938  2.1460
 2464TIP3   OH228806   4.578   5.569  16.277  0.1266 -0.0315 -0.3562
 2464TIP3    H128807   4.544   5.516  16.205 -2.1863 -1.6363  1.8427
 2464TIP3    H228808   4.530   5.651  16.272 -1.4271 -0.8673  0.4601
 2465TIP3   OH228809   1.456   4.527  12.875 -0.2385  0.6768 -0.2998
 2465TIP3    H128810   1.540   4.501  12.838 -0.3807  1.7140 -1.3982
 2465TIP3    H228811   1.471   4.531  12.970  0.5309 -0.5858 -0.3550
 2466TIP3   OH228812   3.518   2.110   4.148  0.4565  0.0864  0.2786
 2466TIP3    H128813   3.470   2.102   4.066  1.2241 -0.8973 -0.0858
 2466TIP3    H228814   3.484   2.190   4.188  0.1587  0.6396 -1.0456
 2467TIP3   OH228815   1.449   1.668  15.140 -0.5180 -0.2827  0.4862
 2467TIP3    H128816   1.380   1.735  15.150  1.4834  1.8554  0.4447
 2467TIP3    H228817   1.446   1.619  15.222 -1.2173  0.6291  1.0240
 2468TIP3   OH228818   5.251   3.222   4.809  0.0656  0.0826  0.0839
 2468TIP3    H128819   5.326   3.184   4.762 -0.2810 -0.1047 -0.3186
 2468TIP3    H228820   5.288   3.254   4.892  0.4954 -0.4744  0.1076
 2469TIP3   OH228821   0.038   1.069  15.746  0.1395 -0.2675 -0.4189
 2469TIP3    H128822  -0.001   1.157  15.748  1.3822  0.2579  0.7910
 2469TIP3    H228823  -0.035   1.011  15.724 -1.5356  0.6112  2.6101
 2470TIP3   OH228824   4.017   5.492   5.399 -0.1943 -0.0635  0.5399
 2470TIP3    H128825   4.000   5.493   5.493 -0.2274 -0.4813  0.5393
 2470TIP3    H228826   3.931   5.508   5.359 -0.2143 -0.0764  0.5766
 2471TIP3   OH228827   2.816   6.711  16.351 -0.4264  0.7176 -0.2837
 2471TIP3    H128828   2.901   6.669  16.355 -0.5065  0.4092 -1.6030
 2471TIP3    H228829   2.818   6.777  16.421  0.6263  0.2405  0.1381
 2472TIP3   OH228830   0.030   1.339  12.286  0.0973  0.6168 -0.2558
 2472TIP3    H128831  -0.038   1.388  12.241 -0.5476 -1.5305 -1.7071
 2472TIP3    H228832   0.101   1.332  12.222 -1.1275 -3.1178 -1.3332
 2473TIP3   OH228833   5.323   5.585  16.538 -0.0333  0.3360 -0.2134
 2473TIP3    H128834   5.262   5.563  16.609 -1.2220 -0.4729 -1.4453
 2473TIP3    H228835   5.300   5.675  16.514  1.3599  1.1475  1.3801
 2474TIP3   OH228836   0.633   5.084  15.363 -0.1298 -0.2325  0.1299
 2474TIP3    H128837   0.549   5.090  15.407  0.7113  2.0557  1.5194
 2474TIP3    H228838   0.636   4.995  15.327 -1.7286 -1.4409  2.8813
 2475TIP3   OH228839   3.153   2.469   3.275 -0.1699  0.3432  0.0491
 2475TIP3    H128840   3.220   2.517   3.324  1.1416 -0.5275 -0.8447
 2475TIP3    H228841   3.175   2.486   3.183 -0.4249 -0.9656 -0.2594
 2476TIP3   OH228842   1.764   5.773  16.265 -0.1270 -0.3572  0.4304
 2476TIP3    H128843   1.716   5.713  16.207  0.5373 -0.2877 -0.2031
 2476TIP3    H228844   1.849   5.784  16.222 -0.7210  2.1173 -0.1898
 2477TIP3   OH228845   5.954   3.888  13.543  0.4540  0.3501  0.4250
 2477TIP3    H128846   6.034   3.937  13.524  0.8727  0.2375  1.8199
 2477TIP3    H228847   5.889   3.923  13.482  1.0919  1.7153  0.4989
 2478TIP3   OH228848   2.410   3.437  15.850 -0.8675  0.3672 -0.9478
 2478TIP3    H128849   2.383   3.518  15.808 -1.8010  0.9216  0.6742
 2478TIP3    H228850   2.374   3.368  15.795 -2.7561  1.0831 -0.6509
 2479TIP3   OH228851   1.312   0.844  13.109 -0.1778  0.5186 -0.0422
 2479TIP3    H128852   1.231   0.860  13.061  0.4342  0.3235 -1.1512
 2479TIP3    H228853   1.319   0.917  13.170 -0.7714  0.9562 -0.5009
 2480TIP3   OH228854   0.348   1.890   1.442 -0.3483  0.9926 -0.5971
 2480TIP3    H128855   0.288   1.953   1.402 -2.0911  0.3313  0.9154
 2480TIP3    H228856   0.391   1.939   1.512 -0.5661  0.9299 -0.4189
 2481TIP3   OH228857   4.437   0.471  11.700 -0.0873 -0.8885 -0.3830
 2481TIP3    H128858   4.412   0.395  11.647  1.1734 -1.2173 -0.5277
 2481TIP3    H228859   4.478   0.433  11.778  2.0541 -0.3291 -1.2254
 2482TIP3   OH228860   2.219   4.759  15.901 -0.4782  0.2559  0.6357
 2482TIP3    H128861   2.153   4.691  15.889 -1.2560  1.1541 -0.2564
 2482TIP3    H228862   2.301   4.719  15.873 -0.9072 -0.3483  0.2423
 2483TIP3   OH228863   0.458   6.213  14.916  0.6150 -0.0987 -0.3286
 2483TIP3    H128864   0.412   6.245  14.838  0.4405 -0.3430 -0.3259
 2483TIP3    H228865   0.491   6.127  14.890  1.5677  0.3249 -0.5296
 2484TIP3   OH228866   5.231   1.237  12.246  0.2879 -0.8549  0.2464
 2484TIP3    H128867   5.294   1.173  12.279 -1.5873 -0.9440  3.9552
 2484TIP3    H228868   5.219   1.298  12.319 -3.0068 -0.1675 -0.7891
 2485TIP3   OH228869   3.406   4.521   5.229  0.7631 -0.5503 -0.1563
 2485TIP3    H128870   3.412   4.500   5.322  0.6799 -0.8936 -0.2291
 2485TIP3    H228871   3.459   4.600   5.219  1.1852 -0.8047  0.0848
 2486TIP3   OH228872   3.839   6.004   2.107  0.5562 -0.0054  0.0389
 2486TIP3    H128873   3.851   6.099   2.113  0.6339 -0.1406  2.5715
 2486TIP3    H228874   3.903   5.968   2.168 -1.6848 -1.5125  1.5379
 2487TIP3   OH228875   1.447   2.449  11.638 -0.4182  0.3240 -0.0020
 2487TIP3    H128876   1.460   2.443  11.733 -0.8979  0.8577  0.1047
 2487TIP3    H228877   1.407   2.535  11.626  0.2219  0.5138 -0.7531
 2488TIP3   OH228878   4.740   4.640   0.796 -0.2165  0.8030  0.0420
 2488TIP3    H128879   4.806   4.572   0.785  0.7892  1.4145  1.9873
 2488TIP3    H228880   4.660   4.594   0.821 -0.7873 -0.0087 -2.9850
 2489TIP3   OH228881   3.185   1.469  12.983 -0.6839 -0.1966 -0.2637
 2489TIP3    H128882   3.231   1.540  13.028  0.8402 -0.1559 -1.8435
 2489TIP3    H228883   3.243   1.444  12.911 -2.5196 -1.0754 -1.4842
 2490TIP3   OH228884   4.967   3.386  16.045 -0.2892  0.0438  0.1802
 2490TIP3    H128885   5.032   3.361  16.111 -1.2981  0.2282  1.2748
 2490TIP3    H228886   4.939   3.474  16.070 -1.2366 -0.1833 -0.0276
 2491TIP3   OH228887   6.113   5.039   5.142 -0.3450  0.2213  0.3377
 2491TIP3    H128888   6.138   5.125   5.176  1.7306  0.1337 -0.8822
 2491TIP3    H228889   6.067   5.059   5.060  0.1881  0.1724  0.0252
 2492TIP3   OH228890   3.423   3.728   1.500 -0.0055 -0.2889 -0.2739
 2492TIP3    H128891   3.493   3.720   1.564  0.2731 -1.0878 -0.6722
 2492TIP3    H228892   3.393   3.819   1.507 -0.7335 -0.6640  1.7698
 2493TIP3   OH228893   2.644   5.927   0.861 -0.0688  0.4671  0.5413
 2493TIP3    H128894   2.694   5.852   0.828  1.4490  1.8825 -0.4365
 2493TIP3    H228895   2.578   5.943   0.794 -0.0615  0.3152  0.4983
 2494TIP3   OH228896   5.528   3.358   1.828  0.4067  0.0249 -0.5038
 2494TIP3    H128897   5.440   3.380   1.858  0.4247  0.9304 -1.0860
 2494TIP3    H228898   5.558   3.290   1.888 -0.5399 -0.0107 -0.0664
 2495TIP3   OH228899   3.663   6.249  13.605  0.4741  0.0095  0.0097
 2495TIP3    H128900   3.669   6.201  13.522  0.2352 -0.2553  0.1442
 2495TIP3    H228901   3.754   6.259  13.633  0.5857  0.4906 -0.5083
 2496TIP3   OH228902   6.719   0.812  15.838 -0.1519 -0.0693 -0.7519
 2496TIP3    H128903   6.661   0.867  15.786 -0.5416  0.1335 -0.1071
 2496TIP3    H228904   6.695   0.722  15.813 -1.5123 -0.0150  0.3224
 2497TIP3   OH228905   3.840   6.598   4.430  0.0624  0.8470  0.2460
 2497TIP3    H128906   3.746   6.576   4.436 -0.0258  1.8243  3.2559
 2497TIP3    H228907   3.843   6.693   4.436  1.2544  0.8231  0.0646
 2498TIP3   OH228908   0.265   4.210   5.412  0.2550 -0.0205  0.5221
 2498TIP3    H128909   0.251   4.279   5.477 -0.9185  0.3413 -0.1122
 2498TIP3    H228910   0.347   4.168   5.439  0.4373  0.9538  1.5006
 2499TIP3   OH228911   2.972   4.450  15.847 -0.0948  0.2016  0.6251
 2499TIP3    H128912   2.908   4.384  15.821  0.5866 -0.7752  1.3913
 2499TIP3    H228913   3.050   4.429  15.795  0.5617 -0.4279  1.8467
 2500TIP3   OH228914   6.397   4.541  15.619  0.2567  0.0530  0.4396
 2500TIP3    H128915   6.444   4.611  15.665  0.6364 -1.1679  1.9247
 2500TIP3    H228916   6.306   4.571  15.618  0.5506  0.9559  0.3358
 2501TIP3   OH228917   4.378   6.143  11.386  0.1973 -0.3213  0.5219
 2501TIP3    H128918   4.446   6.116  11.324 -0.1939  0.0170 -0.0553
 2501TIP3    H228919   4.339   6.061  11.416  0.6139 -0.5015  0.5747
 2502TIP3   OH228920   6.436   4.694   3.269 -0.2880 -0.4776  0.7410
 2502TIP3    H128921   6.490   4.641   3.328 -0.6277 -0.7335  0.8276
 2502TIP3    H228922   6.362   4.636   3.247 -0.4718 -0.1684  0.5459
 2503TIP3   OH228923   1.518   1.845   3.979 -0.4496 -0.3911  0.0552
 2503TIP3    H128924   1.501   1.925   3.929 -0.4390 -1.3756 -1.5410
 2503TIP3    H228925   1.450   1.784   3.953 -2.3826  0.0800  3.6398
 2504TIP3   OH228926   5.259   2.931   6.187  0.2129 -0.1655  0.2979
 2504TIP3    H128927   5.355   2.934   6.185  0.2654 -1.1256  0.9105
 2504TIP3    H228928   5.239   2.878   6.264 -0.8001 -0.4575 -0.1651
 2505TIP3   OH228929   4.644   5.082  12.233 -0.0542 -0.1668 -0.3566
 2505TIP3    H128930   4.563   5.035  12.215 -0.1839 -0.0076 -0.1855
 2505TIP3    H228931   4.710   5.037  12.180 -0.1481 -0.6261 -0.0853
 2506TIP3   OH228932   1.373   5.277  14.361 -0.8691 -0.2094 -0.2985
 2506TIP3    H128933   1.330   5.257  14.444 -0.0984  2.2198  0.7345
 2506TIP3    H228934   1.301   5.294  14.301 -1.4036  1.1216  0.7018
 2507TIP3   OH228935   1.668   5.649  16.756 -0.4360 -0.6856  0.5244
 2507TIP3    H128936   1.623   5.734  16.750  0.8904 -0.0880 -1.6403
 2507TIP3    H228937   1.735   5.662  16.823  1.1603  0.6987 -1.2821
 2508TIP3   OH228938   5.584   2.361   3.623 -0.1280 -0.2441  0.3964
 2508TIP3    H128939   5.504   2.414   3.612 -0.4229 -0.6423  0.6085
 2508TIP3    H228940   5.638   2.383   3.547 -0.4267  0.0516  0.2675
 2509TIP3   OH228941   2.664   1.819   2.881  0.1217  0.0344  1.1301
 2509TIP3    H128942   2.681   1.905   2.844 -1.2941 -0.0339  0.3109
 2509TIP3    H228943   2.569   1.808   2.877  0.3557 -1.9985  0.2173
 2510TIP3   OH228944   3.233   3.395  17.069  0.1659 -0.4863  0.1905
 2510TIP3    H128945   3.224   3.490  17.061  2.3165 -0.2340  0.2579
 2510TIP3    H228946   3.199   3.374  17.156  0.7722  0.4131  0.6536
 2511TIP3   OH228947   3.333   0.698   1.759 -0.3430  0.4263 -0.3694
 2511TIP3    H128948   3.410   0.663   1.805 -1.2935 -1.0961  0.1024
 2511TIP3    H228949   3.368   0.733   1.678  0.9377  0.2519  0.0888
 2512TIP3   OH228950   5.472   0.125   3.738 -0.2024 -0.2212 -0.1081
 2512TIP3    H128951   5.544   0.180   3.769  0.0292 -1.0150  0.8025
 2512TIP3    H228952   5.420   0.107   3.817 -0.6186 -0.7764 -0.5058
 2513TIP3   OH228953   1.430   6.096  13.146  0.4915  0.3997 -0.3992
 2513TIP3    H128954   1.501   6.141  13.191  2.3581 -2.1338 -0.6654
 2513TIP3    H228955   1.350   6.133  13.183  1.9685  1.3349  1.9755
 2514TIP3   OH228956   5.427   5.616  13.600  0.1580 -0.1297 -0.2797
 2514TIP3    H128957   5.420   5.690  13.541 -1.9185  0.5614  0.7768
 2514TIP3    H228958   5.485   5.554  13.555  0.4666  1.3501 -1.9596
 2515TIP3   OH228959   4.353   5.675   0.071  0.2044  0.1455  0.2819
 2515TIP3    H128960   4.287   5.725   0.022 -0.5160 -1.2747 -0.2204
 2515TIP3    H228961   4.419   5.652   0.006  1.2593  1.5985  0.7928
 2516TIP3   OH228962   0.595   0.981  13.616 -0.2275  0.3661 -0.6914
 2516TIP3    H128963   0.613   0.984  13.709  3.1343  3.4739 -1.3249
 2516TIP3    H228964   0.521   1.041  13.603 -0.9988 -0.4253 -0.0182
 2517TIP3   OH228965   4.851   3.635   4.466  0.4297  0.3600 -0.3538
 2517TIP3    H128966   4.765   3.649   4.505  1.4044  0.9834  1.6256
 2517TIP3    H228967   4.852   3.541   4.445 -0.5582  0.2470  0.0320
 2518TIP3   OH228968   1.182   6.331  13.777 -0.1571  0.3528 -0.1213
 2518TIP3    H128969   1.190   6.374  13.692  1.7924  1.9353  0.8353
 2518TIP3    H228970   1.242   6.257  13.772  0.4114  0.7958  0.0777
 2519TIP3   OH228971   4.253   2.479  13.763  0.3973 -0.0880  0.1984
 2519TIP3    H128972   4.264   2.504  13.854  1.0326  0.8438 -0.1224
 2519TIP3    H228973   4.216   2.557  13.721  0.5968 -0.3319 -0.4383
 2520TIP3   OH228974   0.003   0.223   2.266 -0.5853 -0.4738 -0.4324
 2520TIP3    H128975  -0.058   0.169   2.316 -1.5635  0.5137 -0.5333
 2520TIP3    H228976  -0.032   0.222   2.177  0.2400 -0.9037 -0.7519
 2521TIP3   OH228977   1.099   6.757   5.827 -0.4033 -0.0348  0.8352
 2521TIP3    H128978   1.091   6.670   5.786  0.3739  0.1843  0.2144
 2521TIP3    H228979   1.032   6.810   5.783  0.8436  0.3710 -0.6328
 2522TIP3   OH228980   4.489   1.554   6.648 -0.1241 -0.0816  0.0775
 2522TIP3    H128981   4.396   1.551   6.625 -0.3734 -0.2175  1.1140
 2522TIP3    H228982   4.517   1.641   6.620 -1.1382  0.8616  1.9263
 2523TIP3   OH228983   3.128   6.610   0.636  0.1967 -0.4705 -0.2289
 2523TIP3    H128984   3.219   6.630   0.611 -0.0567  1.0250  0.0355
 2523TIP3    H228985   3.075   6.662   0.576 -0.4619  0.4798  1.1761
 2524TIP3   OH228986   6.046   2.218  11.498  0.3132 -0.1071  0.1393
 2524TIP3    H128987   5.968   2.271  11.518  0.3857  0.0637 -0.0235
 2524TIP3    H228988   6.056   2.226  11.403 -0.8691 -2.0778 -0.1810
 2525TIP3   OH228989   3.235   2.610   3.871 -0.3084 -0.5268  0.0078
 2525TIP3    H128990   3.152   2.654   3.852 -0.7184 -2.1246 -2.1917
 2525TIP3    H228991   3.261   2.572   3.787  1.1901 -2.4623  1.3043
 2526TIP3   OH228992   2.606   1.414   0.142  0.1613 -0.2129 -0.0345
 2526TIP3    H128993   2.559   1.394   0.223  1.0462 -0.4535  0.4303
 2526TIP3    H228994   2.655   1.334   0.122 -0.0464 -0.1498 -0.7996
 2527TIP3   OH228995   4.680   2.564   0.706  0.1362  0.0793 -0.2633
 2527TIP3    H128996   4.604   2.535   0.756  0.2689 -0.0956 -0.1627
 2527TIP3    H228997   4.648   2.640   0.656 -0.1249 -0.0436 -0.2838
 2528TIP3   OH228998   2.456   0.740  13.899  0.4749 -1.0517 -0.1639
 2528TIP3    H128999   2.421   0.713  13.984  1.1372 -0.5597  0.2785
 2528TIP3    H229000   2.489   0.829  13.914 -0.2481 -0.6009 -1.1867
 2529TIP3   OH229001   6.001   5.112  13.069 -0.0302  0.0197  0.2838
 2529TIP3    H129002   6.038   5.169  13.136 -1.6950  0.7005  0.6486
 2529TIP3    H229003   6.025   5.154  12.986  1.6578 -0.5933  0.4451
 2530TIP3   OH229004   5.050   0.923   5.656  0.1376  0.5231 -0.4215
 2530TIP3    H129005   5.121   0.938   5.593  0.0705  1.8467 -0.1876
 2530TIP3    H229006   5.077   0.969   5.735 -0.5113  0.1868  0.0035
 2531TIP3   OH229007   2.362   6.034  11.415 -0.1633 -0.4284 -0.9856
 2531TIP3    H129008   2.292   6.098  11.428  1.6301  1.4510 -0.2322
 2531TIP3    H229009   2.341   5.963  11.476 -0.6084  0.8333  0.3795
 2532TIP3   OH229010   4.806   2.046  14.290  0.7453 -0.0990 -0.2832
 2532TIP3    H129011   4.889   2.008  14.263  2.6088  2.4057  1.7226
 2532TIP3    H229012   4.800   2.028  14.384  0.5118  2.3691  0.2058
 2533TIP3   OH229013   2.013   6.130   5.317 -0.4758 -0.7931  0.2012
 2533TIP3    H129014   1.999   6.124   5.411 -0.0352  0.0944  0.3357
 2533TIP3    H229015   2.028   6.224   5.301 -3.5884 -0.5028 -1.2074
 2534TIP3   OH229016   0.521   2.612   2.521 -0.3238 -0.8099 -0.1502
 2534TIP3    H129017   0.499   2.541   2.459  1.7635 -1.8051  0.2097
 2534TIP3    H229018   0.581   2.571   2.583 -0.3912  0.8754  1.0434
 2535TIP3   OH229019   1.698   4.982  11.945  0.2854 -0.5647  0.3841
 2535TIP3    H129020   1.622   4.939  11.906 -0.5740  0.5018  0.8672
 2535TIP3    H229021   1.691   4.964  12.038 -1.2756  2.3870  0.9006
 2536TIP3   OH229022   6.640   2.456   0.759 -0.0926  0.2964 -0.3817
 2536TIP3    H129023   6.605   2.452   0.848 -1.2485  1.7047 -0.7542
 2536TIP3    H229024   6.645   2.365   0.730  1.0998 -0.2403  1.4247
 2537TIP3   OH229025   2.090   6.053  16.534  0.0712 -0.1141 -0.1836
 2537TIP3    H129026   2.136   6.029  16.615  1.2247  0.5592 -0.6157
 2537TIP3    H229027   2.105   6.147  16.525 -0.7013 -0.0430 -0.7810
 2538TIP3   OH229028   5.635   1.306   1.309 -0.4151  0.1148  0.0796
 2538TIP3    H129029   5.700   1.364   1.349 -1.2310  1.9184 -1.1278
 2538TIP3    H229030   5.552   1.334   1.349 -0.4629 -2.2939  1.7600
 2539TIP3   OH229031   6.197   1.336  13.470 -0.2783 -0.0909 -0.0127
 2539TIP3    H129032   6.282   1.329  13.428 -0.6235 -1.3555 -0.5455
 2539TIP3    H229033   6.174   1.428  13.464  1.1989  0.3194  0.4345
 2540TIP3   OH229034   0.556   3.101  14.463  0.2148  0.1782  0.0056
 2540TIP3    H129035   0.629   3.067  14.515  0.8282  0.6301 -0.5385
 2540TIP3    H229036   0.499   3.025  14.449  1.1825 -0.4545 -0.5590
 2541TIP3   OH229037   2.972   3.400  12.596 -0.2896  0.0316 -0.3858
 2541TIP3    H129038   2.910   3.365  12.659  1.9194  0.0210  1.8550
 2541TIP3    H229039   3.006   3.323  12.551  0.5356 -0.2542  0.7108
 2542TIP3   OH229040   0.182   4.804  14.562 -0.6043  0.4404  0.2694
 2542TIP3    H129041   0.114   4.789  14.628 -0.0404 -0.1882  0.7119
 2542TIP3    H229042   0.144   4.869  14.503 -1.8664 -0.4324  0.1034
 2543TIP3   OH229043   5.709   3.432   2.573  0.2566 -0.4973 -0.2448
 2543TIP3    H129044   5.746   3.371   2.638  0.2629  0.4528  0.6620
 2543TIP3    H229045   5.654   3.377   2.517  0.7829 -1.4476  0.1491
 2544TIP3   OH229046   1.913   3.429   4.929  0.6164  0.0106  0.5973
 2544TIP3    H129047   1.837   3.401   4.877  0.9014 -0.5359  0.4739
 2544TIP3    H229048   1.892   3.519   4.954 -1.0838 -0.8577  2.4202
 2545TIP3   OH229049   6.438   4.915   5.356 -0.7270 -0.7329 -0.8886
 2545TIP3    H129050   6.468   4.898   5.267 -0.7428 -2.2737 -0.6011
 2545TIP3    H229051   6.426   4.829   5.395 -2.2021 -0.1036  0.1197
 2546TIP3   OH229052   2.208   1.344   0.635 -0.2579  0.7091 -0.2504
 2546TIP3    H129053   2.130   1.299   0.603 -0.4339  0.2798  0.7721
 2546TIP3    H229054   2.275   1.324   0.570 -0.1129 -1.7592  0.6039
 2547TIP3   OH229055   2.568   5.179  13.190 -0.2582  0.1514 -0.7692
 2547TIP3    H129056   2.585   5.245  13.122 -0.2432  0.3945 -0.5301
 2547TIP3    H229057   2.590   5.096  13.149  0.3766  0.3575 -0.8522
 2548TIP3   OH229058   6.502   5.118  14.939  0.5075 -0.2286 -0.3780
 2548TIP3    H129059   6.552   5.189  14.979 -0.1001 -0.0093 -0.0005
 2548TIP3    H229060   6.422   5.112  14.991  0.0957 -0.5186 -1.0264
 2549TIP3   OH229061   0.050   2.853  11.339 -0.1738  0.2680 -0.1244
 2549TIP3    H129062  -0.046   2.849  11.349 -0.3638 -1.0358 -2.2431
 2549TIP3    H229063   0.081   2.776  11.386  0.0038  1.6577  2.1033
 2550TIP3   OH229064   4.453   0.792  14.398 -0.3949  0.6890 -0.1565
 2550TIP3    H129065   4.480   0.810  14.309  1.7558 -0.8413  0.1456
 2550TIP3    H229066   4.458   0.696  14.406  0.9974  0.9058  2.0629
 2551TIP3   OH229067   6.177   1.915   3.993 -0.4298 -0.3089  0.0019
 2551TIP3    H129068   6.090   1.926   3.954 -1.2098 -1.2336  1.4519
 2551TIP3    H229069   6.237   1.925   3.919 -1.7789  0.0716 -1.0713
 2552TIP3   OH229070   4.749   6.349  14.068  0.0576 -0.4951 -0.1977
 2552TIP3    H129071   4.663   6.306  14.071 -0.2867  0.2139  0.3460
 2552TIP3    H229072   4.744   6.415  14.137  0.7032  0.1723 -0.7938
 2553TIP3   OH229073   4.817   6.460  10.603  0.0808  0.5843  0.0551
 2553TIP3    H129074   4.770   6.513  10.667  0.9991  0.6615  0.6695
 2553TIP3    H229075   4.754   6.393  10.577 -0.0096 -0.0072  1.7204
 2554TIP3   OH229076   1.276   1.960   4.630 -0.4403 -0.6550  0.5447
 2554TIP3    H129077   1.354   2.011   4.651  0.1718 -0.7533 -1.4295
 2554TIP3    H229078   1.235   1.944   4.715  1.2541  0.0706  1.5278
 2555TIP3   OH229079   1.189   5.291   4.886 -0.3046 -0.5362  0.0031
 2555TIP3    H129080   1.201   5.220   4.823  0.7425  1.5099 -2.1673
 2555TIP3    H229081   1.249   5.268   4.958  2.0619 -0.5249 -1.8900
 2556TIP3   OH229082   2.069   6.612   0.011  0.0030  0.0050 -0.6553
 2556TIP3    H129083   2.146   6.564   0.043 -0.2835  0.5747  0.9430
 2556TIP3    H229084   1.998   6.548   0.013  0.4922 -0.6382 -2.5265
 2557TIP3   OH229085   1.014   0.496  12.657  0.1192  0.4063 -0.7106
 2557TIP3    H129086   0.981   0.521  12.744  0.4951  0.0710 -0.4658
 2557TIP3    H229087   0.963   0.418  12.634  0.4260  0.1522 -0.5303
 2558TIP3   OH229088   6.747   2.911   5.866 -0.4436  0.6967  0.0414
 2558TIP3    H129089   6.827   2.961   5.845  0.2373 -0.4897 -0.2374
 2558TIP3    H229090   6.765   2.872   5.951 -0.2682 -0.4733 -0.5179
 2559TIP3   OH229091   1.135   2.107  15.787 -0.0129 -0.0589  0.0588
 2559TIP3    H129092   1.177   2.190  15.813 -0.1451  0.4544 -1.3372
 2559TIP3    H229093   1.147   2.103  15.692  0.1570 -1.7397  0.1415
 2560TIP3   OH229094   1.531   1.940  14.965 -0.1893 -0.2058 -0.0748
 2560TIP3    H129095   1.625   1.926  14.976 -0.4130 -1.2155  0.5314
 2560TIP3    H229096   1.500   1.862  14.919 -0.9803 -0.5467  1.0107
 2561TIP3   OH229097   6.656   1.624   1.119  0.0606 -0.2431  0.1180
 2561TIP3    H129098   6.632   1.640   1.210 -1.2361  1.6323 -0.5290
 2561TIP3    H229099   6.594   1.677   1.068  1.7127 -0.1059 -1.8015
 2562TIP3   OH229100   0.709   1.726   1.762 -0.0596  0.7114  0.8681
 2562TIP3    H129101   0.625   1.745   1.722  0.9538 -0.7820 -2.1422
 2562TIP3    H229102   0.772   1.775   1.709  1.2639 -0.8630  0.9334
 2563TIP3   OH229103   1.833   2.413  14.472 -0.1341 -0.2542  0.7583
 2563TIP3    H129104   1.912   2.378  14.513  0.8098 -2.4226 -2.6991
 2563TIP3    H229105   1.865   2.475  14.406 -1.4859  1.3317  1.5486
 2564TIP3   OH229106   4.959   3.212  11.199  0.0235 -0.0763 -0.2022
 2564TIP3    H129107   4.945   3.125  11.237  0.8188 -0.2198 -0.2252
 2564TIP3    H229108   4.944   3.272  11.272 -1.7201 -0.1529 -0.4791
 2565TIP3   OH229109   1.409   4.936   3.263  0.2690  0.9736 -0.2432
 2565TIP3    H129110   1.435   4.872   3.196 -0.3841 -1.4433  1.7521
 2565TIP3    H229111   1.313   4.939   3.257  0.2870  1.7201 -0.2465
 2566TIP3   OH229112   3.094   4.868  14.684 -0.1854  0.2985  0.4188
 2566TIP3    H129113   3.018   4.809  14.687  1.0071 -1.2673  0.3357
 2566TIP3    H229114   3.118   4.872  14.591 -0.1907  0.8147  0.4404
 2567TIP3   OH229115   0.733   6.341  14.221  0.0767  0.0091  0.2474
 2567TIP3    H129116   0.746   6.416  14.163  0.3126 -0.0141  0.2692
 2567TIP3    H229117   0.656   6.297  14.186 -1.1155  1.2371  1.2742
 2568TIP3   OH229118   2.948   1.304  16.657  0.3138  0.2862 -0.6600
 2568TIP3    H129119   2.904   1.220  16.671 -0.1358  0.6441  0.1380
 2568TIP3    H229120   2.877   1.367  16.644  0.4843  1.0994  1.8922
 2569TIP3   OH229121   1.628   4.156   4.382  0.1202 -0.2107 -0.2801
 2569TIP3    H129122   1.633   4.187   4.292 -2.0864  0.9047 -0.0598
 2569TIP3    H229123   1.575   4.221   4.427  0.3426 -1.2779  1.6017
 2570TIP3   OH229124   6.197   3.180   2.956  0.2658  0.3142 -0.1169
 2570TIP3    H129125   6.239   3.116   2.899  0.6889 -0.0986  0.6479
 2570TIP3    H229126   6.150   3.239   2.897  0.0268 -0.5964 -0.8283
 2571TIP3   OH229127   6.088   4.678   5.779 -0.0128  1.0957  0.0572
 2571TIP3    H129128   6.147   4.602   5.778 -1.2749  0.0858  1.0354
 2571TIP3    H229129   6.017   4.652   5.837 -0.5922  2.9457  0.1913
 2572TIP3   OH229130   5.816   3.296  15.451 -0.1839 -0.5560 -0.8208
 2572TIP3    H129131   5.871   3.220  15.472  1.7522  0.9050 -0.4525
 2572TIP3    H229132   5.811   3.296  15.356  1.0911 -0.3086 -0.9020
 2573TIP3   OH229133   4.727   1.577   4.603 -0.1978 -0.1944  0.3753
 2573TIP3    H129134   4.699   1.605   4.690 -0.6854  0.4767  0.0052
 2573TIP3    H229135   4.744   1.483   4.612  0.1150 -0.0497  1.2835
 2574TIP3   OH229136   1.952   4.408  13.074 -0.2579  0.1179  0.3118
 2574TIP3    H129137   1.907   4.361  13.004 -0.8209  2.0857 -0.6983
 2574TIP3    H229138   1.908   4.382  13.154 -1.2204 -0.3033 -0.3456
 2575TIP3   OH229139   2.449   2.270   4.618 -0.4296  0.4244 -0.1493
 2575TIP3    H129140   2.411   2.182   4.611 -1.4202  0.8799 -0.6573
 2575TIP3    H229141   2.403   2.321   4.551  1.5902  0.8284 -1.2559
 2576TIP3   OH229142   3.990   4.799   6.004  0.1446 -0.5571 -0.3651
 2576TIP3    H129143   4.063   4.856   6.027 -0.4844 -0.1630  0.7100
 2576TIP3    H229144   4.012   4.715   6.045 -0.3630 -0.2161  0.6399
 2577TIP3   OH229145   3.609   3.500  15.417 -0.2585  0.1120  0.0620
 2577TIP3    H129146   3.578   3.566  15.354 -0.0365 -1.2704 -1.5129
 2577TIP3    H229147   3.581   3.535  15.502 -0.5242  2.0323 -0.7707
 2578TIP3   OH229148   0.141   2.629  11.503  0.3768  0.4134 -0.5653
 2578TIP3    H129149   0.169   2.541  11.527 -1.4051 -0.5523 -1.9474
 2578TIP3    H229150   0.147   2.679  11.584  1.0280 -1.0590  0.3201
 2579TIP3   OH229151   4.493   5.700  16.642  0.0360  0.0156  0.2176
 2579TIP3    H129152   4.398   5.704  16.630  0.6039  1.0605 -4.5741
 2579TIP3    H229153   4.512   5.607  16.650 -1.1194 -0.3676 -1.3558
 2580TIP3   OH229154   0.685   2.878  16.695  0.4259  0.0721  0.2254
 2580TIP3    H129155   0.675   2.914  16.607  0.5086  2.0840  1.0156
 2580TIP3    H229156   0.632   2.936  16.750  2.0705  0.1011  1.8054
 2581TIP3   OH229157   3.159   5.128   5.933 -0.0657  0.3500 -0.1373
 2581TIP3    H129158   3.195   5.040   5.931 -2.2905 -0.6010 -0.1767
 2581TIP3    H229159   3.087   5.126   5.869 -0.3308  2.0875  0.0787
 2582TIP3   OH229160   2.718   5.286   5.082  0.3339 -0.2520  0.3879
 2582TIP3    H129161   2.805   5.314   5.110  0.3345 -0.1956  0.3317
 2582TIP3    H229162   2.732   5.201   5.039  0.3909 -0.1437  0.1893
 2583TIP3   OH229163   4.779   6.446   3.895 -0.1022 -0.6037 -0.3355
 2583TIP3    H129164   4.796   6.500   3.817 -0.0001 -0.4028 -0.1739
 2583TIP3    H229165   4.692   6.409   3.880  0.4793 -1.6552 -1.1735
 2584TIP3   OH229166   3.861   3.163  15.211 -0.4761  0.7578 -0.2931
 2584TIP3    H129167   3.952   3.133  15.215 -0.4359  0.7701 -1.1159
 2584TIP3    H229168   3.857   3.235  15.275  1.0330  3.2393 -2.8965
 2585TIP3   OH229169   4.506   1.232   3.275 -0.6737  0.0352 -0.2087
 2585TIP3    H129170   4.451   1.262   3.347  0.6387 -0.5872  1.0898
 2585TIP3    H229171   4.460   1.157   3.239 -0.4038 -0.8380  1.2388
 2586TIP3   OH229172   4.392   1.627   5.272  0.0730  0.4798  0.0717
 2586TIP3    H129173   4.403   1.712   5.316  0.5792  1.2219 -1.4463
 2586TIP3    H229174   4.456   1.629   5.201  0.5390 -1.4595  0.4142
 2587TIP3   OH229175   5.578   4.276  13.497  0.6683 -0.8088  0.0309
 2587TIP3    H129176   5.553   4.190  13.533 -0.4159 -0.5621 -0.1280
 2587TIP3    H229177   5.545   4.339  13.561  0.9173 -0.4804 -0.1626
 2588TIP3   OH229178   2.058   4.563   5.367  0.0971  0.4560 -0.3101
 2588TIP3    H129179   2.097   4.477   5.354  1.8145  1.2082 -0.2774
 2588TIP3    H229180   2.132   4.620   5.390 -1.3248  1.4120  2.1540
 2589TIP3   OH229181   3.998   6.171  13.636 -0.0011  0.3520  0.2407
 2589TIP3    H129182   3.985   6.085  13.675 -1.5883  0.8939  0.9812
 2589TIP3    H229183   4.092   6.178  13.622  0.2811 -0.9780  1.3912
 2590TIP3   OH229184   2.686   1.719  11.861  0.6622  0.1666 -0.1520
 2590TIP3    H129185   2.671   1.756  11.774 -2.8604  1.0370  0.7908
 2590TIP3    H229186   2.636   1.637  11.861  2.3525 -0.8935  0.3694
 2591TIP3   OH229187   1.157   0.328   2.711 -0.0229 -0.2235  0.2208
 2591TIP3    H129188   1.223   0.327   2.781  1.1561  0.6724 -0.8734
 2591TIP3    H229189   1.200   0.289   2.636 -1.2509 -1.0563 -0.0787
 2592TIP3   OH229190   5.902   0.843   1.672 -0.2222  0.4623 -0.0659
 2592TIP3    H129191   5.921   0.782   1.600  0.6940  0.9755 -0.2674
 2592TIP3    H229192   5.949   0.806   1.747 -2.1531 -0.7242  0.5856
 2593TIP3   OH229193   5.130   0.076  12.229 -0.1596  0.2872 -0.4418
 2593TIP3    H129194   5.060   0.140  12.215 -0.1364  0.2911 -0.5388
 2593TIP3    H229195   5.199   0.101  12.168  0.2789  0.7986  0.2564
 2594TIP3   OH229196   5.751   6.225   3.206 -0.3551 -0.1633  0.4682
 2594TIP3    H129197   5.741   6.318   3.185 -3.2424 -0.5296  0.0940
 2594TIP3    H229198   5.747   6.180   3.121 -1.3920 -0.7992  0.8424
 2595TIP3   OH229199   3.259   0.610   2.476 -0.1589  0.7178 -0.0104
 2595TIP3    H129200   3.336   0.588   2.529 -0.6173  2.4191  1.4365
 2595TIP3    H229201   3.191   0.549   2.505  1.2285 -2.4101 -2.9883
 2596TIP3   OH229202   1.777   5.169  13.250  0.0624  0.2934  0.0954
 2596TIP3    H129203   1.778   5.087  13.200  1.2619  0.8521 -0.8213
 2596TIP3    H229204   1.782   5.237  13.183 -0.1381  1.0930  0.8995
 2597TIP3   OH229205   1.693   2.804  11.030 -0.2137 -0.0305  0.0395
 2597TIP3    H129206   1.664   2.847  10.950 -0.6530 -0.2615  0.0730
 2597TIP3    H229207   1.789   2.805  11.025 -0.1904  1.5715  0.3591
 2598TIP3   OH229208   5.837   1.460   2.273 -0.9944 -0.6058  0.7116
 2598TIP3    H129209   5.878   1.466   2.187  0.1012 -2.5301  1.0594
 2598TIP3    H229210   5.773   1.389   2.264 -0.7044 -0.9855  1.5275
 2599TIP3   OH229211   4.935   4.877   3.413 -0.2301 -0.0865  0.8315
 2599TIP3    H129212   4.996   4.812   3.450  0.2015  0.6697  1.4549
 2599TIP3    H229213   4.924   4.849   3.322  0.0994 -0.9320  1.0385
 2600TIP3   OH229214   2.647   2.947   5.276  0.1583  0.2045  0.3698
 2600TIP3    H129215   2.607   3.013   5.218  0.8388 -0.1317 -0.4779
 2600TIP3    H229216   2.591   2.948   5.354 -0.7269  0.7062 -0.2581
 2601TIP3   OH229217   0.588   5.976  13.360  0.1539 -0.1005 -0.2558
 2601TIP3    H129218   0.678   5.992  13.333  0.1965  0.6123  0.2965
 2601TIP3    H229219   0.570   6.043  13.427 -0.5530 -0.6742  0.1410
 2602TIP3   OH229220   1.319   6.729   1.918 -0.1284  0.0260  0.3170
 2602TIP3    H129221   1.376   6.719   1.842 -1.7389 -2.8830 -0.5922
 2602TIP3    H229222   1.301   6.639   1.946 -1.7457  0.9865  2.4720
 2603TIP3   OH229223   6.049   2.405   1.363  0.1033  0.7500 -0.1947
 2603TIP3    H129224   5.991   2.341   1.321 -0.3773  0.3345  1.0900
 2603TIP3    H229225   5.996   2.485   1.369  0.8328  1.4078 -2.1533
 2604TIP3   OH229226   5.197   2.518  10.887  0.5314 -0.2498  0.1729
 2604TIP3    H129227   5.170   2.599  10.844  0.9029  0.0285  0.4690
 2604TIP3    H229228   5.131   2.503  10.954  0.2287 -0.4192 -0.1580
 2605TIP3   OH229229   5.156   1.531  17.184 -0.0459 -0.5546  0.3678
 2605TIP3    H129230   5.169   1.609  17.129 -0.1147 -0.2776  0.7412
 2605TIP3    H229231   5.174   1.457  17.126  1.1182 -0.2312  0.3148
 2606TIP3   OH229232   5.170   2.203  15.450  0.1245  0.4762 -0.1301
 2606TIP3    H129233   5.129   2.164  15.373  0.0978 -1.2891  0.7659
 2606TIP3    H229234   5.180   2.296  15.427  0.2444 -0.0419 -2.3079
 2607TIP3   OH229235   5.243   6.421   4.887 -0.3724  0.2216  0.0533
 2607TIP3    H129236   5.171   6.362   4.864  1.1357 -1.1925 -1.2430
 2607TIP3    H229237   5.251   6.413   4.982 -0.8743 -0.8547  0.0178
 2608TIP3   OH229238   3.262   1.826  12.647  0.0689 -0.0167 -0.2114
 2608TIP3    H129239   3.266   1.793  12.736 -2.7169  1.3877  0.4888
 2608TIP3    H229240   3.269   1.921  12.655 -0.5824  0.1518 -1.4404
 2609TIP3   OH229241   3.525   5.089  12.520  0.5001 -0.8412 -0.2275
 2609TIP3    H129242   3.585   5.142  12.572  0.7006 -0.4045 -0.9048
 2609TIP3    H229243   3.576   5.013  12.493 -0.1298 -2.0220  1.7739
 2610TIP3   OH229244   4.850   1.005  15.021 -0.1404  0.1341 -0.1255
 2610TIP3    H129245   4.847   0.913  15.048  2.2783  0.2883  0.7867
 2610TIP3    H229246   4.810   1.006  14.934 -1.4800 -1.5423  0.4312
 2611TIP3   OH229247   2.994   5.310   5.133  0.0728  0.0884  0.6903
 2611TIP3    H129248   3.038   5.252   5.070  0.4893  0.0730  0.9917
 2611TIP3    H229249   3.066   5.350   5.182 -0.2591 -0.0682  1.3046
 2612TIP3   OH229250   3.738   5.444  12.802 -0.0596 -0.2917  0.5805
 2612TIP3    H129251   3.698   5.460  12.887  0.5484  0.0546  0.8048
 2612TIP3    H229252   3.749   5.532  12.764  1.7469 -0.2588  1.1057
 2613TIP3   OH229253   1.180   0.138   6.026  0.1092 -0.3340 -1.1104
 2613TIP3    H129254   1.267   0.100   6.032  0.4092  0.0865 -2.4963
 2613TIP3    H229255   1.153   0.121   5.936 -0.4571  1.1953 -1.2452
 2614TIP3   OH229256   4.618   0.448   1.497 -0.1003  0.7928 -0.7847
 2614TIP3    H129257   4.700   0.492   1.476  1.0019 -0.8870 -0.1656
 2614TIP3    H229258   4.645   0.363   1.532 -2.1147  0.0669 -0.9015
 2615TIP3   OH229259   5.078   1.368   1.804 -0.1156 -0.1266  0.5326
 2615TIP3    H129260   5.016   1.429   1.765 -0.1040 -0.1218  0.5215
 2615TIP3    H229261   5.093   1.401   1.892  1.4410  1.0204 -0.1416
 2616TIP3   OH229262   4.369   1.091   5.028  0.4563 -0.1912  0.1594
 2616TIP3    H129263   4.437   1.143   5.070 -0.5237  0.3897  1.0640
 2616TIP3    H229264   4.366   1.122   4.938  1.2760 -0.1111  0.1630
 2617TIP3   OH229265   0.331   2.899  14.453  0.3542  0.3091 -0.4749
 2617TIP3    H129266   0.279   2.961  14.402 -0.4635  0.3602  0.4099
 2617TIP3    H229267   0.307   2.813  14.419  2.4306  0.5163 -2.5793
 2618TIP3   OH229268   4.961   1.517  13.614  0.5078 -0.0695 -0.0532
 2618TIP3    H129269   5.038   1.569  13.636  1.0477 -1.3557  1.1503
 2618TIP3    H229270   4.947   1.534  13.521  1.9910  0.5209 -0.1818
 2619TIP3   OH229271   2.405   4.210  17.024  0.8219 -0.2762  0.2365
 2619TIP3    H129272   2.395   4.184  16.932 -3.5099 -0.8274  0.7293
 2619TIP3    H229273   2.419   4.305  17.020 -1.8196  0.1400 -1.0138
 2620TIP3   OH229274   0.600   2.488   3.719  0.1570 -0.1708 -0.1287
 2620TIP3    H129275   0.629   2.553   3.655  1.3225 -0.5555  0.0109
 2620TIP3    H229276   0.635   2.519   3.802  0.8465 -1.0560 -0.0853
 2621TIP3   OH229277   5.439   2.246  11.430  0.2835 -0.3239  0.0780
 2621TIP3    H129278   5.527   2.209  11.426 -0.1017 -1.3209  0.6876
 2621TIP3    H229279   5.452   2.340  11.414  1.4054 -0.5248 -0.2284
 2622TIP3   OH229280   3.987   4.324  11.236  0.0057  0.4385 -0.3868
 2622TIP3    H129281   3.976   4.413  11.268 -1.3650  0.0900  0.1402
 2622TIP3    H229282   3.919   4.273  11.280  0.5790 -0.8155 -0.8989
 2623TIP3   OH229283   2.338   5.814  14.211  0.3193 -0.0315 -0.6180
 2623TIP3    H129284   2.322   5.851  14.298 -1.8954 -2.0716 -0.1048
 2623TIP3    H229285   2.417   5.760  14.223  0.2571  0.0166  0.0349
 2624TIP3   OH229286   0.310   0.010   3.511  0.1255 -0.2339 -0.1119
 2624TIP3    H129287   0.298  -0.046   3.435  1.6936 -0.5570 -0.1310
 2624TIP3    H229288   0.251   0.084   3.496 -1.9348 -1.8295 -0.1093
 2625TIP3   OH229289   6.677   3.745   0.926  0.2690 -0.0951  0.8723
 2625TIP3    H129290   6.587   3.771   0.945 -0.0936  0.7552 -1.7145
 2625TIP3    H229291   6.731   3.813   0.964 -0.1698 -0.5721  2.3752
 2626TIP3   OH229292   5.959   2.628   6.355 -0.0859  0.3041 -0.1790
 2626TIP3    H129293   6.043   2.601   6.318 -0.2906 -0.3630 -0.1675
 2626TIP3    H229294   5.974   2.630   6.449 -0.8120 -2.5506  0.0737
 2627TIP3   OH229295   0.987   1.577   4.508 -0.0038 -0.0471  0.4867
 2627TIP3    H129296   0.910   1.530   4.541 -0.0205  2.0355  3.6682
 2627TIP3    H229297   1.062   1.529   4.546  0.1296  0.0521  0.3477
 2628TIP3   OH229298   0.058   2.162  12.441 -0.1429 -0.1450  0.0630
 2628TIP3    H129299   0.115   2.178  12.516 -1.8985 -0.0832  1.4433
 2628TIP3    H229300   0.045   2.248  12.402  1.6302 -0.3272 -0.9916
 2629TIP3   OH229301   0.727   3.265  15.793  0.1151  0.0959  0.6510
 2629TIP3    H129302   0.654   3.227  15.842  0.2471  0.8288  1.4104
 2629TIP3    H229303   0.692   3.345  15.755 -0.1343 -0.7050 -0.8863
 2630TIP3   OH229304   3.966   2.613  12.745  0.3810 -0.0577 -0.2203
 2630TIP3    H129305   4.045   2.667  12.744 -0.0010  0.4940 -1.5412
 2630TIP3    H229306   3.904   2.661  12.690 -0.4141 -1.1715 -0.3016
 2631TIP3   OH229307   3.030   5.751  16.825 -0.2131  0.3662 -0.5462
 2631TIP3    H129308   3.016   5.781  16.915 -0.6932 -0.4445 -0.3475
 2631TIP3    H229309   2.943   5.753  16.785 -0.2045 -0.5105 -0.6085
 2632TIP3   OH229310   5.432   1.970  10.479 -0.0314  0.4199  0.0553
 2632TIP3    H129311   5.360   2.031  10.493 -1.0913 -1.0791  1.3337
 2632TIP3    H229312   5.409   1.893  10.531  2.1134 -0.3979 -0.1443
 2633TIP3   OH229313   1.116   4.917  14.219 -0.2001 -0.5112  0.3556
 2633TIP3    H129314   1.040   4.879  14.174 -1.5047  0.4238  1.7045
 2633TIP3    H229315   1.129   5.002  14.176  2.9023 -2.4863 -2.8611
 2634TIP3   OH229316   6.380   2.920  12.286  0.0454 -0.4666 -0.3760
 2634TIP3    H129317   6.412   3.004  12.317 -0.1735 -0.6922  0.4535
 2634TIP3    H229318   6.305   2.942  12.231  0.8613 -0.0246 -1.3313
 2635TIP3   OH229319   2.325   5.180  12.259  0.2491 -0.1950 -0.3554
 2635TIP3    H129320   2.274   5.217  12.332  2.6915  0.6971  0.9518
 2635TIP3    H229321   2.354   5.095  12.292  1.2481  0.1557 -0.3264
 2636TIP3   OH229322   0.330   1.427  16.765  0.0870 -0.1669 -0.1117
 2636TIP3    H129323   0.272   1.390  16.832 -0.7189  0.6951 -0.3202
 2636TIP3    H229324   0.384   1.353  16.737 -0.7234 -0.9258  0.2948
 2637TIP3   OH229325   4.301   2.972  12.444  1.2340  0.1659 -0.2323
 2637TIP3    H129326   4.305   2.980  12.349 -0.1015 -0.7006 -0.3716
 2637TIP3    H229327   4.389   2.946  12.470  1.8147  1.1640 -1.1468
 2638TIP3   OH229328   0.129   2.266  14.213 -0.2531 -0.0258  0.9141
 2638TIP3    H129329   0.087   2.232  14.292  0.5356 -0.9881  0.9151
 2638TIP3    H229330   0.085   2.222  14.141  1.3650 -1.7286  0.9479
 2639TIP3   OH229331   6.716   2.379  15.352  0.3699 -0.3997 -0.6164
 2639TIP3    H129332   6.674   2.294  15.357 -0.4718  0.0087 -0.6395
 2639TIP3    H229333   6.780   2.379  15.423  1.8260 -1.8191 -1.9026
 2640TIP3   OH229334   5.716   5.530   4.759  0.0145  0.4813  0.1427
 2640TIP3    H129335   5.685   5.582   4.833 -0.0163 -0.0275  0.4938
 2640TIP3    H229336   5.752   5.594   4.698  0.0774  0.9029  0.6160
 2641TIP3   OH229337   1.626   6.444   2.062 -0.6229 -0.1242 -0.4294
 2641TIP3    H129338   1.540   6.445   2.020 -0.7052 -0.8419 -0.2852
 2641TIP3    H229339   1.686   6.416   1.994 -0.9246 -2.4567  0.2083
 2642TIP3   OH229340   0.801   3.623  15.452 -0.3160 -0.0316  0.7470
 2642TIP3    H129341   0.743   3.696  15.473 -1.9459 -0.2501 -2.7136
 2642TIP3    H229342   0.760   3.547  15.494 -1.8917  0.0352 -0.6262
 2643TIP3   OH229343   6.703   3.870   5.064  0.2976  0.1176 -0.1901
 2643TIP3    H129344   6.797   3.891   5.065  0.6360 -1.3717  0.8958
 2643TIP3    H229345   6.660   3.954   5.079  1.4678  0.8035 -0.6162
 2644TIP3   OH229346   0.426   1.412   5.110  0.0041  0.2703 -0.2100
 2644TIP3    H129347   0.369   1.371   5.044  0.2658 -0.9986  0.3354
 2644TIP3    H229348   0.377   1.489   5.137 -0.7951  0.0010 -0.8192
 2645TIP3   OH229349   1.599   6.439   2.382 -0.0331 -0.2939 -0.5337
 2645TIP3    H129350   1.674   6.387   2.413 -0.9159 -2.3790 -1.8664
 2645TIP3    H229351   1.524   6.382   2.393 -1.1982  1.1395 -0.9294
 2646TIP3   OH229352   5.775   1.538   2.604  0.1444  0.3764  0.5794
 2646TIP3    H129353   5.835   1.463   2.612 -0.9512 -0.4765  1.0571
 2646TIP3    H229354   5.830   1.615   2.617  1.2955 -0.3495  0.0806
 2647TIP3   OH229355   3.620   1.171  11.740 -0.6688 -0.3997  0.3084
 2647TIP3    H129356   3.551   1.105  11.749  1.3888 -2.8435 -0.9199
 2647TIP3    H229357   3.654   1.183  11.829 -2.8842  1.1396  0.9920
 2648TIP3   OH229358   2.293   4.304  15.317 -0.1211 -0.2207  0.2948
 2648TIP3    H129359   2.223   4.245  15.288  0.8853 -0.3076 -2.1490
 2648TIP3    H229360   2.374   4.256  15.297  0.6710  0.5135  1.6481
 2649TIP3   OH229361   1.715   5.694   1.788 -0.1033  0.4279  0.4305
 2649TIP3    H129362   1.789   5.642   1.754  0.2180  0.9197  0.3694
 2649TIP3    H229363   1.756   5.756   1.848  0.0842  3.4385 -2.6438
 2650TIP3   OH229364   3.641   1.645  15.540  0.4538 -0.0071 -0.2967
 2650TIP3    H129365   3.620   1.576  15.476 -1.1781 -0.4376  0.6602
 2650TIP3    H229366   3.636   1.726  15.490  0.6647 -0.4460 -1.0473
 2651TIP3   OH229367   4.961   4.870   5.281  0.0183 -0.3705 -0.3277
 2651TIP3    H129368   5.023   4.799   5.300  0.1492 -0.3254 -0.5899
 2651TIP3    H229369   4.901   4.833   5.217  0.1208 -0.2252 -0.5075
 2652TIP3   OH229370   2.142   6.238  15.723 -0.4371  0.1445 -0.1797
 2652TIP3    H129371   2.048   6.236  15.741 -0.1987 -0.0585  1.1504
 2652TIP3    H229372   2.149   6.252  15.629 -1.8111 -1.0363 -0.4657
 2653TIP3   OH229373   5.907   5.938  16.823  0.4278  0.0285 -0.2714
 2653TIP3    H129374   5.960   5.879  16.876 -0.3047 -0.9249 -0.5782
 2653TIP3    H229375   5.852   5.985  16.886  1.3100  0.6896  0.0073
 2654TIP3   OH229376   2.292   1.565   4.533 -0.4963  0.2313  0.1856
 2654TIP3    H129377   2.308   1.640   4.591  0.0598  0.4396 -0.2318
 2654TIP3    H229378   2.308   1.599   4.445 -1.8012  0.0375 -0.1329
 2655TIP3   OH229379   5.582   2.328   0.061  0.1419  0.0882  0.0111
 2655TIP3    H129380   5.517   2.258   0.055  0.6471 -0.3118 -0.8546
 2655TIP3    H229381   5.549   2.386   0.130 -0.2471 -1.0288  0.7713
 2656TIP3   OH229382   4.011   0.274   1.737 -0.6230 -0.0986 -0.4151
 2656TIP3    H129383   4.085   0.215   1.724 -0.8016 -0.4496  0.1864
 2656TIP3    H229384   3.946   0.245   1.672 -0.1155  0.4136 -1.1630
 2657TIP3   OH229385   0.514   5.948  11.179  0.3307 -0.3520  0.5546
 2657TIP3    H129386   0.464   5.877  11.220 -3.3781  0.6942 -1.9297
 2657TIP3    H229387   0.563   5.905  11.110  0.2533 -0.9130  0.8399
 2658TIP3   OH229388   2.339   2.524  12.559  0.0976  0.3121  0.8042
 2658TIP3    H129389   2.249   2.491  12.552 -0.3076  1.3233  1.1725
 2658TIP3    H229390   2.367   2.535  12.468  0.1439 -0.7753  0.6809
 2659TIP3   OH229391   6.562   1.506  15.233  0.6739  0.9737 -0.9063
 2659TIP3    H129392   6.569   1.594  15.268 -2.5783  0.7408  0.4727
 2659TIP3    H229393   6.481   1.471  15.270  1.7339 -2.4935 -1.6525
 2660TIP3   OH229394   3.933   2.666  14.910 -0.2229 -0.4163  0.0118
 2660TIP3    H129395   3.861   2.619  14.951 -1.3807  1.6352  0.3928
 2660TIP3    H229396   3.979   2.707  14.984 -0.8477  1.2653 -0.5116
 2661TIP3   OH229397   5.291   2.208  12.013 -0.4252  0.1631 -0.4713
 2661TIP3    H129398   5.358   2.260  11.969 -0.3374  0.7057  0.2812
 2661TIP3    H229399   5.222   2.197  11.948  0.3934 -0.4175 -1.2613
 2662TIP3   OH229400   4.762   3.698   3.513 -0.3713 -0.0517 -0.4298
 2662TIP3    H129401   4.718   3.624   3.554  0.3757 -0.2957 -0.0579
 2662TIP3    H229402   4.839   3.712   3.567  0.1253  0.2297 -1.2098
 2663TIP3   OH229403   4.953   0.806  11.379 -0.4867  0.8120  0.2257
 2663TIP3    H129404   4.875   0.801  11.324  0.6385 -1.2110 -1.2397
 2663TIP3    H229405   4.952   0.895  11.414 -3.4138  0.8321  0.2071
 2664TIP3   OH229406   6.119   2.238   4.395 -0.1963 -0.2538  0.0853
 2664TIP3    H129407   6.191   2.298   4.413 -0.7381  0.6280 -0.6484
 2664TIP3    H229408   6.143   2.198   4.311 -0.0616 -0.7270  0.3487
 2665TIP3   OH229409   1.531   3.354   5.044  0.1475 -0.3630 -0.1191
 2665TIP3    H129410   1.476   3.396   4.978  0.7340 -0.6952 -0.8168
 2665TIP3    H229411   1.469   3.318   5.108 -0.3877  0.9466  0.1166
 2666TIP3   OH229412   3.294   6.645   1.615 -0.0628 -0.2936 -0.0813
 2666TIP3    H129413   3.301   6.634   1.710 -1.2510  0.8043  0.1563
 2666TIP3    H229414   3.270   6.737   1.604  0.6063 -0.2879 -1.4756
 2667TIP3   OH229415   2.312   4.779   5.912 -0.3725  0.6161  0.1892
 2667TIP3    H129416   2.366   4.853   5.939 -1.1445  1.0767  0.4740
 2667TIP3    H229417   2.279   4.742   5.994 -2.0950  1.5493 -0.0584
 2668TIP3   OH229418   0.561   5.965  14.156 -1.0108 -0.0371  0.5488
 2668TIP3    H129419   0.517   5.882  14.175  0.6337 -1.4152 -1.4696
 2668TIP3    H229420   0.635   5.941  14.100 -0.3152  2.7622  0.1900
 2669TIP3   OH229421   3.900   5.004   4.624 -0.7756 -0.2922  0.5202
 2669TIP3    H129422   3.876   5.094   4.603  2.2431  0.5177  0.4137
 2669TIP3    H229423   3.851   4.951   4.560 -1.2458  1.3515 -0.5210
 2670TIP3   OH229424   3.226   3.452  13.479  0.6173 -0.4473  0.1581
 2670TIP3    H129425   3.212   3.394  13.554  2.2016  0.8206  1.4877
 2670TIP3    H229426   3.296   3.410  13.429 -1.6751 -2.2273 -1.6445
 2671TIP3   OH229427   3.352   2.543   1.803  0.0290  0.1183 -0.2728
 2671TIP3    H129428   3.447   2.555   1.803  0.2707 -1.4406  2.0850
 2671TIP3    H229429   3.317   2.630   1.820  1.0814  0.4964 -0.0116
 2672TIP3   OH229430   5.195   5.495  16.049  0.2886  1.0012  0.7352
 2672TIP3    H129431   5.217   5.588  16.043 -1.7481  1.5089  0.8334
 2672TIP3    H229432   5.240   5.456  15.974 -0.2549  2.3612 -0.3398
 2673TIP3   OH229433   1.853   6.442  13.186 -0.5686  0.3613 -0.2325
 2673TIP3    H129434   1.773   6.402  13.220 -0.5813 -1.4484 -2.2421
 2673TIP3    H229435   1.827   6.531  13.162 -1.7840  0.0357 -0.1583
 2674TIP3   OH229436   5.543   4.064   2.835  0.4368 -0.0290  0.3555
 2674TIP3    H129437   5.634   4.055   2.806  0.6920 -0.3826  1.2522
 2674TIP3    H229438   5.511   3.975   2.843 -0.3288  0.1010 -0.9416
 2675TIP3   OH229439   6.057   2.871  14.189  0.1322  0.0003  0.2597
 2675TIP3    H129440   5.992   2.820  14.237  0.4391 -0.3492  0.3023
 2675TIP3    H229441   6.122   2.807  14.161  0.5247  0.3723  0.3208
 2676TIP3   OH229442   2.826   2.585   2.476  0.3871  0.0966 -0.1999
 2676TIP3    H129443   2.901   2.567   2.420  0.3508 -1.2811  0.1584
 2676TIP3    H229444   2.823   2.510   2.536 -1.3942  0.0181 -0.3560
 2677TIP3   OH229445   2.724   0.023  16.595 -0.0115 -0.0534  0.0836
 2677TIP3    H129446   2.653   0.057  16.540 -1.9113 -2.2236  1.1058
 2677TIP3    H229447   2.721   0.077  16.674  0.5003  0.8422 -0.4952
 2678TIP3   OH229448   5.442   3.091  12.374  0.0147 -0.1745  1.0312
 2678TIP3    H129449   5.442   3.184  12.394  0.8092 -0.2493  1.4023
 2678TIP3    H229450   5.495   3.051  12.444  0.1496 -0.8253  0.5630
 2679TIP3   OH229451   2.109   2.858   2.599 -0.1903  0.0072 -0.0378
 2679TIP3    H129452   2.154   2.867   2.515 -0.0279  0.3556  0.0841
 2679TIP3    H229453   2.050   2.933   2.603 -0.9995 -0.6044 -0.3205
 2680TIP3   OH229454   5.057   5.150   0.023  0.3721 -0.1170  0.0995
 2680TIP3    H129455   5.131   5.133   0.081  0.5281  0.5873  0.1047
 2680TIP3    H229456   5.046   5.245   0.024 -0.3341 -0.1907 -0.1483
 2681TIP3   OH229457   3.121   5.975  16.694  0.4505 -0.4095 -0.4980
 2681TIP3    H129458   3.119   5.895  16.747  0.3138 -0.3103 -0.3539
 2681TIP3    H229459   3.189   5.959  16.629  0.7175 -0.4738 -0.2003
 2682TIP3   OH229460   6.504   2.211  12.131  0.1158  0.6771 -0.7484
 2682TIP3    H129461   6.467   2.129  12.098 -0.3430  0.1963  0.9251
 2682TIP3    H229462   6.448   2.279  12.094 -0.3561  0.1480 -1.0138
 2683TIP3   OH229463   3.494   4.900  13.892  0.5812  0.2164  0.1298
 2683TIP3    H129464   3.432   4.951  13.944 -0.7519 -1.6063  0.3461
 2683TIP3    H229465   3.580   4.925  13.926 -0.2438 -0.6864  3.0023
 2684TIP3   OH229466   3.656   4.414   2.380  0.0282 -0.3242 -0.3314
 2684TIP3    H129467   3.587   4.416   2.313  0.6182 -0.4559 -0.9579
 2684TIP3    H229468   3.647   4.497   2.426 -0.3785 -0.2268 -0.5809
 2685TIP3   OH229469   2.366   5.448   0.804  0.3077  0.4421  0.0242
 2685TIP3    H129470   2.399   5.502   0.733  0.5776  1.3696  0.8364
 2685TIP3    H229471   2.423   5.372   0.805  0.3747  0.4850 -0.6734
 2686TIP3   OH229472   3.787   5.169  11.766  0.0372 -0.1745  0.3090
 2686TIP3    H129473   3.695   5.153  11.743  0.0965 -1.4045  0.8613
 2686TIP3    H229474   3.832   5.088  11.741  1.2872  1.0540 -1.5497
 2687TIP3   OH229475   5.783   6.092  13.819  0.4850  0.0913  0.4397
 2687TIP3    H129476   5.730   6.112  13.742  0.0243  0.2307  0.7898
 2687TIP3    H229477   5.854   6.036  13.786 -0.8138 -1.4832  0.2352
 2688TIP3   OH229478   4.056   6.367   2.139 -0.2874  0.2268 -0.2878
 2688TIP3    H129479   4.068   6.448   2.188 -0.0683 -0.2666  0.4766
 2688TIP3    H229480   3.969   6.336   2.166  0.2519 -0.5630  0.5531
 2689TIP3   OH229481   4.111   3.736   0.751  0.2987  0.3901  0.1293
 2689TIP3    H129482   4.170   3.784   0.809  0.1377 -0.2078  0.7977
 2689TIP3    H229483   4.169   3.682   0.697  0.4799  1.3522 -0.6438
 2690TIP3   OH229484   1.445   2.870  11.490 -0.3814 -0.7145 -0.4973
 2690TIP3    H129485   1.392   2.949  11.480 -0.7542 -0.7878  0.8049
 2690TIP3    H229486   1.391   2.811  11.542  0.3138 -1.4306 -0.5769
 2691TIP3   OH229487   2.077   0.739  14.191 -0.3695 -0.2060 -0.2431
 2691TIP3    H129488   2.046   0.790  14.266 -1.5978 -0.5639 -0.5067
 2691TIP3    H229489   2.037   0.653  14.202  1.0368 -0.8799 -0.2460
 2692TIP3   OH229490   5.381   5.694   2.890  0.0600 -0.1147 -0.5207
 2692TIP3    H129491   5.432   5.765   2.851 -1.0019  0.7904 -0.3107
 2692TIP3    H229492   5.366   5.723   2.981 -0.7079 -0.4181 -0.5461
 2693TIP3   OH229493   6.416   4.492   3.735 -0.4047 -0.4070 -0.0986
 2693TIP3    H129494   6.332   4.485   3.688 -1.2279 -0.1643  1.2978
 2693TIP3    H229495   6.474   4.536   3.674 -1.3894 -0.2973 -0.9781
 2694TIP3   OH229496   2.083   2.296  14.539 -0.3090  0.1934  0.3831
 2694TIP3    H129497   2.150   2.266  14.477  0.2282  1.3447  0.3937
 2694TIP3    H229498   2.049   2.216  14.579  0.7108 -0.4277  0.0101
 2695TIP3   OH229499   4.592   2.617   5.769  0.8625 -0.2208  0.2515
 2695TIP3    H129500   4.570   2.618   5.863 -0.2627 -1.5346  0.0103
 2695TIP3    H229501   4.562   2.702   5.737 -0.9584 -0.6923  0.6116
 2696TIP3   OH229502   1.219   0.345   2.157  0.1511 -0.3089  0.0637
 2696TIP3    H129503   1.182   0.431   2.173  1.0095  0.0091  0.3606
 2696TIP3    H229504   1.254   0.317   2.242  0.3915 -0.6955 -0.1569
 2697TIP3   OH229505   5.571   0.956   4.454 -0.2809  0.1987  0.1267
 2697TIP3    H129506   5.618   0.873   4.463  0.8775  1.1088  2.9578
 2697TIP3    H229507   5.603   0.992   4.371  0.2950 -1.4799 -0.4154
 2698TIP3   OH229508   4.946   2.738  12.729  0.0526  0.3846 -0.2269
 2698TIP3    H129509   5.007   2.678  12.686  0.9462  1.3558 -0.3266
 2698TIP3    H229510   4.923   2.696  12.811  1.4195  0.3416  0.1375
 2699TIP3   OH229511   5.406   1.124  11.642 -0.0255  0.2140 -0.3051
 2699TIP3    H129512   5.491   1.142  11.602  0.3566  1.3372  0.9778
 2699TIP3    H229513   5.346   1.118  11.568  0.9679  0.4736 -1.1567
 2700TIP3   OH229514   2.446   3.297   6.387 -0.3912 -0.0791  0.0309
 2700TIP3    H129515   2.442   3.218   6.441  0.5065  0.1641  0.4565
 2700TIP3    H229516   2.448   3.264   6.297  0.5242 -0.5645  0.2230
 2701TIP3   OH229517   5.019   4.936  13.439 -0.1129  0.4584 -0.3258
 2701TIP3    H129518   4.954   4.990  13.484 -1.6093 -2.0552  0.6095
 2701TIP3    H229519   4.970   4.887  13.374  0.4742 -2.7770  1.5632
 2702TIP3   OH229520   5.350   2.323  12.927  0.4003  0.3761 -0.2146
 2702TIP3    H129521   5.328   2.396  12.985 -0.5126 -0.5602  0.6463
 2702TIP3    H229522   5.358   2.248  12.986 -0.5352 -0.5909 -1.2995
 2703TIP3   OH229523   0.788   3.510  13.901  0.6282  0.2841  0.3833
 2703TIP3    H129524   0.875   3.548  13.891  0.3655  0.5629 -1.0031
 2703TIP3    H229525   0.804   3.418  13.923  1.2804  0.3430  0.1599
 2704TIP3   OH229526   4.699   0.749  13.623 -0.0979 -0.3904 -0.3296
 2704TIP3    H129527   4.622   0.697  13.602  0.2926 -1.1454  0.0728
 2704TIP3    H229528   4.739   0.704  13.697 -1.1429  1.9179  1.6873
 2705TIP3   OH229529   6.005   4.697  14.111  0.2449 -0.2531 -0.3330
 2705TIP3    H129530   5.974   4.738  14.030 -0.4644  0.6953  0.4092
 2705TIP3    H229531   5.931   4.644  14.141  0.0769  0.3328  0.3130
 2706TIP3   OH229532   3.714   3.420   1.059 -0.3208 -0.1824 -0.1375
 2706TIP3    H129533   3.715   3.326   1.038 -0.7245 -0.0567 -0.7435
 2706TIP3    H229534   3.628   3.434   1.099  0.5874 -0.4949  2.0005
 2707TIP3   OH229535   2.431   0.781  14.881  0.5392 -0.4074  0.4981
 2707TIP3    H129536   2.349   0.807  14.923  0.2590 -1.6056  0.7013
 2707TIP3    H229537   2.492   0.766  14.953  0.3176 -1.5853  0.4484
 2708TIP3   OH229538   1.057   5.751   4.557 -0.2978  0.2749 -0.0703
 2708TIP3    H129539   1.092   5.677   4.506 -1.4657  0.4139 -1.0949
 2708TIP3    H229540   1.026   5.712   4.638  1.3320  0.0095  0.4554
 2709TIP3   OH229541   4.998   5.162  12.780  0.4481  0.3656 -0.2723
 2709TIP3    H129542   5.092   5.146  12.782  0.3931 -0.3965 -2.2814
 2709TIP3    H229543   4.960   5.092  12.833  0.7930 -1.4230 -2.3269
 2710TIP3   OH229544   5.176   2.982   3.568 -0.1145  0.1950  0.1107
 2710TIP3    H129545   5.268   2.961   3.554  0.5098  1.8342  1.5872
 2710TIP3    H229546   5.130   2.900   3.551  1.8205 -1.2415  1.5195
 2711TIP3   OH229547   5.230   5.763   5.424  0.4186 -0.5550 -0.3785
 2711TIP3    H129548   5.305   5.746   5.482 -0.2589  2.5676  1.5056
 2711TIP3    H229549   5.269   5.768   5.336  2.4368  0.8651  0.5499
 2712TIP3   OH229550   1.815   6.156   3.881  0.1781 -0.3065  0.0280
 2712TIP3    H129551   1.856   6.242   3.875 -1.0058  0.2310 -0.5013
 2712TIP3    H229552   1.785   6.150   3.972 -1.5808  0.7164 -0.4585
 2713TIP3   OH229553   5.155   0.147   0.489 -0.0153  0.8783  0.4249
 2713TIP3    H129554   5.132   0.226   0.538 -0.7666  0.6541  0.4407
 2713TIP3    H229555   5.131   0.167   0.398 -1.1959  0.2888  0.5962
 2714TIP3   OH229556   1.467   2.945  14.663 -0.1368 -0.1425  0.0210
 2714TIP3    H129557   1.551   2.900  14.675 -0.2852 -0.5212 -0.3435
 2714TIP3    H229558   1.462   2.961  14.569 -0.0090  0.7887  0.1655
 2715TIP3   OH229559   0.669   2.627  13.665  0.3984 -0.1533 -0.2281
 2715TIP3    H129560   0.585   2.662  13.635  0.0165 -1.4209 -0.6608
 2715TIP3    H229561   0.733   2.666  13.606 -0.0129 -0.0995 -0.6442
 2716TIP3   OH229562   2.802   3.983   4.958  0.2124 -0.4495  0.2553
 2716TIP3    H129563   2.753   3.952   4.882 -0.6530  2.3458 -0.3611
 2716TIP3    H229564   2.776   3.924   5.028 -0.0473 -2.2009 -1.2673
 2717TIP3   OH229565   2.159   6.531  13.002  0.0667  0.2934 -0.4536
 2717TIP3    H129566   2.137   6.620  12.975 -1.5947  0.0726  0.0990
 2717TIP3    H229567   2.097   6.475  12.955 -0.6499 -0.3526  1.2322
 2718TIP3   OH229568   1.135   3.365  16.690 -0.4326  0.1869 -0.6745
 2718TIP3    H129569   1.105   3.431  16.628  0.5759  1.2970 -0.0081
 2718TIP3    H229570   1.144   3.285  16.639  0.8832  1.2071 -2.0824
 2719TIP3   OH229571   5.996   3.683   5.799 -0.1284 -0.1766  0.5807
 2719TIP3    H129572   6.043   3.672   5.882  1.0638  0.1439 -0.0413
 2719TIP3    H229573   6.058   3.655   5.732 -0.9450 -0.0646 -0.2304
 2720TIP3   OH229574   2.065   3.864   4.094  0.4142  0.0778  0.3678
 2720TIP3    H129575   2.012   3.862   4.174  0.6585  0.6454  0.5480
 2720TIP3    H229576   2.153   3.885   4.125  0.9592 -1.8281  0.1802
 2721TIP3   OH229577   4.692   0.335  16.559 -0.4792  0.0981  0.1841
 2721TIP3    H129578   4.612   0.315  16.608 -1.8015  1.2542 -1.4637
 2721TIP3    H229579   4.748   0.380  16.623 -1.0555 -0.8882  1.4034
 2722TIP3   OH229580   5.191   6.474   0.085  0.7135  0.2483 -0.0620
 2722TIP3    H129581   5.249   6.513   0.020 -1.6089  2.3423 -0.9232
 2722TIP3    H229582   5.232   6.495   0.169  1.9543  0.4606 -0.7159
 2723TIP3   OH229583   0.919   0.204  13.209  0.1526 -0.1274 -0.0921
 2723TIP3    H129584   0.875   0.245  13.283 -2.6294 -0.0381 -1.7229
 2723TIP3    H229585   0.886   0.114  13.208 -1.1451  0.3345 -2.1676
 2724TIP3   OH229586   4.346   4.709  15.189 -0.0900 -0.0978  0.5476
 2724TIP3    H129587   4.414   4.655  15.230  0.8428  0.3866 -0.3457
 2724TIP3    H229588   4.269   4.696  15.244  0.4849 -1.3318  1.0764
 2725TIP3   OH229589   2.469   2.581  14.843  0.7304  0.0865 -0.0414
 2725TIP3    H129590   2.413   2.554  14.771  0.3654 -0.7144  0.5315
 2725TIP3    H229591   2.437   2.669  14.867  0.2476 -0.0317 -0.2463
 2726TIP3   OH229592   1.936   4.728   5.728 -0.2882 -0.2829 -0.1739
 2726TIP3    H129593   1.907   4.799   5.670  1.1492 -0.7074 -1.4616
 2726TIP3    H229594   1.999   4.769   5.787 -0.9304 -0.0875  0.3891
 2727TIP3   OH229595   1.149   3.591   5.865  0.0030  0.0655 -0.7098
 2727TIP3    H129596   1.182   3.680   5.873 -0.7337  0.2628  0.2362
 2727TIP3    H229597   1.059   3.595   5.898 -0.2185 -0.9111 -1.1648
 2728TIP3   OH229598   4.513   2.876   4.249 -0.0968 -0.1821 -0.1218
 2728TIP3    H129599   4.493   2.942   4.182  0.0033 -0.5141 -0.4805
 2728TIP3    H229600   4.593   2.834   4.218 -0.8268 -1.2946 -0.5083
 2729TIP3   OH229601   0.596   3.353  16.736  0.4009 -0.7536  0.1689
 2729TIP3    H129602   0.579   3.422  16.800  1.2448 -1.1292  0.8184
 2729TIP3    H229603   0.677   3.380  16.693  0.8529 -1.4418  0.5797
 2730TIP3   OH229604   2.759   1.565  13.028  0.5447  0.1892 -0.1448
 2730TIP3    H129605   2.849   1.570  12.995  0.9744 -1.9798  0.6057
 2730TIP3    H229606   2.704   1.576  12.950  1.5094 -0.9433 -1.0163
 2731TIP3   OH229607   5.016   4.757   3.156  0.3214  0.1973 -0.2528
 2731TIP3    H129608   5.107   4.728   3.147  0.3963  0.3028  0.1739
 2731TIP3    H229609   4.971   4.717   3.081  0.5855 -0.3841 -0.1055
 2732TIP3   OH229610   1.435   4.725   0.618  0.6298  0.6752 -0.0665
 2732TIP3    H129611   1.475   4.730   0.704 -0.3962 -0.7604  0.5028
 2732TIP3    H229612   1.475   4.648   0.577  1.1387  1.3657 -0.9012
 2733TIP3   OH229613   2.822   2.019   1.655  0.4539  0.5368  0.0910
 2733TIP3    H129614   2.904   2.023   1.705  0.4078  1.8236  0.0763
 2733TIP3    H229615   2.808   1.926   1.639  1.5567  0.2636  0.6928
 2734TIP3   OH229616   5.121   1.919   2.413 -0.1445 -0.1928 -0.1604
 2734TIP3    H129617   5.098   2.003   2.454  2.4894  0.2109  0.5684
 2734TIP3    H229618   5.091   1.928   2.323  0.2634  1.6118 -0.1448
 2735TIP3   OH229619   6.687   1.754   4.643  0.4220  0.4381  0.2377
 2735TIP3    H129620   6.605   1.802   4.654 -0.0621  0.4023 -2.8483
 2735TIP3    H229621   6.753   1.822   4.634  0.6105  0.4725  1.8193
 2736TIP3   OH229622   4.963   4.614   4.988  0.0015  0.4471 -0.2768
 2736TIP3    H129623   5.025   4.687   4.995 -0.2956  0.6520  0.1753
 2736TIP3    H229624   4.959   4.577   5.076 -1.6656  1.3556  0.0450
 2737TIP3   OH229625   1.555   0.323   0.870 -1.0061  0.4523 -0.1579
 2737TIP3    H129626   1.566   0.352   0.960 -3.0001  0.3624  0.1337
 2737TIP3    H229627   1.550   0.404   0.819 -0.8220  0.5252 -0.0573
 2738TIP3   OH229628   4.862   5.763  12.608 -0.1459  0.0725  0.4011
 2738TIP3    H129629   4.953   5.772  12.634 -0.0300  1.0687 -0.3383
 2738TIP3    H229630   4.837   5.676  12.640  0.4373  0.6191  2.4229
 2739TIP3   OH229631   4.487   2.012  13.565  0.3973  0.0611  0.2821
 2739TIP3    H129632   4.520   1.953  13.633  0.0632 -0.3891  0.0560
 2739TIP3    H229633   4.437   1.955  13.506  1.6129  0.2504 -0.9599
 2740TIP3   OH229634   3.530   4.231  16.452  0.1561  0.4208 -0.1249
 2740TIP3    H129635   3.463   4.282  16.406  0.3512  1.0230  0.2646
 2740TIP3    H229636   3.481   4.180  16.517  0.1799  1.5792  0.8069
 2741TIP3   OH229637   0.826   4.600  15.609  0.4294 -0.0455 -0.1042
 2741TIP3    H129638   0.783   4.526  15.651  1.4358 -0.1889  0.7036
 2741TIP3    H229639   0.771   4.675  15.629 -0.0988 -0.4256 -0.1292
 2742TIP3   OH229640   5.278   4.449  11.348 -0.1129  0.2389 -0.1557
 2742TIP3    H129641   5.189   4.436  11.381  0.4132  0.6713  1.4467
 2742TIP3    H229642   5.303   4.536  11.378 -0.3957  1.5258 -3.5163
 2743TIP3   OH229643   5.153   4.542   2.932  0.0844  0.6392  0.4673
 2743TIP3    H129644   5.061   4.566   2.944 -0.0716 -0.7571  2.2267
 2743TIP3    H229645   5.201   4.599   2.993  0.2488  0.4583  0.5082
 2744TIP3   OH229646   4.209   2.222   3.513  0.0455 -0.0091  0.6743
 2744TIP3    H129647   4.295   2.179   3.512 -0.0204 -0.1492  1.0250
 2744TIP3    H229648   4.161   2.179   3.583 -0.7608 -0.7933 -0.3515
 2745TIP3   OH229649   2.181   0.317   1.980  0.4231  0.2230 -0.4863
 2745TIP3    H129650   2.227   0.367   2.047 -2.0657  0.0251  1.4194
 2745TIP3    H229651   2.236   0.240   1.966  1.7774  1.0584  0.1286
 2746TIP3   OH229652   4.923   6.395  12.176  0.1818 -0.0903 -0.6255
 2746TIP3    H129653   4.977   6.462  12.133  0.6246  0.2779  0.4781
 2746TIP3    H229654   4.834   6.413  12.147  0.2094  1.3807  0.1410
 2747TIP3   OH229655   2.940   2.440  11.397 -0.2317  0.0123  0.5918
 2747TIP3    H129656   2.950   2.346  11.381  2.1231  0.6598 -2.0750
 2747TIP3    H229657   2.846   2.455  11.390 -0.4772 -1.8697 -0.7030
 2748TIP3   OH229658   0.814   4.904   1.278 -0.1093  0.3778  0.0190
 2748TIP3    H129659   0.841   4.818   1.309 -1.1032 -0.1132 -0.4763
 2748TIP3    H229660   0.846   4.908   1.188 -0.6497  0.2660 -0.1763
 2749TIP3   OH229661   3.204   0.169  13.920 -0.0736 -0.0326  0.4672
 2749TIP3    H129662   3.245   0.092  13.958 -0.2143  0.3209  1.3463
 2749TIP3    H229663   3.206   0.153  13.825  1.5394 -0.2888  0.5304
 2750TIP3   OH229664   0.181   4.970  12.200  0.6626  0.4486  0.0336
 2750TIP3    H129665   0.120   4.941  12.267 -0.8371  0.2298 -1.3899
 2750TIP3    H229666   0.167   5.065  12.195  2.4512  0.8231  1.6422
 2751TIP3   OH229667   1.877   3.147  15.347 -0.0690  0.1568  0.1857
 2751TIP3    H129668   1.781   3.140  15.346  0.0113 -0.9594 -2.3385
 2751TIP3    H229669   1.900   3.172  15.258  2.0681 -0.8750  0.4288
 2752TIP3   OH229670   4.871   3.175  15.641  0.1850 -0.2568  0.2782
 2752TIP3    H129671   4.962   3.158  15.616  0.1091 -0.9721  0.4550
 2752TIP3    H229672   4.819   3.135  15.571  0.0048  0.0306  0.2468
 2753TIP3   OH229673   1.774   6.203  14.672  0.4339  0.8019 -0.3037
 2753TIP3    H129674   1.837   6.242  14.611  1.8181 -2.1144 -0.8178
 2753TIP3    H229675   1.688   6.220  14.632  1.2162  0.5102 -2.1470
 2754TIP3   OH229676   2.757   5.614   1.573 -0.7087  0.1597 -0.0086
 2754TIP3    H129677   2.673   5.629   1.617  0.9055 -0.4829  3.4818
 2754TIP3    H229678   2.779   5.699   1.535 -1.6888  1.0627  1.3553
 2755TIP3   OH229679   5.282   3.862  15.030  0.0390  0.1153 -0.5836
 2755TIP3    H129680   5.267   3.892  14.941 -2.1902 -1.1329 -0.6827
 2755TIP3    H229681   5.374   3.882  15.048  0.1049  1.7460 -2.6080
 2756TIP3   OH229682   1.122   4.718   1.191 -0.3315 -0.2301 -0.3437
 2756TIP3    H129683   1.159   4.773   1.122 -1.2315  0.7992 -0.0182
 2756TIP3    H229684   1.041   4.684   1.154  0.0560 -1.0879 -0.4220
 2757TIP3   OH229685   5.623   1.932  14.178  0.9696  0.5093 -0.0655
 2757TIP3    H129686   5.593   1.872  14.246  0.5738  0.7800  0.0009
 2757TIP3    H229687   5.663   2.004  14.226  0.7082  0.6912 -0.1203
 2758TIP3   OH229688   5.246   0.885  13.726 -0.2050  0.0026 -0.0712
 2758TIP3    H129689   5.225   0.964  13.775  1.0796 -0.7277  1.7086
 2758TIP3    H229690   5.195   0.893  13.645 -2.3491  1.2604  1.3299
 2759TIP3   OH229691   3.880   3.530   3.951 -0.1608 -0.1206  0.5796
 2759TIP3    H129692   3.851   3.473   4.021  0.3384 -0.6562  0.3578
 2759TIP3    H229693   3.812   3.598   3.945 -0.4605 -0.3601  1.2269
 2760TIP3   OH229694   0.297   1.722   0.156  0.6147 -0.0543  0.1415
 2760TIP3    H129695   0.357   1.661   0.113  0.0541 -1.4219  1.2323
 2760TIP3    H229696   0.293   1.691   0.247 -1.3841  0.2660  0.1835
 2761TIP3   OH229697   6.712   3.618   3.178 -0.2957 -0.3112 -0.5698
 2761TIP3    H129698   6.710   3.704   3.135  0.5274 -0.8228 -1.6386
 2761TIP3    H229699   6.657   3.563   3.123 -1.3059 -0.3372  0.4418
 2762TIP3   OH229700   6.784   1.008   3.207 -0.4388 -0.3017  0.5103
 2762TIP3    H129701   6.731   0.959   3.145 -0.4063 -0.3250  0.5015
 2762TIP3    H229702   6.720   1.049   3.265 -0.4548 -0.6073  0.7087
 2763TIP3   OH229703   0.405   4.683   0.994 -0.0298  0.0992  0.2788
 2763TIP3    H129704   0.341   4.628   0.947 -0.8107 -0.6546  2.1771
 2763TIP3    H229705   0.475   4.622   1.018  0.0586  0.3438  0.6445
 2764TIP3   OH229706   3.227   3.985  12.935 -0.2952 -0.2085  0.3376
 2764TIP3    H129707   3.168   3.991  12.860 -0.2297  0.7898  0.3546
 2764TIP3    H229708   3.174   3.946  13.004 -0.9862  0.7917  0.3883
 2765TIP3   OH229709   4.181   4.245   2.279 -0.3237 -0.1855  0.3213
 2765TIP3    H129710   4.242   4.318   2.288  0.0499 -0.4564 -0.0598
 2765TIP3    H229711   4.095   4.287   2.271  0.1277  0.2868 -2.1752
 2766TIP3   OH229712   0.749   5.608   5.979  0.3529  0.4346  0.0253
 2766TIP3    H129713   0.658   5.580   5.981  0.2088  0.9180  0.2495
 2766TIP3    H229714   0.781   5.592   6.068  0.7640 -0.6551 -0.3159
 2767TIP3   OH229715   0.238   0.241   5.066 -0.3520  0.4174  0.2978
 2767TIP3    H129716   0.181   0.216   5.139 -1.2535  1.7524  0.0680
 2767TIP3    H229717   0.327   0.220   5.096 -0.6280  1.7995  2.1512
 2768TIP3   OH229718   1.296   4.073  14.672 -0.1247 -0.1266 -0.6847
 2768TIP3    H129719   1.362   4.075  14.602  0.3253 -1.9603 -0.3590
 2768TIP3    H229720   1.347   4.071  14.753 -0.5064 -2.2574 -0.4434
 2769TIP3   OH229721   3.060   0.169  15.364  0.0070 -0.6390 -0.4489
 2769TIP3    H129722   3.143   0.187  15.320 -0.3724  0.5407 -0.6970
 2769TIP3    H229723   3.086   0.124  15.445  0.8676 -0.5499 -0.6622
 2770TIP3   OH229724   1.478   0.923   0.425  0.3511 -0.4317 -0.4154
 2770TIP3    H129725   1.472   0.990   0.357 -4.1213  0.6582  0.8919
 2770TIP3    H229726   1.474   0.840   0.377 -0.8165  0.3074 -1.6324
 2771TIP3   OH229727   6.423   5.381  16.356  0.1882 -0.0194  0.2142
 2771TIP3    H129728   6.339   5.419  16.331  0.9753  0.2334 -2.1032
 2771TIP3    H229729   6.450   5.432  16.433 -0.3492  1.8998 -0.8465
 2772TIP3   OH229730   5.603   6.031   6.474 -0.6120  0.0780 -0.3276
 2772TIP3    H129731   5.596   5.955   6.533 -1.0123 -0.3024 -0.8664
 2772TIP3    H229732   5.544   6.011   6.402 -0.9425  1.0402 -0.3327
 2773TIP3   OH229733   3.127   0.979  11.660  0.0940 -0.4275 -0.5134
 2773TIP3    H129734   3.130   0.903  11.602  0.0329 -1.1278  0.3965
 2773TIP3    H229735   3.059   1.035  11.622  0.0487 -0.8746 -1.1102
 2774TIP3   OH229736   2.352   2.587  12.292  0.7424 -0.8571  0.3941
 2774TIP3    H129737   2.428   2.638  12.267  1.1720 -1.4729  0.4282
 2774TIP3    H229738   2.278   2.630  12.248  0.9787  0.2771  1.0903
 2775TIP3   OH229739   0.449   4.023   2.194 -0.1466 -0.2101  0.3971
 2775TIP3    H129740   0.356   4.045   2.181  0.1323  0.8684  0.1324
 2775TIP3    H229741   0.453   3.989   2.283 -0.9702 -1.2674  0.0463
 2776TIP3   OH229742   2.278   1.175   5.745  0.2721 -0.4117  0.1493
 2776TIP3    H129743   2.316   1.090   5.768 -0.5350 -1.4106 -2.1113
 2776TIP3    H229744   2.351   1.225   5.709  0.4054 -0.7261 -0.0228
 2777TIP3   OH229745   1.065   1.535   0.527 -1.0930 -0.5691 -0.6007
 2777TIP3    H129746   1.151   1.498   0.545 -0.4440  0.9838 -0.4084
 2777TIP3    H229747   1.037   1.572   0.611 -0.8606  1.0844 -1.2423
 2778TIP3   OH229748   0.083   4.663  11.395  0.3459  0.0223  0.2296
 2778TIP3    H129749  -0.004   4.654  11.436  0.0898  1.4075  0.0215
 2778TIP3    H229750   0.078   4.608  11.317  0.2399 -1.2503  1.1039
 2779TIP3   OH229751   6.665   6.589  16.145  0.5291  0.7390 -0.0767
 2779TIP3    H129752   6.667   6.544  16.061 -2.5293 -0.1588  0.2768
 2779TIP3    H229753   6.693   6.522  16.208  0.8934  0.8212 -0.1523
 2780TIP3   OH229754   4.612   6.772   3.309  0.2092  0.4537  0.0772
 2780TIP3    H129755   4.669   6.710   3.354 -1.4985 -0.0122  1.6837
 2780TIP3    H229756   4.549   6.798   3.376  0.5445  3.5030 -0.7025
 2781TIP3   OH229757   6.681   5.767  12.754 -0.4047  0.0847 -0.2456
 2781TIP3    H129758   6.740   5.842  12.752 -0.5256  0.2126  0.6367
 2781TIP3    H229759   6.734   5.696  12.789 -1.0175  0.4372  1.4494
 2782TIP3   OH229760   3.816   4.980   4.034 -0.1509 -0.1111 -0.4872
 2782TIP3    H129761   3.871   5.033   3.977  0.8797 -1.1953 -0.5085
 2782TIP3    H229762   3.777   4.915   3.976  0.4211 -0.8305 -0.0728
 2783TIP3   OH229763   4.196   1.931  17.197 -0.3797 -0.4140 -0.8785
 2783TIP3    H129764   4.256   1.879  17.144  2.2705 -3.1152  4.3498
 2783TIP3    H229765   4.137   1.867  17.237  0.7768  0.8197  3.0638
 2784TIP3   OH229766   1.689   5.353   2.293 -0.0031  0.5313 -0.2478
 2784TIP3    H129767   1.741   5.426   2.258  1.4238 -0.4770 -0.2633
 2784TIP3    H229768   1.724   5.341   2.382 -0.1578 -0.2045 -0.2896
 2785TIP3   OH229769   5.839   6.131   6.542 -0.6827  0.0791  0.5820
 2785TIP3    H129770   5.744   6.120   6.532 -0.5431 -0.3942 -0.3502
 2785TIP3    H229771   5.871   6.044   6.567 -0.5459  0.3500  1.3648
 2786TIP3   OH229772   4.188   3.087  13.173  0.2052  0.5951 -0.2111
 2786TIP3    H129773   4.149   3.006  13.141  2.9956 -0.9920  0.3349
 2786TIP3    H229774   4.134   3.156  13.133 -2.1163 -1.4843 -0.7919
 2787TIP3   OH229775   5.559   0.561   4.025  0.3296 -1.1470  0.1674
 2787TIP3    H129776   5.507   0.576   3.946  0.8540 -3.1902 -0.5775
 2787TIP3    H229777   5.649   0.578   3.999  0.4510 -1.3148  0.4718
 2788TIP3   OH229778   1.004   3.799   1.982 -0.5586  0.5556  0.2042
 2788TIP3    H129779   0.978   3.750   2.059  0.2907  3.4833  2.4455
 2788TIP3    H229780   0.934   3.862   1.967  0.5883  1.8971  0.3281
 2789TIP3   OH229781   4.994   6.503  10.389 -0.7281 -0.0934  0.1814
 2789TIP3    H129782   4.948   6.501  10.472 -1.7354 -0.1034 -0.3702
 2789TIP3    H229783   5.082   6.469  10.409 -1.4674 -1.5951  0.9158
 2790TIP3   OH229784   5.242   5.635   0.532  0.1809  0.0653  0.0863
 2790TIP3    H129785   5.202   5.562   0.485  2.3004 -0.2944 -1.2652
 2790TIP3    H229786   5.257   5.701   0.464  3.2226 -0.4331  0.1930
 2791TIP3   OH229787   3.262   1.407  12.708  0.0234  0.6207  0.1649
 2791TIP3    H129788   3.236   1.320  12.678  0.7503 -0.8988  3.7342
 2791TIP3    H229789   3.347   1.422  12.666 -0.2253 -0.2673 -0.6744
 2792TIP3   OH229790   0.140   2.930   3.678 -0.1335 -0.4714 -0.0093
 2792TIP3    H129791   0.052   2.892   3.682 -0.8788  1.1690 -0.6958
 2792TIP3    H229792   0.164   2.944   3.770 -0.4043 -1.3198  0.1961
 2793TIP3   OH229793   3.988   0.837  11.609 -0.5364 -0.0051  0.0378
 2793TIP3    H129794   3.976   0.932  11.606  0.3016  0.0927 -0.1218
 2793TIP3    H229795   3.996   0.811  11.518  0.0217 -0.1334  0.1272
 2794TIP3   OH229796   0.757   6.049   0.796 -0.9417  0.4398 -0.3940
 2794TIP3    H129797   0.670   6.087   0.781 -0.6511 -0.5289 -5.2103
 2794TIP3    H229798   0.741   5.955   0.806 -0.5531  0.4377  0.2730
 2795TIP3   OH229799   1.502   5.461  15.242  0.0620  0.0856  0.5007
 2795TIP3    H129800   1.521   5.377  15.285 -0.2066 -0.7353 -0.9448
 2795TIP3    H229801   1.534   5.450  15.152 -0.9608  1.1482 -0.0148
 2796TIP3   OH229802   1.488   4.435   5.543 -0.4033 -0.0582  0.0987
 2796TIP3    H129803   1.514   4.475   5.626  1.3858 -1.1548  0.0718
 2796TIP3    H229804   1.465   4.345   5.566  0.7133 -0.5484 -0.6843
 2797TIP3   OH229805   0.259   5.698   4.124 -0.6854  0.1542 -0.0426
 2797TIP3    H129806   0.211   5.778   4.104 -3.1331 -1.3542 -0.3696
 2797TIP3    H229807   0.335   5.701   4.066 -1.2635  1.7462 -0.7613
 2798TIP3   OH229808   2.145   5.526  11.521  0.1782 -0.4272  0.5974
 2798TIP3    H129809   2.107   5.563  11.600  0.4980 -0.8149  0.9380
 2798TIP3    H229810   2.216   5.585  11.498  0.5566 -0.7059  1.0230
 2799TIP3   OH229811   1.743   0.668   2.154  0.4560 -0.3294 -0.0954
 2799TIP3    H129812   1.648   0.656   2.149  0.7492 -2.1789 -2.9814
 2799TIP3    H229813   1.778   0.579   2.156  2.1733  0.2931 -1.1489
 2800TIP3   OH229814   6.631   1.937  14.657  0.2094  0.1736  0.5112
 2800TIP3    H129815   6.690   1.937  14.733 -0.5555 -1.4681  1.1133
 2800TIP3    H229816   6.689   1.926  14.582  0.7475 -0.6406  1.0409
 2801TIP3   OH229817   2.162   0.758  14.937 -1.3862 -0.3260 -0.0116
 2801TIP3    H129818   2.068   0.774  14.935 -1.7014 -1.8760  1.2624
 2801TIP3    H229819   2.175   0.682  14.880 -1.2294 -1.4007  1.3902
 2802TIP3   OH229820   0.360   6.256  14.649  0.1114 -0.0704  0.5716
 2802TIP3    H129821   0.397   6.235  14.563  1.2485  1.2911  0.7085
 2802TIP3    H229822   0.276   6.210  14.651 -0.7157  1.1854 -1.9506
 2803TIP3   OH229823   5.775   4.437   4.411  0.3294 -0.0872  0.5021
 2803TIP3    H129824   5.722   4.403   4.338 -1.7836 -1.2893  2.5540
 2803TIP3    H229825   5.712   4.476   4.470  2.0561  1.0093  1.6577
 2804TIP3   OH229826   1.590   2.024  12.380  0.1270  0.1962 -0.9898
 2804TIP3    H129827   1.676   2.064  12.394  0.5598 -1.2357  0.6443
 2804TIP3    H229828   1.609   1.930  12.372 -1.2457 -0.0762 -1.0856
 2805TIP3   OH229829   4.150   6.153   2.745 -0.3294 -0.8475 -0.2355
 2805TIP3    H129830   4.090   6.142   2.672 -0.9087 -0.7270  0.2133
 2805TIP3    H229831   4.157   6.066   2.784  2.2480 -1.5523 -2.1529
 2806TIP3   OH229832   1.378   5.694   2.163  0.0403 -0.7953 -0.0031
 2806TIP3    H129833   1.354   5.754   2.233 -1.3455 -0.5785 -0.6560
 2806TIP3    H229834   1.425   5.749   2.100  1.0158 -0.9314  0.5787
 2807TIP3   OH229835   1.413   3.425   0.968  0.1914  0.2310  0.2117
 2807TIP3    H129836   1.451   3.490   1.028  0.4561  0.7434 -0.4975
 2807TIP3    H229837   1.450   3.342   0.997 -0.5978  0.3211  1.4872
 2808TIP3   OH229838   3.659   6.730  13.545 -0.1563  0.3248  0.1265
 2808TIP3    H129839   3.748   6.723  13.509  0.6199  0.9111  1.9037
 2808TIP3    H229840   3.639   6.824  13.540  0.0854  0.4634  1.4675
 2809TIP3   OH229841   6.171   4.815  12.611  0.2006  0.6062 -0.7865
 2809TIP3    H129842   6.075   4.817  12.605  0.1632 -0.1401 -0.5658
 2809TIP3    H229843   6.196   4.905  12.629 -0.5434  0.6018  0.3254
 2810TIP3   OH229844   0.816   6.215   3.392 -0.0069  0.8677 -0.0464
 2810TIP3    H129845   0.827   6.305   3.422  0.3372  0.5315  0.8402
 2810TIP3    H229846   0.897   6.171   3.418 -0.1772  0.3031 -0.4706
 2811TIP3   OH229847   2.540   0.588  16.211 -0.2403  0.0906 -0.2273
 2811TIP3    H129848   2.557   0.552  16.298 -0.0616 -0.3516 -0.4447
 2811TIP3    H229849   2.455   0.630  16.218 -1.4476 -2.2170 -0.5402
 2812TIP3   OH229850   0.909   2.093   0.542 -0.1031  0.2967 -0.1891
 2812TIP3    H129851   0.909   2.120   0.634  2.0733 -1.0304  0.2450
 2812TIP3    H229852   0.888   2.172   0.494 -2.1730  0.8097  1.4931
 2813TIP3   OH229853   6.148   6.754   0.711  0.4707 -0.0770  0.5471
 2813TIP3    H129854   6.208   6.810   0.662 -1.6331  2.4572  0.7301
 2813TIP3    H229855   6.109   6.697   0.646  0.4589  0.6971 -0.1340
 2814TIP3   OH229856   4.286   2.022   5.517 -0.3463 -0.4154 -0.0223
 2814TIP3    H129857   4.246   2.106   5.495 -1.1131 -0.9150 -0.5910
 2814TIP3    H229858   4.224   1.957   5.482 -0.8762 -1.2252  2.3363
 2815TIP3   OH229859   5.631   4.129   3.252  0.0293 -0.6978 -0.7262
 2815TIP3    H129860   5.719   4.134   3.215 -0.3469 -0.8852 -1.6563
 2815TIP3    H229861   5.623   4.039   3.284  0.7792 -0.1987  0.8904
 2816TIP3   OH229862   1.366   5.185   4.649 -0.0893  0.1796 -0.0829
 2816TIP3    H129863   1.395   5.095   4.657  0.7207  0.2463 -1.9600
 2816TIP3    H229864   1.426   5.235   4.704  1.4032 -0.0672 -1.4709
 2817TIP3   OH229865   4.924   3.258   0.861 -0.7245 -0.0240 -0.2786
 2817TIP3    H129866   4.989   3.253   0.931  0.6281 -0.1370 -1.5162
 2817TIP3    H229867   4.848   3.212   0.896  0.3885 -1.2386  0.6121
 2818TIP3   OH229868   0.864   6.019  15.813  0.0284  0.4216  0.3350
 2818TIP3    H129869   0.850   6.098  15.761 -0.8853  0.1426  0.1424
 2818TIP3    H229870   0.834   5.948  15.756  1.8508 -0.1844  0.0758
 2819TIP3   OH229871   4.323   6.537  14.989  0.3465 -0.2532  0.7973
 2819TIP3    H129872   4.276   6.602  15.042  2.1144  1.5148  0.2973
 2819TIP3    H229873   4.327   6.459  15.044 -0.2209  0.6648  2.1799
 2820TIP3   OH229874   3.305   4.611  15.750  0.1083 -0.0064 -0.4855
 2820TIP3    H129875   3.238   4.632  15.686  2.0509  3.1990 -1.5581
 2820TIP3    H229876   3.379   4.667  15.727  1.1713  0.6645  4.0477
 2821TIP3   OH229877   0.460   6.480  16.235  0.0989  0.2731  0.5237
 2821TIP3    H129878   0.523   6.552  16.236 -1.3138  1.5054  0.8463
 2821TIP3    H229879   0.502   6.414  16.179  0.7833  1.8969 -0.9418
 2822TIP3   OH229880   0.898   0.082  11.381 -0.3342  0.4481  0.0218
 2822TIP3    H129881   0.927  -0.001  11.345  1.3209  0.4169  1.3663
 2822TIP3    H229882   0.802   0.080  11.374 -0.1808 -0.6965 -1.7878
 2823TIP3   OH229883   2.347   3.993   1.900  0.6737 -0.5106  0.3062
 2823TIP3    H129884   2.418   3.966   1.841  1.2326  0.7354  0.3947
 2823TIP3    H229885   2.364   4.085   1.917 -0.6070 -0.3679  0.8566
 2824TIP3   OH229886   5.492   0.545  13.974  0.5812 -0.1477 -0.6268
 2824TIP3    H129887   5.477   0.470  14.032 -0.4058 -0.7736 -1.6794
 2824TIP3    H229888   5.414   0.599  13.982  1.3375  0.8516  0.2161
 2825TIP3   OH229889   2.176   2.864  13.112  0.1831 -0.0226 -0.5478
 2825TIP3    H129890   2.111   2.932  13.126  0.1886 -0.2498  0.5919
 2825TIP3    H229891   2.215   2.886  13.027  0.3554  1.5372 -0.0934
 2826TIP3   OH229892   4.612   2.177  13.374  0.3052 -0.5606 -0.1184
 2826TIP3    H129893   4.570   2.119  13.437 -1.8951  0.5029 -0.5753
 2826TIP3    H229894   4.662   2.239  13.427 -1.1140  0.0080  0.5697
 2827TIP3   OH229895   2.811   3.054   3.231  0.0725 -0.4788  0.2045
 2827TIP3    H129896   2.728   3.055   3.183 -0.1832 -1.5385  0.5909
 2827TIP3    H229897   2.861   2.983   3.190  1.0220  0.5122 -0.3923
 2828TIP3   OH229898   1.964   5.350  14.744 -0.0908 -0.3590 -0.4101
 2828TIP3    H129899   1.950   5.297  14.666 -0.3829  0.2260 -0.7550
 2828TIP3    H229900   1.957   5.288  14.817  2.7382 -1.3925 -0.9741
 2829TIP3   OH229901   1.992   3.537  12.135 -0.8419  0.3130  0.2326
 2829TIP3    H129902   1.903   3.501  12.136 -1.2476  1.0564 -3.1304
 2829TIP3    H229903   1.979   3.632  12.132  0.0227  0.4107 -0.7013
 2830TIP3   OH229904   6.667   0.561  14.723 -0.4301  0.2304 -0.2068
 2830TIP3    H129905   6.613   0.603  14.790  0.4183  0.6791  0.2025
 2830TIP3    H229906   6.685   0.631  14.660 -1.0274 -0.1320 -0.7947
 2831TIP3   OH229907   5.154   1.190  14.120  0.3763 -0.9207 -0.5152
 2831TIP3    H129908   5.104   1.133  14.178  0.2101  2.1788  2.5829
 2831TIP3    H229909   5.230   1.139  14.094  0.0355 -2.6787  1.8138
 2832TIP3   OH229910   5.730   3.198   3.178  0.3076  0.3877  0.4369
 2832TIP3    H129911   5.720   3.292   3.192  0.8309  0.5645 -0.3722
 2832TIP3    H229912   5.802   3.190   3.115  1.9184 -0.6355  2.3239
 2833TIP3   OH229913   0.745   5.515   6.313 -0.3235 -0.1796 -0.4718
 2833TIP3    H129914   0.653   5.519   6.287 -0.8393 -2.4106  0.8721
 2833TIP3    H229915   0.746   5.551   6.402  0.2116  0.3236 -0.6725
 2834TIP3   OH229916   0.049   4.165   4.126  0.0807 -0.7028 -0.0381
 2834TIP3    H129917   0.109   4.185   4.054 -1.1269 -1.1110 -1.1744
 2834TIP3    H229918   0.105   4.164   4.204  1.5446 -0.9843 -1.0642
 2835TIP3   OH229919   5.424   3.593  15.283 -0.1141  0.1594  0.3215
 2835TIP3    H129920   5.519   3.586  15.272 -0.1514  0.6596 -0.3269
 2835TIP3    H229921   5.397   3.504  15.305  0.3512 -0.2643 -0.7501
 2836TIP3   OH229922   2.070   6.110  13.735 -0.3830  0.4679 -0.5245
 2836TIP3    H129923   2.166   6.105  13.731 -0.4178 -1.0072  0.2414
 2836TIP3    H229924   2.041   6.092  13.646  0.0091 -0.5001 -0.4593
 2837TIP3   OH229925   0.470   6.553  13.107  0.2858  0.3149 -0.4831
 2837TIP3    H129926   0.528   6.500  13.053 -0.4689 -0.4120 -0.5942
 2837TIP3    H229927   0.383   6.540  13.070 -0.3122 -0.5459  1.1504
 2838TIP3   OH229928   2.192   2.415   0.421  0.2424  0.0173  0.4520
 2838TIP3    H129929   2.230   2.481   0.478 -0.5681  0.3284  0.6340
 2838TIP3    H229930   2.238   2.425   0.337  1.6347 -0.6292  1.1196
 2839TIP3   OH229931   4.413   6.279  16.507 -0.1923 -0.4293 -0.1890
 2839TIP3    H129932   4.449   6.359  16.545 -0.7395 -0.2450 -0.0570
 2839TIP3    H229933   4.418   6.214  16.577 -0.9779 -0.1532  0.1306
 2840TIP3   OH229934   2.465   3.981   6.325  0.0119  0.3437  0.3041
 2840TIP3    H129935   2.546   3.932   6.334  0.4419  1.1498  0.9121
 2840TIP3    H229936   2.410   3.927   6.268  0.5772 -0.6983  0.7288
 2841TIP3   OH229937   6.333   5.567  13.096  0.4901 -1.0146 -0.0575
 2841TIP3    H129938   6.272   5.635  13.125  0.1388 -1.6959  0.7980
 2841TIP3    H229939   6.289   5.527  13.020  0.2575 -0.9437  0.0376
 2842TIP3   OH229940   5.513   1.379   6.600  0.6895 -0.0730 -0.2366
 2842TIP3    H129941   5.454   1.427   6.658  0.5815 -1.8416  1.1344
 2842TIP3    H229942   5.457   1.316   6.554  1.1763 -0.3338 -0.4805
 2843TIP3   OH229943   2.765   5.252   0.042  0.2193  0.1159 -0.4825
 2843TIP3    H129944   2.843   5.254   0.099  2.4025 -0.9255 -3.3053
 2843TIP3    H229945   2.789   5.304  -0.034 -1.0159 -1.9493 -2.3719
 2844TIP3   OH229946   0.389   3.948  11.020  0.1094  0.1016  0.0643
 2844TIP3    H129947   0.460   3.999  10.981  0.5582  0.0094  0.7477
 2844TIP3    H229948   0.330   3.929  10.947 -0.2856  1.9457 -0.1247
 2845TIP3   OH229949   1.547   3.225  12.632  0.3493  0.3174 -1.0604
 2845TIP3    H129950   1.528   3.135  12.606 -0.1287  0.2917 -0.6241
 2845TIP3    H229951   1.504   3.235  12.716  2.0721  0.3287 -0.1509
 2846TIP3   OH229952   6.301   5.255   1.588 -0.2785 -0.0612 -0.1019
 2846TIP3    H129953   6.351   5.310   1.528 -0.3422 -0.9691 -0.9880
 2846TIP3    H229954   6.226   5.225   1.537 -0.1099 -1.1866  0.3003
 2847TIP3   OH229955   0.773   4.133  16.497  0.5641  0.0043  0.3387
 2847TIP3    H129956   0.686   4.105  16.468  1.8932 -1.7702 -2.0559
 2847TIP3    H229957   0.827   4.131  16.419  2.3979  2.8423  1.4250
 2848TIP3   OH229958   3.609   3.421  14.304 -0.2284  0.5186  0.3474
 2848TIP3    H129959   3.563   3.434  14.221  0.8262  0.0531 -0.3243
 2848TIP3    H229960   3.636   3.329  14.302  1.4080  0.9838  0.3589
 2849TIP3   OH229961   6.084   2.815   4.144  0.4908  0.3230 -0.3782
 2849TIP3    H129962   6.097   2.721   4.148  0.0740  0.3031  0.8746
 2849TIP3    H229963   6.140   2.850   4.213 -0.6556  0.8326  0.3063
 2850TIP3   OH229964   1.361   2.199  11.574 -0.2429  0.1873 -0.2689
 2850TIP3    H129965   1.390   2.290  11.579 -0.0591  0.0994  0.3164
 2850TIP3    H229966   1.296   2.199  11.505  0.7239  0.5053 -1.1967
 2851TIP3   OH229967   4.297   5.913   0.749 -0.5213  0.2932 -0.4130
 2851TIP3    H129968   4.291   5.837   0.690  1.1679 -0.1631 -0.0316
 2851TIP3    H229969   4.286   5.989   0.692  0.2844 -0.1733 -1.2020
 2852TIP3   OH229970   3.843   1.021  15.409 -0.4348 -0.8180  0.2763
 2852TIP3    H129971   3.824   1.046  15.319  0.4035 -1.9294 -0.2140
 2852TIP3    H229972   3.925   1.066  15.429 -1.7085  1.1938  1.2442
 2853TIP3   OH229973   0.374   3.873   6.217 -0.3703  0.0452 -0.7891
 2853TIP3    H129974   0.353   3.796   6.165  0.1266 -0.6557  0.0497
 2853TIP3    H229975   0.461   3.856   6.253  0.3445  1.6016 -1.7384
 2854TIP3   OH229976   3.686   5.319   1.220 -0.0675  0.3411 -0.1919
 2854TIP3    H129977   3.614   5.271   1.179 -0.6035  0.2703  0.8280
 2854TIP3    H229978   3.647   5.402   1.248  0.6105  0.9550 -1.0027
 2855TIP3   OH229979   1.207   2.828   0.443 -0.2713 -0.0942 -0.2370
 2855TIP3    H129980   1.188   2.917   0.472  2.5615 -0.2849  2.5013
 2855TIP3    H229981   1.158   2.818   0.361 -3.8277  2.5802  1.4089
 2856TIP3   OH229982   4.095   1.648   0.380 -0.2163  0.2232  0.4754
 2856TIP3    H129983   4.020   1.589   0.372  0.0153 -0.2079  1.3573
 2856TIP3    H229984   4.158   1.599   0.434  1.2283  0.0588 -1.3236
 2857TIP3   OH229985   3.648   2.651  16.179 -0.4601  0.2405 -0.2555
 2857TIP3    H129986   3.628   2.587  16.110 -0.5290  1.2868 -1.2188
 2857TIP3    H229987   3.707   2.714  16.138  1.0773 -0.2041  1.2276
 2858TIP3   OH229988   0.360   6.754  12.648  0.3521  0.1790 -0.3749
 2858TIP3    H129989   0.294   6.698  12.689 -0.8134  0.5761 -1.6684
 2858TIP3    H229990   0.437   6.698  12.640 -0.3302 -0.7840 -0.3009
 2859TIP3   OH229991   3.778   2.526  14.198  1.1544 -0.1801 -0.8222
 2859TIP3    H129992   3.766   2.443  14.151  1.2224  0.1540 -1.4461
 2859TIP3    H229993   3.843   2.507  14.266  1.0996 -0.6596 -0.9044
 2860TIP3   OH229994   4.338   1.083  10.718  0.5509 -0.1131  0.0124
 2860TIP3    H129995   4.412   1.065  10.776  2.2134  2.8724 -1.0439
 2860TIP3    H229996   4.313   0.997  10.684  2.9068 -1.3143  1.1767
 2861TIP3   OH229997   0.095   3.620  14.606 -0.0596 -0.0020  0.1426
 2861TIP3    H129998   0.155   3.673  14.553  1.5602  0.2331  2.1417
 2861TIP3    H229999   0.099   3.533  14.567 -0.4939  0.6597 -1.3885
 2862TIP3   OH230000   5.672   0.282   0.934  0.4971 -0.2130 -0.1910
 2862TIP3    H130001   5.664   0.203   0.987 -0.0632  0.3989  0.6488
 2862TIP3    H230002   5.668   0.354   0.997 -0.2098  0.5292 -1.0646
 2863TIP3   OH230003   3.806   5.294   3.886 -0.3980  0.2512 -0.0053
 2863TIP3    H130004   3.765   5.317   3.802 -2.5067  0.1216  0.9657
 2863TIP3    H230005   3.772   5.358   3.948  2.4244  1.3681  0.4786
 2864TIP3   OH230006   1.085   5.981   2.992  0.2416 -0.3484  0.2807
 2864TIP3    H130007   1.084   6.027   3.076 -0.3003  0.5004 -0.1827
 2864TIP3    H230008   0.993   5.977   2.966  0.0664 -3.4135  1.2267
 2865TIP3   OH230009   5.298   0.924  16.524  0.0950 -0.5690 -0.4688
 2865TIP3    H130010   5.213   0.951  16.489  0.1867 -1.0381 -1.0557
 2865TIP3    H230011   5.361   0.946  16.456  0.5842  0.7002  0.3800
 2866TIP3   OH230012   0.487   1.429  13.006  0.0739 -0.0640  0.2425
 2866TIP3    H130013   0.445   1.407  12.923 -0.6808  0.5947  0.4425
 2866TIP3    H230014   0.429   1.493  13.047 -0.0280 -1.0484  1.6887
 2867TIP3   OH230015   4.804   1.600  13.844  0.3329  0.2748 -0.0306
 2867TIP3    H130016   4.881   1.566  13.890  0.4758  1.0353  0.2946
 2867TIP3    H230017   4.820   1.579  13.752  0.2277 -0.9050  0.2023
 2868TIP3   OH230018   2.150   2.696  12.812  0.2516  0.1045 -0.0872
 2868TIP3    H130019   2.074   2.735  12.856  1.2488  1.7963  0.1796
 2868TIP3    H230020   2.158   2.609  12.851 -1.7170 -0.2065 -0.3246
 2869TIP3   OH230021   0.395   0.096  14.867 -0.3038  0.0592 -0.3787
 2869TIP3    H130022   0.402   0.162  14.937 -1.7263 -0.8482  0.6362
 2869TIP3    H230023   0.486   0.068  14.853  0.3816  2.5089 -1.1123
 2870TIP3   OH230024   2.496   1.229  11.460 -0.8313  0.7409 -0.3549
 2870TIP3    H130025   2.583   1.229  11.419 -0.9045  0.0062 -0.5193
 2870TIP3    H230026   2.514   1.228  11.554 -0.6530 -0.9027 -0.3960
 2871TIP3   OH230027   4.232   6.607  11.929 -0.0177 -0.3643 -0.0333
 2871TIP3    H130028   4.238   6.689  11.880  0.4795 -0.7752 -0.6723
 2871TIP3    H230029   4.230   6.634  12.021  1.8455  0.3107 -0.1536
 2872TIP3   OH230030   0.919   6.146   4.817 -0.0739  0.7228  0.5454
 2872TIP3    H130031   0.859   6.209   4.777 -0.7765 -1.0077 -1.1649
 2872TIP3    H230032   1.002   6.193   4.823 -0.5137  1.7259 -0.9904
 2873TIP3   OH230033   6.337   1.099   1.979 -0.3272  0.3703  0.2010
 2873TIP3    H130034   6.280   1.174   1.968 -1.2170  0.1450  2.9914
 2873TIP3    H230035   6.361   1.074   1.889 -0.6786  3.4170 -0.8045
 2874TIP3   OH230036   4.304   2.888   2.805 -0.1778 -0.0677  0.0197
 2874TIP3    H130037   4.247   2.850   2.872  0.0991  0.7825  0.7602
 2874TIP3    H230038   4.261   2.970   2.781  0.6774  0.5468  0.5381
 2875TIP3   OH230039   4.253   3.980   5.052 -0.2576  0.1005 -0.2837
 2875TIP3    H130040   4.227   3.908   5.110 -1.3031  1.4114  0.9183
 2875TIP3    H230041   4.180   4.041   5.055  1.0407  1.7129 -0.4458
 2876TIP3   OH230042   6.538   5.163  12.652 -1.0053  0.3074  0.8299
 2876TIP3    H130043   6.512   5.255  12.639  0.2164  0.5218 -0.1815
 2876TIP3    H230044   6.633   5.164  12.643 -1.0624 -1.2151 -0.1014
 2877TIP3   OH230045   6.293   3.324   5.431  0.0797  0.4689  0.0230
 2877TIP3    H130046   6.214   3.299   5.478  1.0834 -1.3936  0.7693
 2877TIP3    H230047   6.289   3.419   5.426 -0.5194  0.6438  3.0482
 2878TIP3   OH230048   6.697   3.516  16.945  0.0695  0.4875 -0.3576
 2878TIP3    H130049   6.605   3.495  16.961  0.4203 -0.3623  0.5981
 2878TIP3    H230050   6.719   3.582  17.010  0.7578 -0.9955  0.9385
 2879TIP3   OH230051   6.728   5.042   5.502 -0.9110 -0.0984  0.3125
 2879TIP3    H130052   6.674   4.991   5.442 -1.4735 -1.2958  1.7971
 2879TIP3    H230053   6.796   4.981   5.531  0.3618  0.9648 -0.4000
 2880TIP3   OH230054   1.414   3.736   0.735 -0.5202  0.0061 -0.1163
 2880TIP3    H130055   1.382   3.793   0.666 -1.2234  0.0387  0.2293
 2880TIP3    H230056   1.433   3.794   0.808  0.8793  0.0512 -0.5136
 2881TIP3   OH230057   2.090   6.626   3.046 -0.2665 -0.2625 -0.3548
 2881TIP3    H130058   2.076   6.676   3.127 -0.8393 -1.5914  0.3744
 2881TIP3    H230059   2.135   6.688   2.988 -1.2671  1.2183  0.4078
 2882TIP3   OH230060   2.185   2.214  11.408  0.1831 -0.9513  0.2397
 2882TIP3    H130061   2.274   2.203  11.376  0.8084 -0.2843  1.6748
 2882TIP3    H230062   2.147   2.127  11.405  0.3196 -0.9427 -1.9736
 2883TIP3   OH230063   5.731   5.202   2.203  0.0083  0.4835  0.0997
 2883TIP3    H130064   5.715   5.186   2.110  0.3022  1.1584 -0.0750
 2883TIP3    H230065   5.683   5.283   2.221 -1.4335 -0.5497  0.9504
 2884TIP3   OH230066   4.874   4.913   0.396  0.0461 -0.5984  0.5833
 2884TIP3    H130067   4.847   5.005   0.388  0.2112 -0.4599  1.4868
 2884TIP3    H230068   4.803   4.863   0.357 -0.5626 -0.1354  1.0923
 2885TIP3   OH230069   5.118   2.504   6.580 -0.0328  0.1239 -0.3182
 2885TIP3    H130070   5.053   2.571   6.601  1.0694  0.5690  1.8132
 2885TIP3    H230071   5.081   2.457   6.505 -0.5846  3.4444 -2.2056
 2886TIP3   OH230072   4.860   6.666   3.416  0.0282 -0.2505  0.3880
 2886TIP3    H130073   4.866   6.747   3.366 -0.0552  0.5917  1.7425
 2886TIP3    H230074   4.934   6.613   3.385 -1.2768 -0.6352 -2.1932
 2887TIP3   OH230075   2.860   4.810  12.953  0.4474 -0.6255  0.1653
 2887TIP3    H130076   2.948   4.842  12.933  0.2237 -0.5422 -0.7100
 2887TIP3    H230077   2.822   4.877  13.010  1.1275 -0.9055  0.9436
 2888TIP3   OH230078   5.241   0.448  14.576  0.5970  0.5727 -0.2866
 2888TIP3    H130079   5.198   0.450  14.491  2.8495  0.3473 -1.4716
 2888TIP3    H230080   5.335   0.445  14.556  1.1881  1.0365  2.2040
 2889TIP3   OH230081   4.510   4.558  10.845  0.3657  0.3757 -0.6755
 2889TIP3    H130082   4.581   4.552  10.781 -0.1156 -0.8208 -1.1204
 2889TIP3    H230083   4.533   4.632  10.900  2.4556 -0.5745 -0.2275
 2890TIP3   OH230084   3.691   3.970  16.448 -0.5383  0.0420 -0.1178
 2890TIP3    H130085   3.751   3.950  16.377  0.4376  1.6159  0.2439
 2890TIP3    H230086   3.652   4.054  16.425 -0.5149  0.3748  0.9910
 2891TIP3   OH230087   3.927   4.483  14.472 -0.0427 -0.1983 -0.4211
 2891TIP3    H130088   3.885   4.495  14.558  0.5841  0.0231 -0.1406
 2891TIP3    H230089   3.894   4.556  14.419 -0.7947 -0.5991 -0.5214
 2892TIP3   OH230090   1.589   3.679  16.439 -0.3282  0.4562 -0.0973
 2892TIP3    H130091   1.639   3.668  16.520  1.4923  2.3070 -0.9415
 2892TIP3    H230092   1.502   3.706  16.469 -0.1660 -0.5064  1.3012
 2893TIP3   OH230093   4.256   1.147   3.041  0.1121  0.5258  0.0183
 2893TIP3    H130094   4.240   1.055   3.021 -0.6588  0.6431  0.1091
 2893TIP3    H230095   4.213   1.161   3.125  1.4750  0.6021  0.7120
 2894TIP3   OH230096   5.526   2.874  11.658 -0.3491 -0.3338 -0.1396
 2894TIP3    H130097   5.576   2.834  11.729  0.5876 -0.5542 -0.9302
 2894TIP3    H230098   5.576   2.952  11.634 -0.5405 -0.3929 -0.7314
 2895TIP3   OH230099   2.831   5.133   3.412  0.0041  0.0249 -0.6885
 2895TIP3    H130100   2.861   5.159   3.499 -1.4627 -1.3884  0.2704
 2895TIP3    H230101   2.867   5.199   3.353  1.9261  0.3867  0.8527
 2896TIP3   OH230102   5.909   3.409   4.199 -0.2146 -0.3687  0.5915
 2896TIP3    H130103   5.837   3.422   4.261 -1.1077  0.9013 -0.6831
 2896TIP3    H230104   5.892   3.323   4.161  0.0273 -0.9125  1.6870
 2897TIP3   OH230105   0.139   0.014   1.610  0.3141 -0.1134  0.3894
 2897TIP3    H130106   0.098  -0.072   1.600 -0.7977  0.2733  1.4602
 2897TIP3    H230107   0.121   0.059   1.528 -0.5042 -0.3169  0.4557
 2898TIP3   OH230108   2.287   0.450   0.474 -0.1818 -0.1663 -0.3244
 2898TIP3    H130109   2.271   0.411   0.388 -0.0199 -1.0433  0.0372
 2898TIP3    H230110   2.201   0.454   0.515 -0.1597 -0.4147 -0.2520
 2899TIP3   OH230111   5.278   5.263   3.146  0.3436  0.1849  0.4404
 2899TIP3    H130112   5.333   5.337   3.120 -0.6478  1.1131  0.9386
 2899TIP3    H230113   5.198   5.303   3.180 -0.4500 -1.1330  0.1772
 2900TIP3   OH230114   3.451   4.761  12.273  0.1081 -0.2079 -0.2340
 2900TIP3    H130115   3.446   4.852  12.244 -1.5596 -0.1319  0.2089
 2900TIP3    H230116   3.383   4.754  12.340  0.9555 -1.5079  0.5097
 2901TIP3   OH230117   3.698   0.780  11.462 -0.4734 -0.0154 -0.1916
 2901TIP3    H130118   3.782   0.801  11.421 -0.2263  0.1768  0.3953
 2901TIP3    H230119   3.714   0.695  11.505 -0.2119  0.5802  0.9175
 2902TIP3   OH230120   0.809   3.060  11.619  0.2999  0.1824  0.0114
 2902TIP3    H130121   0.721   3.049  11.654 -0.2455  0.2562 -1.3278
 2902TIP3    H230122   0.863   3.082  11.696 -0.7972 -0.0627  0.8587
 2903TIP3   OH230123   5.876   5.962  14.290  0.1494  0.0704  0.0337
 2903TIP3    H130124   5.824   5.954  14.210  0.6045 -2.3474 -0.0454
 2903TIP3    H230125   5.934   6.037  14.273  0.9328 -1.0130 -2.3106
 2904TIP3   OH230126   2.585   4.070   2.096 -0.1980  0.2140  0.1675
 2904TIP3    H130127   2.550   4.156   2.072 -1.2836 -0.3892 -0.4738
 2904TIP3    H230128   2.568   4.063   2.190  0.0754  0.7897  0.2603
 2905TIP3   OH230129   2.739   1.530   6.179  0.0062 -0.2394 -0.5831
 2905TIP3    H130130   2.807   1.540   6.246 -0.6968  0.3959  0.0358
 2905TIP3    H230131   2.764   1.592   6.111  1.4312 -1.7794 -1.5272
 2906TIP3   OH230132   0.034   1.133   2.220 -0.1953 -0.3562 -0.1712
 2906TIP3    H130133   0.114   1.112   2.172 -0.3768 -0.4924 -0.4162
 2906TIP3    H230134   0.032   1.071   2.292 -0.2444 -0.5620 -0.3484
 2907TIP3   OH230135   1.267   0.790   4.136  0.0417  0.3381  0.7241
 2907TIP3    H130136   1.247   0.853   4.205 -0.9513  0.2800  0.4948
 2907TIP3    H230137   1.351   0.819   4.101  0.1850  0.8098  1.4448
 2908TIP3   OH230138   4.533   0.661  10.793 -0.7511  0.0979 -0.4650
 2908TIP3    H130139   4.523   0.754  10.811  0.7117  0.3684 -0.9809
 2908TIP3    H230140   4.589   0.657  10.716 -0.3092 -1.2296 -0.0886
 2909TIP3   OH230141   3.608   3.791   3.144  0.9865  0.5713  0.2069
 2909TIP3    H130142   3.617   3.829   3.232  1.0134 -0.8791  0.8522
 2909TIP3    H230143   3.551   3.851   3.097  0.9345  1.3372  1.2414
 2910TIP3   OH230144   3.235   6.055  13.513 -0.4483  0.6619  0.0512
 2910TIP3    H130145   3.179   6.127  13.543  0.5110  1.4154  0.0497
 2910TIP3    H230146   3.195   6.027  13.431 -1.8551  0.0064  0.9484
 2911TIP3   OH230147   2.042   0.455  13.319  0.3679  0.1380 -0.0351
 2911TIP3    H130148   2.107   0.437  13.387  0.9490  0.1091 -0.5932
 2911TIP3    H230149   2.050   0.382  13.258 -1.3700 -0.7542  0.7701
 2912TIP3   OH230150   0.298   1.476   1.102 -0.0738  0.4051  0.0657
 2912TIP3    H130151   0.245   1.459   1.180 -0.8913 -3.1950 -1.1815
 2912TIP3    H230152   0.235   1.495   1.033  0.2445 -2.3890 -1.0728
 2913TIP3   OH230153   5.501   5.487   1.972  0.2758 -0.3906 -0.5138
 2913TIP3    H130154   5.504   5.581   1.956 -0.8138 -0.4349 -0.9916
 2913TIP3    H230155   5.409   5.463   1.960  0.0341 -1.0568  2.1706
 2914TIP3   OH230156   5.895   4.050   1.559  0.0146 -0.3737  0.1816
 2914TIP3    H130157   5.988   4.029   1.546 -0.1699 -0.9770 -0.1708
 2914TIP3    H230158   5.853   4.022   1.478 -0.4304  0.1866  0.2186
 2915TIP3   OH230159   1.377   4.913  15.514  0.5546  0.1627 -0.4062
 2915TIP3    H130160   1.283   4.904  15.534  0.2084 -0.1662 -2.1415
 2915TIP3    H230161   1.421   4.883  15.594 -0.8250  0.5759  0.5174
 2916TIP3   OH230162   4.752   6.163   0.941  0.0530 -0.2351 -0.0104
 2916TIP3    H130163   4.668   6.118   0.936  0.2668 -0.7627  1.0298
 2916TIP3    H230164   4.748   6.229   0.872 -0.5843 -1.3084 -1.0233
 2917TIP3   OH230165   3.226   3.471  12.468  0.5272  0.0006  0.7368
 2917TIP3    H130166   3.241   3.387  12.425  0.1438  0.7517 -0.8963
 2917TIP3    H230167   3.189   3.448  12.553  0.1170 -1.4849  0.1780
 2918TIP3   OH230168   3.568   5.437  14.480  0.6224  0.4107  0.0492
 2918TIP3    H130169   3.548   5.345  14.497 -0.5708  0.5398 -0.5895
 2918TIP3    H230170   3.658   5.436  14.448  0.5909 -0.5531 -0.0297
 2919TIP3   OH230171   3.961   3.084   2.399  0.0199  0.3003 -0.5478
 2919TIP3    H130172   4.055   3.083   2.418 -0.0391  0.1369 -0.2708
 2919TIP3    H230173   3.957   3.087   2.303  0.3127  1.3611 -0.5374
 2920TIP3   OH230174   1.059   6.722  16.198  0.4359 -1.1669 -0.5020
 2920TIP3    H130175   1.000   6.702  16.271  1.5219 -0.5055  0.5972
 2920TIP3    H230176   1.008   6.779  16.141  0.0606 -0.4084  0.5537
 2921TIP3   OH230177   4.916   3.155   4.534 -0.0975 -0.3051 -0.1425
 2921TIP3    H130178   4.911   3.145   4.629 -0.3092 -1.0114 -0.2292
 2921TIP3    H230179   4.903   3.067   4.499 -1.5095  0.1731 -0.8837
 2922TIP3   OH230180   0.247   6.150  16.420 -0.2861 -0.0478 -0.1311
 2922TIP3    H130181   0.326   6.200  16.441  0.2284  0.7084 -3.4980
 2922TIP3    H230182   0.184   6.217  16.392 -1.1644 -0.8833 -0.1606
 2923TIP3   OH230183   4.906   1.680  12.499 -0.3584 -0.0062  0.0873
 2923TIP3    H130184   4.934   1.632  12.577  0.1145  0.3178  0.1264
 2923TIP3    H230185   4.926   1.772  12.520 -4.3733  0.6855  1.3850
 2924TIP3   OH230186   5.762   6.102   2.680  0.3295  0.3938 -0.4494
 2924TIP3    H130187   5.726   6.178   2.633 -0.4732 -0.1505 -0.7152
 2924TIP3    H230188   5.856   6.105   2.661  0.0709  0.4088 -1.7629
 2925TIP3   OH230189   4.070   6.512  10.951  0.2525  0.6892 -0.6690
 2925TIP3    H130190   4.105   6.481  10.867  3.5442  1.1222  0.4626
 2925TIP3    H230191   4.127   6.585  10.975  0.1333 -0.1726  2.4902
 2926TIP3   OH230192   6.480   6.277  14.728  0.2901 -0.5375 -0.4383
 2926TIP3    H130193   6.526   6.247  14.807  0.5274  0.7229 -0.0766
 2926TIP3    H230194   6.438   6.359  14.755 -0.5257 -0.6683 -1.3241
 2927TIP3   OH230195   0.976   4.094  15.089 -0.2915 -0.8524 -0.5627
 2927TIP3    H130196   0.914   4.093  15.017 -0.1674  0.5622 -0.7046
 2927TIP3    H230197   0.962   4.178  15.132 -0.2693 -1.6230  0.9789
 2928TIP3   OH230198   0.495   5.440  16.192 -0.5875  0.3212 -0.1176
 2928TIP3    H130199   0.429   5.377  16.163  0.7307 -0.5351 -1.3510
 2928TIP3    H230200   0.573   5.387  16.206  0.5136  1.6717 -1.1110
 2929TIP3   OH230201   2.292   3.990  14.097  0.6009 -0.0017  0.0697
 2929TIP3    H130202   2.307   3.932  14.172 -0.4743  0.0107  0.2952
 2929TIP3    H230203   2.229   4.055  14.129  2.3288  1.7423  0.0520
 2930TIP3   OH230204   4.249   4.264  11.272  0.3728 -0.1252  0.2600
 2930TIP3    H130205   4.159   4.251  11.304  0.2229  0.3065  0.0169
 2930TIP3    H230206   4.238   4.302  11.185  0.7752 -1.3749 -0.3489
 2931TIP3   OH230207   6.745   6.240  15.745 -0.0498 -0.1901  0.3084
 2931TIP3    H130208   6.812   6.266  15.683  2.4605 -1.0177  2.5676
 2931TIP3    H230209   6.663   6.245  15.696  1.5929  1.3050 -2.3771
 2932TIP3   OH230210   6.673   5.481  14.763  0.5777  0.5839 -0.0927
 2932TIP3    H130211   6.620   5.485  14.843  0.1775  0.6082 -0.3536
 2932TIP3    H230212   6.761   5.458  14.793 -0.1512 -2.0280  0.0830
 2933TIP3   OH230213   4.998   3.488  14.350 -0.3969 -0.0649  0.7938
 2933TIP3    H130214   4.922   3.463  14.403 -0.2976  1.9565  1.9437
 2933TIP3    H230215   5.043   3.554  14.402  0.7277  0.6476 -1.0328
 2934TIP3   OH230216   4.361   3.908   3.784  0.2363  0.4330  0.3206
 2934TIP3    H130217   4.333   3.967   3.714  0.8034 -0.7229 -0.8945
 2934TIP3    H230218   4.376   3.824   3.740 -0.8334 -0.6965  2.0631
 2935TIP3   OH230219   2.778   4.220   4.571 -0.3598  0.1452  0.0298
 2935TIP3    H130220   2.700   4.252   4.617 -0.0956  0.0864  0.5148
 2935TIP3    H230221   2.775   4.264   4.486  0.6890  2.4587  1.1670
 2936TIP3   OH230222   2.120   5.844   2.993  0.3353  0.1920 -0.7363
 2936TIP3    H130223   2.135   5.755   2.960 -0.6322 -0.0625 -0.4968
 2936TIP3    H230224   2.067   5.886   2.926 -0.2705  0.1933 -0.2545
 2937TIP3   OH230225   2.285   5.308  16.609 -0.6731 -0.3996 -0.5318
 2937TIP3    H130226   2.311   5.221  16.579  0.9980  0.0523 -0.4641
 2937TIP3    H230227   2.268   5.297  16.703  0.1519 -0.5367 -0.3910
 2938TIP3   OH230228   0.092   4.102  13.409 -0.0298  0.4867  0.1942
 2938TIP3    H130229   0.145   4.117  13.331 -0.5445  0.4514 -0.1610
 2938TIP3    H230230   0.147   4.045  13.464  0.1393  0.1123 -0.3510
 2939TIP3   OH230231   2.412   1.461  11.292  0.0150  0.2817 -0.1442
 2939TIP3    H130232   2.472   1.409  11.238  1.8982  2.0426  0.2044
 2939TIP3    H230233   2.360   1.511  11.229 -1.6114 -1.7754 -0.4696
 2940TIP3   OH230234   5.835   3.721  15.458  0.1780 -0.4990  0.1274
 2940TIP3    H130235   5.859   3.768  15.538  0.2890  1.0376 -0.7876
 2940TIP3    H230236   5.898   3.649  15.453  0.5351 -0.2718  1.1152
 2941TIP3   OH230237   4.720   3.671   5.438  0.9612 -0.4198 -0.1992
 2941TIP3    H130238   4.655   3.710   5.497  1.2954 -1.3048  0.7799
 2941TIP3    H230239   4.679   3.673   5.352 -0.0933 -0.3329  0.2926
 2942TIP3   OH230240   3.570   2.429  15.293  0.1613 -0.0243 -0.4963
 2942TIP3    H130241   3.649   2.418  15.346  1.5938  0.4895 -2.4835
 2942TIP3    H230242   3.549   2.522  15.301 -0.1254 -0.1196 -0.1356
 2943TIP3   OH230243   3.312   5.695  15.703  0.0136  0.4299  0.3141
 2943TIP3    H130244   3.343   5.611  15.735 -3.2577 -1.4869 -1.2378
 2943TIP3    H230245   3.302   5.682  15.609 -2.8201  1.7424  0.3864
 2944TIP3   OH230246   3.313   6.323   4.880  0.3685  0.6509  0.2182
 2944TIP3    H130247   3.311   6.230   4.854 -1.7689  1.0452 -1.1317
 2944TIP3    H230248   3.292   6.322   4.973 -0.0129 -0.2061  0.1302
 2945TIP3   OH230249   5.176   5.704   4.740 -0.3432 -0.8547 -0.0428
 2945TIP3    H130250   5.190   5.709   4.646 -0.8781  1.0899 -0.0327
 2945TIP3    H230251   5.118   5.629   4.752  0.2704 -1.5243 -1.1890
 2946TIP3   OH230252   4.433   4.069  12.184 -0.5986  0.4706 -0.3140
 2946TIP3    H130253   4.430   4.160  12.156  0.6236  0.5846 -0.0920
 2946TIP3    H230254   4.419   4.072  12.278  1.1461  0.5809 -0.0475
 2947TIP3   OH230255   1.171   3.844   4.368  0.0171 -0.0289 -0.1160
 2947TIP3    H130256   1.137   3.828   4.456 -0.0501  0.6607 -0.0126
 2947TIP3    H230257   1.257   3.803   4.367 -0.2991 -0.6994  0.0229
 2948TIP3   OH230258   3.176   5.173   4.391  0.4152  0.2675  0.4467
 2948TIP3    H130259   3.268   5.199   4.389 -0.1877  2.4508 -0.7079
 2948TIP3    H230260   3.140   5.204   4.308 -1.1540 -1.4399  0.4533
 2949TIP3   OH230261   4.366   4.132   4.228  0.3751  0.5370  0.2385
 2949TIP3    H130262   4.280   4.104   4.258  0.9652 -0.2187  1.2226
 2949TIP3    H230263   4.408   4.052   4.195  1.6649  0.4282  2.0989
 2950TIP3   OH230264   2.409   5.787  12.840  0.4103 -0.6067 -0.1384
 2950TIP3    H130265   2.374   5.856  12.896  0.0672  0.1251 -1.2428
 2950TIP3    H230266   2.490   5.823  12.805  0.0162 -0.5881 -1.0501
 2951TIP3   OH230267   5.295   3.653   0.326 -0.1127  0.1501  0.3495
 2951TIP3    H130268   5.236   3.683   0.257  0.4300  0.3777 -0.0085
 2951TIP3    H230269   5.307   3.729   0.383  1.1253  0.5536 -0.4637
 2952TIP3   OH230270   6.390   4.035  12.361  0.0013  0.0614 -0.1308
 2952TIP3    H130271   6.362   4.122  12.391  0.8996 -0.4776  2.3433
 2952TIP3    H230272   6.314   3.999  12.316 -1.0306  1.3154  0.5956
 2953TIP3   OH230273   6.745   6.414   4.582  0.0804 -0.0332  0.1954
 2953TIP3    H130274   6.711   6.478   4.644 -0.6571 -0.2562  0.0335
 2953TIP3    H230275   6.779   6.466   4.509 -2.4177  0.1570 -0.9078
 2954TIP3   OH230276   6.305   2.205   1.125  0.4227  0.5361 -0.1094
 2954TIP3    H130277   6.212   2.227   1.138  0.4171  0.1407  0.5570
 2954TIP3    H230278   6.342   2.283   1.084  0.1020  1.2605  0.9342
 2955TIP3   OH230279   6.047   3.612  11.898  0.0487  0.2815  0.2931
 2955TIP3    H130280   6.094   3.614  11.981  0.6813 -1.2448 -0.0184
 2955TIP3    H230281   5.998   3.530  11.900 -0.1578  0.3735 -0.7214
 2956TIP3   OH230282   1.723   2.882  14.754 -1.1364  0.0099 -0.3399
 2956TIP3    H130283   1.792   2.892  14.689  0.5032 -2.3519  0.9464
 2956TIP3    H230284   1.770   2.868  14.837 -3.1671  0.6673  0.9719
 2957TIP3   OH230285   4.258   0.202  14.137  0.0332  0.6797  0.1102
 2957TIP3    H130286   4.179   0.167  14.097  0.3797 -0.4775  0.4237
 2957TIP3    H230287   4.241   0.296  14.147 -1.2099  0.4663 -0.0097
 2958TIP3   OH230288   4.318   4.379  14.597 -0.5635 -0.0464 -0.0303
 2958TIP3    H130289   4.283   4.467  14.586  0.4009  0.6264  1.9276
 2958TIP3    H230290   4.376   4.366  14.523  0.3848  1.5254  0.4279
 2959TIP3   OH230291   0.668   2.360  13.710  0.5196 -0.8217 -0.0746
 2959TIP3    H130292   0.619   2.314  13.641  1.4480 -1.5498 -0.2608
 2959TIP3    H230293   0.654   2.453  13.692 -1.2472 -1.0211  0.2044
 2960TIP3   OH230294   3.340   4.437  16.347  0.7626 -0.3458 -0.1031
 2960TIP3    H130295   3.260   4.384  16.340  1.3363 -1.4966  1.6041
 2960TIP3    H230296   3.340   4.468  16.438  1.6585  0.6355 -0.4332
 2961TIP3   OH230297   3.174   5.374  11.796 -0.4511 -0.0256  0.1042
 2961TIP3    H130298   3.189   5.350  11.887 -0.3190 -1.5343 -0.3006
 2961TIP3    H230299   3.167   5.470  11.797 -1.9082 -0.1333  1.8903
 2962TIP3   OH230300   2.549   6.222  12.463 -0.3598 -0.2778 -0.2311
 2962TIP3    H130301   2.518   6.307  12.495  1.8383  1.4349 -2.4026
 2962TIP3    H230302   2.480   6.191  12.405 -1.0623  0.1495  0.3733
 2963TIP3   OH230303   2.171   4.782  11.194 -0.4955  0.4297  0.4627
 2963TIP3    H130304   2.213   4.868  11.183 -0.1244 -0.0199 -1.8771
 2963TIP3    H230305   2.233   4.720  11.157 -1.9996 -0.5424 -0.4544
 2964TIP3   OH230306   4.321   2.541  11.779  0.0480 -0.2229 -0.0279
 2964TIP3    H130307   4.239   2.560  11.826 -0.0510  0.8600 -0.6382
 2964TIP3    H230308   4.344   2.453  11.808  0.2577  0.6123  2.4875
 2965TIP3   OH230309   3.897   6.002   0.565 -0.0827 -0.0156  0.6097
 2965TIP3    H130310   3.802   6.000   0.565 -0.0883 -0.1042  1.8909
 2965TIP3    H230311   3.923   5.951   0.488 -1.0758  1.2329 -0.5765
 2966TIP3   OH230312   0.321   3.664   2.402  0.1157 -0.7390 -0.3157
 2966TIP3    H130313   0.313   3.720   2.479  1.1154  0.1486 -0.8416
 2966TIP3    H230314   0.415   3.652   2.390 -0.0646 -1.7597 -0.7717
 2967TIP3   OH230315   1.757   5.171   0.113  0.4542  0.2968  0.0985
 2967TIP3    H130316   1.772   5.180   0.207 -1.8260 -0.3259  0.5712
 2967TIP3    H230317   1.751   5.076   0.099  0.1602  0.4073 -0.5514
 2968TIP3   OH230318   5.804   5.071   5.208  0.1908  0.2223  0.8409
 2968TIP3    H130319   5.893   5.035   5.214 -0.6265 -1.9998  0.1115
 2968TIP3    H230320   5.769   5.063   5.297  0.6942  1.1411  1.1411
 2969TIP3   OH230321   1.434   3.209  10.835  0.0071  0.0870  0.7809
 2969TIP3    H130322   1.434   3.296  10.874 -0.2017 -0.1545  1.3448
 2969TIP3    H230323   1.480   3.218  10.752 -0.7714  0.9087  0.4393
 2970TIP3   OH230324   0.088   1.965   4.018  0.6002 -1.0020  0.2263
 2970TIP3    H130325   0.134   1.976   4.101  0.2216  0.8310  0.2236
 2970TIP3    H230326   0.019   2.032   4.020 -1.1276 -2.7138 -0.4067
 2971TIP3   OH230327   3.050   0.560  14.236 -0.1068  0.3251 -0.4444
 2971TIP3    H130328   3.036   0.535  14.327  0.3433  0.5303 -0.3205
 2971TIP3    H230329   2.978   0.517  14.189  0.9131 -1.5748 -0.3040
 2972TIP3   OH230330   5.291   0.535   1.056 -0.0851  0.2487 -0.3878
 2972TIP3    H130331   5.318   0.464   1.114  0.9042  0.7109 -0.2655
 2972TIP3    H230332   5.248   0.491   0.983  2.2478 -0.6611 -1.2923
 2973TIP3   OH230333   1.630   3.469  10.809  0.3597  0.0511  0.2929
 2973TIP3    H130334   1.675   3.553  10.817 -1.0703  0.7687  0.8061
 2973TIP3    H230335   1.624   3.436  10.899  3.0524 -1.7498 -0.1363
 2974TIP3   OH230336   3.501   3.663  15.624  0.0615  0.2033 -0.6261
 2974TIP3    H130337   3.575   3.717  15.597  0.2515  0.6635  0.8145
 2974TIP3    H230338   3.454   3.715  15.689 -1.1982 -0.3282 -1.0832
 2975TIP3   OH230339   4.431   1.692  15.216  0.5707 -0.2720  0.0710
 2975TIP3    H130340   4.494   1.714  15.148  0.1644  1.1146  0.1393
 2975TIP3    H230341   4.419   1.773  15.266 -1.9582 -0.2400 -0.5091
 2976TIP3   OH230342   6.005   4.598   6.537  0.3709  0.2940 -0.5697
 2976TIP3    H130343   5.994   4.511   6.575  1.3520  0.3201 -0.2123
 2976TIP3    H230344   6.089   4.594   6.492 -1.0225  0.0900 -3.2360
 2977TIP3   OH230345   3.047   5.077  14.875  0.4329  0.4391  0.2942
 2977TIP3    H130346   3.061   5.012  14.806  1.3895  0.1367  0.7641
 2977TIP3    H230347   3.024   5.026  14.952 -3.4711  0.9289 -0.4599
 2978TIP3   OH230348   2.804   3.403   5.505  0.0697 -0.0788  0.1614
 2978TIP3    H130349   2.817   3.314   5.474 -1.9022 -0.7104  1.0224
 2978TIP3    H230350   2.865   3.413   5.578  1.3991 -0.1720 -0.9260
 2979TIP3   OH230351   3.825   4.994  12.139  0.4881  0.2707 -1.0422
 2979TIP3    H130352   3.797   4.904  12.122 -1.6512  0.9499 -1.2786
 2979TIP3    H230353   3.751   5.048  12.110  1.8131  2.1166 -1.0728
 2980TIP3   OH230354   0.810   3.539  14.984 -0.1360  0.2391  0.2922
 2980TIP3    H130355   0.891   3.549  15.035  0.1848  2.1070 -0.5428
 2980TIP3    H230356   0.832   3.574  14.898 -2.0019  1.2472  0.2187
 2981TIP3   OH230357   1.361   1.565   5.945  0.0305 -0.4026 -0.0092
 2981TIP3    H130358   1.284   1.616   5.922  0.2426 -0.3963 -0.7051
 2981TIP3    H230359   1.332   1.474   5.943 -0.1276 -0.3626  0.3897
 2982TIP3   OH230360   5.270   2.808  15.873  0.3019 -0.2560 -0.5387
 2982TIP3    H130361   5.189   2.813  15.924 -0.7653  0.0969 -2.2284
 2982TIP3    H230362   5.304   2.721  15.893 -0.8633 -0.6863 -0.3296
 2983TIP3   OH230363   1.956   1.505  15.275  0.1486 -0.3167  0.4022
 2983TIP3    H130364   2.001   1.585  15.249  0.9321 -1.0187 -0.4224
 2983TIP3    H230365   1.892   1.489  15.205  0.6838 -0.9578  0.0570
 2984TIP3   OH230366   5.858   0.732   3.681 -0.2854  0.1491 -0.7992
 2984TIP3    H130367   5.931   0.780   3.642  0.0855 -1.7947 -2.5573
 2984TIP3    H230368   5.821   0.682   3.609 -1.9061 -0.6911  0.5888
 2985TIP3   OH230369   1.238   0.457   4.153  0.1086  0.4184  0.2652
 2985TIP3    H130370   1.332   0.450   4.170  0.2888 -0.5864 -1.0958
 2985TIP3    H230371   1.211   0.534   4.203  2.1409  2.2180 -1.2929
 2986TIP3   OH230372   4.083   0.536  12.632  0.1922 -0.6871  0.6477
 2986TIP3    H130373   4.083   0.596  12.706 -2.8985 -0.7116  0.7353
 2986TIP3    H230374   4.079   0.592  12.555  0.8103 -0.7228  0.5853
 2987TIP3   OH230375   2.100   1.806   4.163  0.4900 -0.6781  0.1806
 2987TIP3    H130376   2.086   1.753   4.085 -1.2575 -1.8184  1.2438
 2987TIP3    H230377   2.111   1.743   4.234  0.9572  0.3562  1.0462
 2988TIP3   OH230378   2.520   1.044   0.792 -0.0932  0.1049  0.0485
 2988TIP3    H130379   2.542   0.953   0.774 -1.0728  0.0707 -1.0207
 2988TIP3    H230380   2.603   1.091   0.782 -0.1449 -0.2534 -2.3461
 2989TIP3   OH230381   2.263   2.213   6.116 -0.0558 -0.2767  0.1609
 2989TIP3    H130382   2.254   2.158   6.038 -1.6849 -1.9389  1.4846
 2989TIP3    H230383   2.317   2.162   6.176 -2.1933 -0.7804  1.6895
 2990TIP3   OH230384   1.584   2.072   2.067  0.2542 -0.2754  0.4134
 2990TIP3    H130385   1.671   2.032   2.067  0.9849  1.2737  0.8429
 2990TIP3    H230386   1.559   2.074   1.974  0.4595 -1.1758  0.3329
 2991TIP3   OH230387   3.232   0.646   5.408  0.2363 -0.2365  0.7045
 2991TIP3    H130388   3.278   0.580   5.460  2.6555 -0.1712 -1.2652
 2991TIP3    H230389   3.211   0.601   5.326  0.7667  1.0646 -0.1579
 2992TIP3   OH230390   1.234   3.161  16.906  0.3473  0.3358  0.0055
 2992TIP3    H130391   1.213   3.175  16.814  2.5565 -0.6538 -0.6778
 2992TIP3    H230392   1.188   3.080  16.930  0.3965  0.1847 -0.4204
 2993TIP3   OH230393   2.916   1.615   4.400 -0.4325 -0.4942  0.1975
 2993TIP3    H130394   2.928   1.550   4.470 -0.5374 -0.2503  0.4427
 2993TIP3    H230395   2.907   1.698   4.446 -1.4211 -0.4552 -0.0648
 2994TIP3   OH230396   5.470   4.353   3.370 -0.2465 -0.3501 -1.0242
 2994TIP3    H130397   5.530   4.283   3.343  0.2693  0.6261 -2.4263
 2994TIP3    H230398   5.384   4.312   3.370  0.2779 -1.4910  0.0121
 2995TIP3   OH230399   5.273   0.166  16.389  0.2548  0.2480  0.1751
 2995TIP3    H130400   5.184   0.157  16.422  0.4230 -0.1982  0.5010
 2995TIP3    H230401   5.318   0.087  16.418  0.6087  0.2106 -0.4675
 2996TIP3   OH230402   3.709   4.891   5.999  0.1070 -0.5336  0.1859
 2996TIP3    H130403   3.688   4.800   5.978  0.8806 -1.0824  1.6944
 2996TIP3    H230404   3.799   4.888   6.031 -0.3587  0.5256  1.6409
 2997TIP3   OH230405   2.749   6.566   2.094 -0.4250 -0.2071 -0.2223
 2997TIP3    H130406   2.821   6.615   2.054 -0.2753 -0.6552 -0.4998
 2997TIP3    H230407   2.727   6.616   2.173  0.8122 -0.5935  0.3810
 2998TIP3   OH230408   3.259   1.923   1.207  0.0314  0.0866 -0.4603
 2998TIP3    H130409   3.223   1.939   1.120  0.6170 -0.4708 -0.8085
 2998TIP3    H230410   3.279   2.011   1.241 -0.3091  0.3102 -0.8361
 2999TIP3   OH230411   5.695   1.032   1.319  0.4238 -0.1416 -0.2377
 2999TIP3    H130412   5.781   1.037   1.360  2.3327 -2.0424 -3.8507
 2999TIP3    H230413   5.667   1.123   1.313  2.6084  0.5917  0.1295
 3000TIP3   OH230414   6.776   2.812   1.068  0.5129 -0.2797 -0.6118
 3000TIP3    H130415   6.815   2.738   1.021 -1.5699 -0.0341 -2.8061
 3000TIP3    H230416   6.721   2.856   1.003 -1.6333  0.7004  1.7701
 3001TIP3   OH230417   2.391   1.894  13.893  0.2195 -0.3829 -0.3950
 3001TIP3    H130418   2.403   1.846  13.811  0.1008 -0.7979 -0.1692
 3001TIP3    H230419   2.479   1.925  13.915  0.3297 -0.6612 -0.4387
 3002TIP3   OH230420   4.089   1.484   5.069  0.1474 -0.6088 -0.0149
 3002TIP3    H130421   4.010   1.448   5.110 -0.8652  0.1626 -1.2596
 3002TIP3    H230422   4.153   1.488   5.141 -1.2165 -0.4156  1.2251
 3003TIP3   OH230423   1.421   3.419  11.016  0.7210 -0.3781  0.0419
 3003TIP3    H130424   1.336   3.457  11.039  0.1681 -1.0736 -0.8188
 3003TIP3    H230425   1.434   3.349  11.081  0.9146  0.1183  0.5368
 3004TIP3   OH230426   0.613   3.921  13.295  0.0284 -0.0444  0.3043
 3004TIP3    H130427   0.631   3.962  13.380 -3.3559  1.0538  0.5837
 3004TIP3    H230428   0.613   3.827  13.314 -0.9969  0.2033  1.6150
 3005TIP3   OH230429   4.566   0.102   0.801 -0.2959 -0.5624  0.3984
 3005TIP3    H130430   4.485   0.140   0.835  0.5777 -1.2026  3.3481
 3005TIP3    H230431   4.600   0.049   0.873  3.1459  0.3010 -0.5086
 3006TIP3   OH230432   4.151   5.313   4.693 -0.0252  0.1221  0.0922
 3006TIP3    H130433   4.191   5.381   4.748 -2.4772  0.3780  1.6507
 3006TIP3    H230434   4.101   5.259   4.755  2.3556 -3.5405 -1.0027
 3007TIP3   OH230435   1.444   1.724  15.669  0.7718  0.1873  0.2405
 3007TIP3    H130436   1.438   1.658  15.739 -0.8580 -0.7546 -0.7336
 3007TIP3    H230437   1.384   1.793  15.697 -0.0440 -0.2887 -0.3093
 3008TIP3   OH230438   5.761   4.178   4.672  0.7202 -0.2776  0.2037
 3008TIP3    H130439   5.813   4.184   4.752  0.4558 -1.1401  0.4430
 3008TIP3    H230440   5.705   4.256   4.674  2.4233  0.9702 -0.3647
 3009TIP3   OH230441   6.057   6.348   3.974  0.1142  0.0756 -0.3453
 3009TIP3    H130442   5.984   6.288   3.956  1.3080 -0.9560 -1.9424
 3009TIP3    H230443   6.071   6.341   4.068 -1.4445 -0.1983 -0.1305
 3010TIP3   OH230444   6.266   4.192   6.430 -0.1615 -1.1046 -0.2260
 3010TIP3    H130445   6.265   4.262   6.365 -1.2126 -1.2770 -0.4018
 3010TIP3    H230446   6.237   4.114   6.382  0.2339 -1.4901  0.1577
 3011TIP3   OH230447   0.072   0.896   0.526 -0.2065 -0.1260 -0.4789
 3011TIP3    H130448  -0.006   0.950   0.512 -0.2885 -0.4579 -1.3362
 3011TIP3    H230449   0.102   0.920   0.614 -0.0245  1.5902 -0.9812
 3012TIP3   OH230450   6.693   2.762  16.948  0.2163 -0.5465 -0.2758
 3012TIP3    H130451   6.757   2.827  16.919  3.3507 -2.8945  1.0903
 3012TIP3    H230452   6.692   2.770  17.043 -0.1546 -1.7580 -0.1697
 3013TIP3   OH230453   0.464   3.077   2.226 -0.1311 -0.3142  0.1860
 3013TIP3    H130454   0.484   2.995   2.272 -0.1828 -0.2572  0.3120
 3013TIP3    H230455   0.403   3.053   2.157 -1.5616 -0.0986  1.3527
 3014TIP3   OH230456   4.380   4.440   5.740  0.2160  0.3733  0.0921
 3014TIP3    H130457   4.475   4.423   5.738  0.0257 -0.9828  1.7279
 3014TIP3    H230458   4.358   4.464   5.650  2.2241  1.3430 -0.1710
 3015TIP3   OH230459   1.146   1.817  16.065 -1.0026 -0.2756 -0.1167
 3015TIP3    H130460   1.092   1.748  16.027 -0.6356  0.0128 -1.1738
 3015TIP3    H230461   1.188   1.775  16.140 -0.9486 -1.1454 -0.6202
 3016TIP3   OH230462   4.001   4.056  14.662 -0.0662  0.1899 -0.2795
 3016TIP3    H130463   3.985   4.006  14.742  0.5380 -0.1939 -0.4018
 3016TIP3    H230464   3.913   4.079  14.630 -0.3269 -0.3850  0.0299
 3017TIP3   OH230465   1.522   0.327  10.496 -0.3839 -0.1663  0.2938
 3017TIP3    H130466   1.601   0.361  10.453  0.3205 -1.3599  0.5984
 3017TIP3    H230467   1.484   0.268  10.431 -0.9267  0.2686  0.2162
 3018TIP3   OH230468   4.792   6.202  15.557 -0.3482  0.3109 -0.1987
 3018TIP3    H130469   4.789   6.245  15.643 -1.7531  0.6312 -0.4088
 3018TIP3    H230470   4.715   6.234  15.511 -0.4532 -1.0731 -1.0069
 3019TIP3   OH230471   1.846   5.372  16.512 -0.2350 -0.2439  0.6360
 3019TIP3    H130472   1.933   5.358  16.475 -0.7098 -3.7725  0.7039
 3019TIP3    H230473   1.788   5.324  16.454 -1.9463  0.6144  1.6053
 3020TIP3   OH230474   2.355   4.334  14.142  0.0971  0.2068 -0.1457
 3020TIP3    H130475   2.318   4.281  14.213  2.2906  0.9332  1.6134
 3020TIP3    H230476   2.317   4.421  14.156  0.0741  0.2050 -0.2013
 3021TIP3   OH230477   4.692   5.503   5.157 -0.0399 -1.0211  0.2638
 3021TIP3    H130478   4.771   5.553   5.137 -0.0106 -0.7784  0.9765
 3021TIP3    H230479   4.723   5.415   5.175  0.0959 -0.8546  0.8374
 3022TIP3   OH230480   0.647   4.520   1.003  0.2676  0.1861  0.1698
 3022TIP3    H130481   0.606   4.462   0.938  0.2079  0.6282 -0.1900
 3022TIP3    H230482   0.612   4.490   1.087 -0.6395  0.4310 -0.1210
 3023TIP3   OH230483   0.252   4.465   4.062  0.3941 -0.9040 -0.9087
 3023TIP3    H130484   0.333   4.517   4.058 -0.0396 -0.1572 -0.2026
 3023TIP3    H230485   0.242   4.429   3.974  0.8797 -0.0643 -1.3164
 3024TIP3   OH230486   2.401   1.262   3.284 -0.1510  0.3985  0.3830
 3024TIP3    H130487   2.454   1.183   3.278  0.1898  0.5021  1.7185
 3024TIP3    H230488   2.327   1.237   3.339 -0.4617  0.7782  0.1348
 3025TIP3   OH230489   1.032   0.259  10.585 -0.7872 -0.1979 -0.3911
 3025TIP3    H130490   0.956   0.249  10.528 -1.7639 -1.2614  1.0721
 3025TIP3    H230491   1.027   0.186  10.646  2.1474 -1.0694 -1.0783
 3026TIP3   OH230492   4.977   2.247   4.375 -0.0083 -0.4193 -0.2462
 3026TIP3    H130493   4.998   2.223   4.285  2.5659  0.5188  0.0601
 3026TIP3    H230494   5.059   2.235   4.423 -1.7517 -2.7226  2.4131
 3027TIP3   OH230495   1.833   2.241   5.636  0.0670 -0.1585 -0.6070
 3027TIP3    H130496   1.872   2.157   5.662  0.2775 -0.1253 -0.8108
 3027TIP3    H230497   1.748   2.241   5.678 -0.6620 -1.2612 -2.0270
 3028TIP3   OH230498   6.281   5.511   1.153  0.0336  0.0327 -0.6984
 3028TIP3    H130499   6.267   5.485   1.245  1.0613  0.6870 -0.3505
 3028TIP3    H230500   6.209   5.470   1.106  0.5122 -1.8138  0.1407
 3029TIP3   OH230501   2.673   1.187  11.170  0.4500 -0.1470 -0.1653
 3029TIP3    H130502   2.761   1.223  11.174  0.7851 -0.9207 -0.5498
 3029TIP3    H230503   2.648   1.194  11.078  0.6350 -1.1473 -0.3052
 3030TIP3   OH230504   3.014   5.335  15.839  0.6737  0.0091  0.1802
 3030TIP3    H130505   2.981   5.367  15.755  2.5825  0.1370 -0.5281
 3030TIP3    H230506   3.029   5.414  15.891  0.4754 -0.0202  0.2851
 3031TIP3   OH230507   5.893   6.034  11.901 -0.3382 -0.3667  0.1480
 3031TIP3    H130508   5.928   6.023  11.813  0.1823  0.7549  0.2049
 3031TIP3    H230509   5.798   6.020  11.892 -0.0913 -1.8228 -0.2951
 3032TIP3   OH230510   5.677   1.409  16.306 -0.2021 -0.3694  0.3814
 3032TIP3    H130511   5.736   1.365  16.366  0.3432  0.2710  0.3221
 3032TIP3    H230512   5.690   1.365  16.222  1.0033  0.4748  0.1082
 3033TIP3   OH230513   4.328   4.787  14.918  0.2876  0.0130 -0.1271
 3033TIP3    H130514   4.353   4.765  15.008  1.6211 -0.8921 -0.6984
 3033TIP3    H230515   4.390   4.856  14.893 -1.3097  1.6395  0.2836
 3034TIP3   OH230516   0.037   5.046  17.000  0.1188  0.2237  1.1963
 3034TIP3    H130517   0.066   4.978  16.938  1.3303 -0.9843  3.0263
 3034TIP3    H230518   0.056   5.129  16.956  2.6947 -0.5937  0.7019
 3035TIP3   OH230519   1.783   2.634   4.241  0.0475  0.0466 -0.3260
 3035TIP3    H130520   1.800   2.556   4.293  0.1066 -0.8916 -1.7159
 3035TIP3    H230521   1.846   2.699   4.272  0.8389 -0.8628 -0.0050
 3036TIP3   OH230522   1.784   3.239  13.785 -0.6806  0.1704  0.3560
 3036TIP3    H130523   1.774   3.144  13.791 -0.5845  0.0827 -0.7862
 3036TIP3    H230524   1.695   3.273  13.799 -0.7939 -0.1064  0.3233
 3037TIP3   OH230525   1.027   0.645  11.791 -0.3579  0.1418  0.0127
 3037TIP3    H130526   1.078   0.566  11.812 -0.1405  0.2117 -0.2392
 3037TIP3    H230527   0.943   0.631  11.834  0.2642  0.5409  1.3859
 3038TIP3   OH230528   6.464   0.452  13.283 -0.4707 -0.3117  0.6769
 3038TIP3    H130529   6.483   0.544  13.266 -2.2385 -0.0390  0.1094
 3038TIP3    H230530   6.381   0.453  13.331 -0.3283 -1.5995  0.9730
 3039TIP3   OH230531   1.739   1.559  14.649 -0.2156 -0.1062  0.1116
 3039TIP3    H130532   1.829   1.580  14.627 -0.8290 -0.1678 -2.6573
 3039TIP3    H230533   1.695   1.643  14.656 -0.1226 -0.1021  0.6575
 3040TIP3   OH230534   4.741   1.688  14.294 -0.0904 -0.3124 -0.4018
 3040TIP3    H130535   4.737   1.732  14.210  1.3754  0.0431 -0.3051
 3040TIP3    H230536   4.828   1.647  14.296  0.0956  0.1170  1.1313
 3041TIP3   OH230537   2.560   4.895   5.607  0.1149  0.3622  0.4982
 3041TIP3    H130538   2.473   4.901   5.648 -0.4911 -1.6447 -0.4369
 3041TIP3    H230539   2.542   4.896   5.513  0.9385 -1.7546  0.2860
 3042TIP3   OH230540   5.342   2.104  10.775 -0.0455 -0.2744 -0.1160
 3042TIP3    H130541   5.285   2.139  10.707 -1.8168 -0.7114  1.1036
 3042TIP3    H230542   5.356   2.013  10.751 -1.5534 -0.7181  0.6707
 3043TIP3   OH230543   5.654   1.655   1.957 -0.1624 -0.3285 -0.3014
 3043TIP3    H130544   5.745   1.646   1.987  0.6115  0.4328 -2.3442
 3043TIP3    H230545   5.638   1.749   1.957  0.2224 -0.2138 -3.2042
 3044TIP3   OH230546   1.425   2.690   1.108  0.1418  0.5692 -0.2440
 3044TIP3    H130547   1.493   2.626   1.128 -0.4246 -0.2339 -0.8592
 3044TIP3    H230548   1.413   2.685   1.013  1.0198  2.5342 -0.4907
 3045TIP3   OH230549   6.186   3.435   2.303 -0.2984 -0.4124 -0.7187
 3045TIP3    H130550   6.159   3.437   2.395 -0.7650 -0.8709 -0.8414
 3045TIP3    H230551   6.116   3.480   2.256  0.5785  1.0000 -0.7017
 3046TIP3   OH230552   4.355   3.607   0.656 -0.4772  0.0576 -0.9268
 3046TIP3    H130553   4.400   3.593   0.573  1.7743 -2.7073  0.6932
 3046TIP3    H230554   4.360   3.523   0.701 -2.9884  1.0838  1.3951
 3047TIP3   OH230555   3.150   6.118   4.275  0.2824 -0.0705 -0.5540
 3047TIP3    H130556   3.129   6.025   4.283 -0.0503 -0.1643 -2.1772
 3047TIP3    H230557   3.230   6.120   4.223  0.1023  0.5499 -0.8130
 3048TIP3   OH230558   4.588   0.681   5.460  0.0984 -0.2207  0.3058
 3048TIP3    H130559   4.660   0.722   5.509 -0.0101  2.0725 -1.4142
 3048TIP3    H230560   4.511   0.696   5.515  0.0784  1.8176 -0.2529
 3049TIP3   OH230561   4.421   6.433  13.787 -0.1128  0.0750 -0.1074
 3049TIP3    H130562   4.353   6.473  13.841  0.8330 -0.4254  1.4858
 3049TIP3    H230563   4.460   6.507  13.741 -0.4183  0.6152  0.4864
 3050TIP3   OH230564   5.236   1.197   0.550  0.5579 -0.2043 -0.0743
 3050TIP3    H130565   5.221   1.107   0.520 -0.0866 -0.2611  0.4082
 3050TIP3    H230566   5.317   1.224   0.507  0.7362 -1.0083 -0.2414
 3051TIP3   OH230567   2.978   5.689  12.071  0.2170  0.2634 -0.4836
 3051TIP3    H130568   2.911   5.691  12.002 -0.1640 -0.0888 -0.1317
 3051TIP3    H230569   2.934   5.646  12.145  0.3232  1.4942  0.2979
 3052TIP3   OH230570   5.312   4.747   1.845 -0.1368 -0.6397 -0.0579
 3052TIP3    H130571   5.239   4.724   1.902  0.1933  0.3317  0.7862
 3052TIP3    H230572   5.384   4.765   1.906  0.6389 -1.0267 -0.8515
 3053TIP3   OH230573   6.585   5.961   0.359 -0.7159 -0.0266  0.9108
 3053TIP3    H130574   6.620   6.008   0.435  2.2236  0.2676 -0.5628
 3053TIP3    H230575   6.659   5.953   0.299 -2.7463 -1.0401 -1.5710
 3054TIP3   OH230576   0.337   3.731   1.886  0.2885 -0.5570  0.4397
 3054TIP3    H130577   0.329   3.636   1.896 -0.1405 -0.4418  1.3071
 3054TIP3    H230578   0.254   3.765   1.919  0.0245  0.0680 -0.8494
 3055TIP3   OH230579   5.236   1.966  14.437  0.0787  0.0923 -0.1544
 3055TIP3    H130580   5.316   1.913  14.435 -0.9123 -1.7042  3.3356
 3055TIP3    H230581   5.257   2.039  14.496 -0.4270  0.3107 -0.2421
 3056TIP3   OH230582   0.091   1.501  13.356 -0.4026 -0.0958 -0.0267
 3056TIP3    H130583   0.002   1.520  13.385 -0.7691 -1.9811  0.1463
 3056TIP3    H230584   0.079   1.456  13.272  0.4210  0.2292 -0.3196
 3057TIP3   OH230585   4.047   1.773   1.485 -0.5727  0.0395 -0.6374
 3057TIP3    H130586   3.968   1.788   1.536  0.1892  3.2106 -0.2595
 3057TIP3    H230587   4.118   1.779   1.549  0.1200 -0.1767 -1.3777
 3058TIP3   OH230588   3.810   2.829   6.041 -0.2154 -0.3671  0.4501
 3058TIP3    H130589   3.834   2.920   6.029  3.5295 -1.5180 -1.2672
 3058TIP3    H230590   3.856   2.802   6.121  0.1160 -1.2501 -0.0360
 3059TIP3   OH230591   0.450   0.019  13.523  0.4193  0.0700  0.4803
 3059TIP3    H130592   0.441  -0.053  13.461  1.9149 -0.3253  0.6960
 3059TIP3    H230593   0.482   0.092  13.471 -1.7378  0.7840  0.1385
 3060TIP3   OH230594   0.995   0.654   1.363  0.2516 -0.4314  0.0769
 3060TIP3    H130595   0.980   0.673   1.456 -2.1234  0.8347 -0.5420
 3060TIP3    H230596   1.088   0.632   1.359  0.2748 -1.1272  2.8554
 3061TIP3   OH230597   4.428   0.740  15.854  0.5374 -0.2470 -0.3379
 3061TIP3    H130598   4.440   0.646  15.871  2.6033 -0.1075 -0.8954
 3061TIP3    H230599   4.454   0.782  15.936 -1.6082 -0.1884  0.3551
 3062TIP3   OH230600   6.572   3.493  15.689  0.0870  0.1207  0.5247
 3062TIP3    H130601   6.542   3.494  15.599 -0.8836  0.7903  0.8428
 3062TIP3    H230602   6.625   3.414  15.697 -2.0215 -1.3715  0.0738
 3063TIP3   OH230603   5.271   6.784  17.001  0.2806 -0.4107 -0.6469
 3063TIP3    H130604   5.299   6.760  16.913  2.4520  1.4808 -0.5146
 3063TIP3    H230605   5.228   6.706  17.035 -0.5968 -1.1579 -3.3736
 3064TIP3   OH230606   6.723   1.426  11.121 -0.3558 -0.3209 -0.0016
 3064TIP3    H130607   6.705   1.344  11.075 -0.4441  0.0905 -0.7008
 3064TIP3    H230608   6.718   1.493  11.054  0.1344  0.2144  0.4939
 3065TIP3   OH230609   4.013   0.907  14.366 -0.4477 -0.0440 -0.2586
 3065TIP3    H130610   3.920   0.931  14.363 -0.2796  0.9872  1.7635
 3065TIP3    H230611   4.013   0.814  14.389 -0.9675 -0.0735 -0.3633
 3066TIP3   OH230612   3.407   0.166  17.103  0.2206  0.3972  0.0593
 3066TIP3    H130613   3.322   0.136  17.134  0.2940 -0.7448 -0.8333
 3066TIP3    H230614   3.427   0.242  17.158 -1.1753  0.4160  0.5486
 3067TIP3   OH230615   4.121   3.620  13.205  0.1068 -0.0705 -0.6631
 3067TIP3    H130616   4.097   3.591  13.294 -0.4058  1.1242 -0.4055
 3067TIP3    H230617   4.176   3.549  13.171  0.7104 -0.3247  0.7938
 3068TIP3   OH230618   3.989   2.289   5.970 -0.2230 -0.4374  0.1222
 3068TIP3    H130619   4.035   2.252   6.046  1.5759 -0.8606 -1.1382
 3068TIP3    H230620   3.975   2.215   5.912 -0.2284  0.1451 -0.6245
 3069TIP3   OH230621   5.564   5.376   2.885 -0.3729  0.3820 -0.4452
 3069TIP3    H130622   5.495   5.408   2.827  0.0157  1.4582 -0.3194
 3069TIP3    H230623   5.637   5.436   2.871  0.0458  0.0980  0.4730
 3070TIP3   OH230624   5.960   0.846   2.323 -0.2645  0.8036 -0.4114
 3070TIP3    H130625   5.984   0.754   2.339  0.1902  1.1736  1.1425
 3070TIP3    H230626   5.950   0.852   2.228  1.2713 -0.4811 -0.6775
 3071TIP3   OH230627   4.807   4.506   1.920  0.6714 -0.4064 -0.4638
 3071TIP3    H130628   4.743   4.521   1.851  1.1106 -1.7786 -1.1927
 3071TIP3    H230629   4.872   4.448   1.880  0.8894 -1.2777  1.1162
 3072TIP3   OH230630   3.158   4.841   4.964 -0.2844  0.3339  0.7132
 3072TIP3    H130631   3.210   4.911   5.004  1.0615 -0.5620  0.5789
 3072TIP3    H230632   3.140   4.780   5.036 -0.7489  0.3963  0.6542
 3073TIP3   OH230633   2.998   1.039   5.896  0.5959 -0.0531 -0.4563
 3073TIP3    H130634   3.053   0.981   5.843 -0.4492 -0.7426 -0.8031
 3073TIP3    H230635   2.912   0.997   5.896  0.5626 -0.0383  1.7694
 3074TIP3   OH230636   4.519   5.245  10.488  0.3755  0.0671 -0.5385
 3074TIP3    H130637   4.438   5.287  10.457  0.4697  0.2238 -0.5726
 3074TIP3    H230638   4.514   5.251  10.583  1.0712  1.4354 -0.5821
 3075TIP3   OH230639   2.546   0.111  11.980  0.0060 -0.3086  0.0481
 3075TIP3    H130640   2.617   0.049  11.998 -0.3318 -0.6335  0.2759
 3075TIP3    H230641   2.475   0.083  12.037  0.7009  1.8686  2.0430
 3076TIP3   OH230642   2.030   5.002  16.525  0.8691  1.0712 -0.0749
 3076TIP3    H130643   2.011   4.922  16.476  0.0528  0.5376  1.0698
 3076TIP3    H230644   1.944   5.031  16.558  1.2582  2.0002  0.1403
 3077TIP3   OH230645   3.008   2.898  15.556 -0.0684  0.4030 -0.0828
 3077TIP3    H130646   2.981   2.838  15.486  2.6420 -1.4278  0.3587
 3077TIP3    H230647   2.927   2.941  15.583 -1.6537 -1.0823 -2.2701
 3078TIP3   OH230648   3.239   5.877   5.060 -0.2128 -0.3710 -0.2949
 3078TIP3    H130649   3.276   5.901   4.976 -1.8231  0.3324 -0.8338
 3078TIP3    H230650   3.314   5.868   5.119  0.7178  2.4419 -0.9819
 3079TIP3   OH230651   2.505   5.290   0.468  0.4892  0.9666 -0.4351
 3079TIP3    H130652   2.447   5.214   0.470  0.6176  0.8960  0.9842
 3079TIP3    H230653   2.587   5.259   0.505  0.4710  1.8515  0.3746
 3080TIP3   OH230654   3.345   1.661   3.844 -0.4873 -0.2211  0.1041
 3080TIP3    H130655   3.305   1.709   3.917 -0.2491 -0.3813  0.3450
 3080TIP3    H230656   3.434   1.642   3.874 -0.1427  0.3779 -0.5418
 3081TIP3   OH230657   1.213   5.053   0.907 -0.7991  0.0209  0.7810
 3081TIP3    H130658   1.214   4.964   0.873 -1.0223  0.1094  0.5433
 3081TIP3    H230659   1.150   5.100   0.851 -1.1432  0.1736  1.2949
 3082TIP3   OH230660   2.132   5.995   4.664  0.3996 -0.0301 -0.3062
 3082TIP3    H130661   2.167   6.084   4.665  0.5385 -0.0837  1.2547
 3082TIP3    H230662   2.207   5.940   4.644  0.7284  0.0522  0.6724
 3083TIP3   OH230663   5.549   2.240  14.821  0.0820  0.2858  0.1310
 3083TIP3    H130664   5.515   2.212  14.906  0.0793 -0.2965 -0.0612
 3083TIP3    H230665   5.612   2.309  14.841 -0.9975  1.1802  0.5160
 3084TIP3   OH230666   2.821   5.916   2.697  0.3426  0.2572 -0.1931
 3084TIP3    H130667   2.762   5.984   2.729 -0.1672  1.5730 -3.7108
 3084TIP3    H230668   2.785   5.892   2.612  0.4452 -4.5229  0.9511
 3085TIP3   OH230669   4.599   0.469  12.004 -0.6440  0.1531 -0.3491
 3085TIP3    H130670   4.604   0.375  11.988  0.9359 -0.1128  1.6136
 3085TIP3    H230671   4.688   0.501  11.991 -1.1806  1.4317 -1.1032
 3086TIP3   OH230672   1.027   5.934  14.212 -0.2703  0.6806 -0.2671
 3086TIP3    H130673   0.974   5.885  14.275 -0.4593 -1.0779 -1.7323
 3086TIP3    H230674   0.980   5.924  14.129  1.3077  0.7584 -1.1905
 3087TIP3   OH230675   6.062   5.654   3.459  0.1932  0.3321  0.0356
 3087TIP3    H130676   6.022   5.572   3.489  1.9347  0.5094  3.0548
 3087TIP3    H230677   6.135   5.626   3.404  0.4466 -0.1529  0.6091
 3088TIP3   OH230678   3.817   3.905   0.354 -0.3093  0.0941  0.2069
 3088TIP3    H130679   3.838   3.895   0.446 -0.1334 -0.5394  0.0981
 3088TIP3    H230680   3.729   3.867   0.345 -0.9562  1.5163  0.4022
 3089TIP3   OH230681   5.681   1.687   2.319 -0.4231 -0.5008 -0.1280
 3089TIP3    H130682   5.722   1.601   2.330  1.0085  0.1845 -0.0467
 3089TIP3    H230683   5.646   1.708   2.406 -0.8521 -1.0160 -0.1656
 3090TIP3   OH230684   0.214   3.612   5.200  0.0150  0.1436  0.1106
 3090TIP3    H130685   0.185   3.701   5.179  2.5150  1.1827  0.8486
 3090TIP3    H230686   0.176   3.595   5.286  0.0654  0.7645  0.2637
 3091TIP3   OH230687   6.546   2.987   4.561 -0.8970 -0.5013  0.1344
 3091TIP3    H130688   6.583   2.902   4.539  0.0291 -0.0225 -0.1964
 3091TIP3    H230689   6.524   2.980   4.654  2.5575  0.0697  1.0614
 3092TIP3   OH230690   2.422   3.515   2.140 -0.2959 -0.7548 -0.5321
 3092TIP3    H130691   2.468   3.585   2.093 -0.3611 -1.0799 -1.0829
 3092TIP3    H230692   2.357   3.482   2.078 -1.8128  0.2187  0.4994
 3093TIP3   OH230693   1.582   0.139   1.487  0.1277  0.3193  0.0147
 3093TIP3    H130694   1.654   0.104   1.539 -0.0925  1.0985  0.8516
 3093TIP3    H230695   1.624   0.195   1.422  0.4127 -0.7647 -0.7606
 3094TIP3   OH230696   3.288   2.538   1.162  0.8238 -0.0316  0.6356
 3094TIP3    H130697   3.328   2.622   1.187 -0.6803  0.6247  0.8788
 3094TIP3    H230698   3.201   2.562   1.131  1.9553 -1.0167 -3.5684
 3095TIP3   OH230699   0.849   4.774  16.624  0.2526 -0.4067 -0.3807
 3095TIP3    H130700   0.809   4.839  16.567  1.0040  1.0563  0.7271
 3095TIP3    H230701   0.819   4.690  16.589 -1.4539  0.5480 -1.3039
 3096TIP3   OH230702   3.015   2.628   4.824 -0.5509 -0.2611 -0.0870
 3096TIP3    H130703   3.066   2.549   4.807 -0.8869 -0.3179 -0.8130
 3096TIP3    H230704   3.024   2.642   4.919 -0.7064 -1.3143  0.0874
 3097TIP3   OH230705   4.668   1.773   4.217  0.0682 -0.2286  0.0004
 3097TIP3    H130706   4.611   1.719   4.272  1.5928 -0.5935  1.2562
 3097TIP3    H230707   4.750   1.778   4.266  0.8521  0.9421 -1.4157
 3098TIP3   OH230708   2.462   2.528  13.613 -0.1545 -0.1248 -0.0761
 3098TIP3    H130709   2.431   2.459  13.554 -0.6966 -1.6269  1.8950
 3098TIP3    H230710   2.387   2.586  13.624 -0.1867 -0.0798 -0.5175
 3099TIP3   OH230711   4.280   5.338  16.579 -0.1687 -0.3022  0.6163
 3099TIP3    H130712   4.245   5.318  16.665  0.2718 -0.9370  0.6522
 3099TIP3    H230713   4.228   5.285  16.519 -1.5069  1.2989  0.3246
 3100TIP3   OH230714   0.067   3.281  10.891  0.1102 -0.1309  0.4981
 3100TIP3    H130715   0.054   3.193  10.856  0.9617 -0.3192  0.6509
 3100TIP3    H230716   0.096   3.267  10.981 -0.3872  0.3218  0.7335
 3101TIP3   OH230717   1.314   5.471  15.993 -0.4234 -0.3480  0.0413
 3101TIP3    H130718   1.372   5.434  15.927  1.5603 -0.4666  1.7872
 3101TIP3    H230719   1.287   5.556  15.957 -1.2772 -1.4422 -1.9325
 3102TIP3   OH230720   0.706   3.350  12.492  0.1534  0.5760 -0.2894
 3102TIP3    H130721   0.775   3.366  12.557 -1.8077  0.3158  1.9514
 3102TIP3    H230722   0.681   3.438  12.462  0.1136  0.8003  0.3832
 3103TIP3   OH230723   3.880   0.658   5.962 -1.3029 -0.0839  0.1257
 3103TIP3    H130724   3.971   0.628   5.954 -0.8187  0.9812  1.4069
 3103TIP3    H230725   3.828   0.578   5.966 -0.5784 -0.6993 -2.1836
 3104TIP3   OH230726   5.508   4.411   1.291  0.3832  0.1866  0.0730
 3104TIP3    H130727   5.464   4.487   1.253 -0.4436  0.0028  0.6716
 3104TIP3    H230728   5.528   4.437   1.381 -1.5320 -0.9519  0.8606
 3105TIP3   OH230729   3.475   2.176  11.492 -0.6711 -0.5941 -0.0175
 3105TIP3    H130730   3.423   2.233  11.434  1.2282  0.8766 -0.3366
 3105TIP3    H230731   3.562   2.175  11.452  0.3209 -0.6481  2.0833
 3106TIP3   OH230732   5.346   5.722   4.950 -0.1230  0.2449 -0.0424
 3106TIP3    H130733   5.359   5.816   4.938  0.8307  0.1301  0.0728
 3106TIP3    H230734   5.299   5.695   4.871 -0.7683  0.8870  0.1165
 3107TIP3   OH230735   6.020   0.559   5.305  0.4590  0.1005 -0.1135
 3107TIP3    H130736   6.075   0.488   5.272  0.3842  0.4589 -1.0159
 3107TIP3    H230737   5.940   0.553   5.253  0.6861  1.2064 -0.5925
 3108TIP3   OH230738   5.685   6.450   6.307  0.4974  0.5483 -0.1203
 3108TIP3    H130739   5.681   6.508   6.231  1.5194  0.9145  0.1005
 3108TIP3    H230740   5.601   6.404   6.306  0.7122  0.1582 -1.7955
 3109TIP3   OH230741   1.756   4.024  15.240 -0.3243  0.0572  0.0708
 3109TIP3    H130742   1.743   3.986  15.327 -0.8482  1.1449  0.4626
 3109TIP3    H230743   1.751   4.118  15.253  0.1412  0.2489 -1.0548
 3110TIP3   OH230744   4.486   4.023   1.406  0.1940 -0.2548  0.6460
 3110TIP3    H130745   4.492   4.114   1.433 -3.2462  0.3733 -0.5294
 3110TIP3    H230746   4.555   4.012   1.341 -0.3216  1.9163 -0.2875
 3111TIP3   OH230747   2.899   0.816  12.848  0.0658  0.2323  0.4611
 3111TIP3    H130748   2.887   0.731  12.805 -1.2125  1.0563 -0.8658
 3111TIP3    H230749   2.857   0.805  12.933  0.9818 -0.8440  0.7856
 3112TIP3   OH230750   2.348   1.165  17.158 -0.6236 -0.3869  0.0105
 3112TIP3    H130751   2.417   1.101  17.176 -0.6778 -0.9082 -1.5174
 3112TIP3    H230752   2.270   1.129  17.200 -0.0950 -0.0769  1.2666
 3113TIP3   OH230753   1.208   3.793  13.766  0.6717  0.0309 -0.1540
 3113TIP3    H130754   1.291   3.768  13.808  0.0059  2.9675  3.2064
 3113TIP3    H230755   1.210   3.889  13.764 -2.3730  0.1466 -0.5273
 3114TIP3   OH230756   0.248   0.094   0.027  0.4218  0.1581 -0.1752
 3114TIP3    H130757   0.315   0.106  -0.041 -1.5033 -1.8916 -2.5613
 3114TIP3    H230758   0.256   0.002   0.052 -1.6723 -0.1969 -0.7198
 3115TIP3   OH230759   3.933   2.176  13.371  0.2020  0.4779 -0.3063
 3115TIP3    H130760   4.008   2.183  13.430  0.4023 -0.6534 -0.4113
 3115TIP3    H230761   3.885   2.258  13.383  0.4873  0.4535  1.0814
 3116TIP3   OH230762   5.783   3.177   4.070 -0.1663 -0.1535 -0.0309
 3116TIP3    H130763   5.827   3.143   3.992  0.2739 -0.6825  0.4432
 3116TIP3    H230764   5.711   3.230   4.036 -0.1152 -0.5695 -0.7935
 3117TIP3   OH230765   2.960   5.840  15.701 -0.1534  0.3790 -0.4854
 3117TIP3    H130766   2.984   5.930  15.721 -1.0733  0.2813  1.0977
 3117TIP3    H230767   3.009   5.787  15.764  0.7098 -0.2695 -1.6802
 3118TIP3   OH230768   5.086   0.449  14.356  0.7146 -0.0901 -0.4723
 3118TIP3    H130769   5.036   0.512  14.302  0.8189  0.3756 -0.0250
 3118TIP3    H230770   5.146   0.408  14.294 -0.3233 -0.7682 -1.0547
 3119TIP3   OH230771   3.676   4.798   5.518  0.3988  0.4119 -0.3511
 3119TIP3    H130772   3.675   4.892   5.537  1.5445  0.2496  0.6146
 3119TIP3    H230773   3.740   4.763   5.579 -0.2634 -1.0528 -0.4827
 3120TIP3   OH230774   4.667   3.606   1.298 -0.9357  0.2473 -0.1011
 3120TIP3    H130775   4.636   3.660   1.226  0.0669 -0.4583 -1.0693
 3120TIP3    H230776   4.751   3.643   1.323 -0.4666 -0.5676 -0.4505
 3121TIP3   OH230777   4.799   2.905   0.516 -0.3020  0.2741  0.1757
 3121TIP3    H130778   4.722   2.874   0.468 -0.6940 -0.0497  1.0043
 3121TIP3    H230779   4.871   2.853   0.481 -1.1396 -2.5598  2.4139
 3122TIP3   OH230780   2.468   3.316   3.421  0.5933 -0.1727  0.2560
 3122TIP3    H130781   2.484   3.261   3.344 -0.0544  1.3707 -0.9950
 3122TIP3    H230782   2.396   3.273   3.466  1.2264 -1.3022  0.2203
 3123TIP3   OH230783   5.846   2.135   3.228 -0.4952  0.5607  0.2091
 3123TIP3    H130784   5.792   2.059   3.249  0.2990  0.1616  0.8545
 3123TIP3    H230785   5.815   2.164   3.143  0.8978 -2.0682 -1.2569
 3124TIP3   OH230786   4.940   0.131  11.359  0.0199 -0.6165  0.4529
 3124TIP3    H130787   4.991   0.133  11.278 -0.6902 -0.2651  0.0049
 3124TIP3    H230788   5.005   0.136  11.429  0.6452 -1.0084 -0.0922
 3125TIP3   OH230789   5.743   4.936  16.571 -0.1035 -0.0367  0.1861
 3125TIP3    H130790   5.683   4.993  16.620  1.1375  0.9677  0.5834
 3125TIP3    H230791   5.719   4.949  16.480  0.1180  1.0889  0.2801
 3126TIP3   OH230792   4.797   6.772  16.938 -0.0379 -0.1319 -0.0451
 3126TIP3    H130793   4.858   6.715  16.891  2.2471 -0.0955  2.6841
 3126TIP3    H230794   4.766   6.718  17.011 -0.7685  0.8885  0.4067
 3127TIP3   OH230795   4.190   6.502   4.165 -1.0591 -0.3377  0.5823
 3127TIP3    H130796   4.233   6.500   4.079 -0.5407  1.6241  0.7702
 3127TIP3    H230797   4.102   6.535   4.147 -0.2211  2.2630  1.0583
 3128TIP3   OH230798   3.859   2.335  10.899  0.2769  0.5501  0.9646
 3128TIP3    H130799   3.790   2.280  10.936  0.4188 -1.3130 -1.4329
 3128TIP3    H230800   3.941   2.296  10.931  0.3628 -0.2814 -0.2783
 3129TIP3   OH230801   5.409   2.219  16.033 -0.5567 -0.1918 -0.1265
 3129TIP3    H130802   5.453   2.140  16.063  0.7204  0.2977 -0.6685
 3129TIP3    H230803   5.387   2.201  15.942  0.5655  0.4194 -0.5236
 3130TIP3   OH230804   2.498   3.858  16.937 -0.1577  0.1297 -0.6413
 3130TIP3    H130805   2.515   3.931  16.877 -0.6392  1.1216  0.4037
 3130TIP3    H230806   2.445   3.797  16.886  0.5924  0.2943 -1.6620
 3131TIP3   OH230807   3.571   3.579  14.970  0.5733 -0.4876 -0.4444
 3131TIP3    H130808   3.547   3.486  14.971 -1.4338  0.0026 -0.9022
 3131TIP3    H230809   3.659   3.581  15.007  0.4387 -2.5178  0.0652
 3132TIP3   OH230810   0.881   0.701  14.079  0.1177 -0.4188 -0.5232
 3132TIP3    H130811   0.847   0.773  14.132  1.7307 -0.1284  0.1636
 3132TIP3    H230812   0.894   0.738  13.992 -1.2096 -0.5136 -0.7715
 3133TIP3   OH230813   4.907   4.856  16.531  0.1132  0.6093  0.4743
 3133TIP3    H130814   4.882   4.942  16.498  2.3013  1.0352 -0.1294
 3133TIP3    H230815   4.967   4.874  16.604  0.4592 -0.3884  0.4454
 3134TIP3   OH230816   4.239   4.864   3.677 -0.2664  0.2694  0.6258
 3134TIP3    H130817   4.242   4.957   3.657 -1.8788 -0.3545 -2.7814
 3134TIP3    H230818   4.146   4.843   3.682  0.0826 -1.0826  1.7520
 3135TIP3   OH230819   4.342   4.066  12.466  0.0035 -0.0319 -0.5798
 3135TIP3    H130820   4.250   4.039  12.464  0.4884 -1.9607  1.7209
 3135TIP3    H230821   4.365   4.068  12.558  2.3363  0.2662 -1.1407
 3136TIP3   OH230822   2.013   3.607  16.736  0.4068 -0.4267 -0.2763
 3136TIP3    H130823   1.994   3.526  16.689 -0.7646  0.1086 -0.7557
 3136TIP3    H230824   1.929   3.631  16.776  0.5524  0.9784 -0.8113
 3137TIP3   OH230825   5.758   0.513  14.088  0.5052  0.1635  0.6057
 3137TIP3    H130826   5.758   0.424  14.052  0.6672  0.5693 -0.4430
 3137TIP3    H230827   5.698   0.562  14.030  2.6677  1.4139 -0.6439
 3138TIP3   OH230828   5.651   0.354  16.012 -0.1307  0.2740 -0.5859
 3138TIP3    H130829   5.653   0.259  16.012 -2.3623  0.1991  0.2452
 3138TIP3    H230830   5.632   0.378  15.921 -3.3550 -0.2308 -0.0983
 3139TIP3   OH230831   3.102   2.967  17.040  0.4936  0.0948  0.5562
 3139TIP3    H130832   3.144   2.968  17.126 -0.4508 -1.6195  1.0423
 3139TIP3    H230833   3.175   2.962  16.978  1.2333  2.3281  1.1825
 3140TIP3   OH230834   1.497   3.315   2.855 -0.3866 -0.2825  0.2568
 3140TIP3    H130835   1.452   3.233   2.835 -1.8001  0.3514  0.7986
 3140TIP3    H230836   1.487   3.326   2.949 -0.5219  0.6922  0.1341
 3141TIP3   OH230837   3.395   5.359   0.137  0.1663 -0.0044  0.0532
 3141TIP3    H130838   3.439   5.314   0.209 -0.6688 -0.0335  0.5521
 3141TIP3    H230839   3.456   5.352   0.063  1.2624  0.5019  0.9032
 3142TIP3   OH230840   2.823   5.523  14.241 -0.5390  0.1945 -0.0937
 3142TIP3    H130841   2.787   5.535  14.153  0.9204  4.0645 -0.2606
 3142TIP3    H230842   2.915   5.501  14.226 -0.5953 -0.4565  0.4771
 3143TIP3   OH230843   1.039   2.148   1.662  0.0687 -0.0919  0.2705
 3143TIP3    H130844   0.971   2.165   1.596 -1.3630 -1.5814  1.3445
 3143TIP3    H230845   1.097   2.084   1.620  0.6739  0.9517 -0.5297
 3144TIP3   OH230846   5.408   5.032  11.612 -0.0104  0.3736 -0.0678
 3144TIP3    H130847   5.420   5.098  11.681  1.2562 -0.1882  0.2603
 3144TIP3    H230848   5.357   4.963  11.654  1.5611 -0.4015  0.6091
 3145TIP3   OH230849   2.976   2.181  16.096  0.0420  0.0743 -0.4782
 3145TIP3    H130850   3.018   2.154  16.178 -0.1989  3.3044  0.7816
 3145TIP3    H230851   2.949   2.099  16.055  0.2822 -1.6351  2.6163
 3146TIP3   OH230852   4.477   2.826  15.377  0.4545 -0.6866 -0.9076
 3146TIP3    H130853   4.547   2.859  15.432  0.2782  2.3909 -2.4535
 3146TIP3    H230854   4.521   2.766  15.317  1.2021 -1.3214  0.2479
 3147TIP3   OH230855   2.123   3.725  13.400 -0.3201  0.3773  0.2462
 3147TIP3    H130856   2.030   3.742  13.388  0.3833  2.7302 -2.2915
 3147TIP3    H230857   2.130   3.629  13.399 -2.7783  0.1641  1.2376
 3148TIP3   OH230858   1.214   1.322  13.418 -0.0350  0.1870 -0.1853
 3148TIP3    H130859   1.281   1.382  13.451  0.6272 -1.5468  1.7452
 3148TIP3    H230860   1.160   1.302  13.495 -0.7380 -1.0598 -0.9944
 3149TIP3   OH230861   6.538   4.130   2.205  0.1441  0.5270 -0.5481
 3149TIP3    H130862   6.452   4.153   2.171  0.1186  0.8641 -0.2580
 3149TIP3    H230863   6.596   4.199   2.173  0.3858  0.0771 -1.0886
 3150TIP3   OH230864   1.649   0.558   1.465 -0.1295  0.5030 -0.3308
 3150TIP3    H130865   1.648   0.635   1.522 -0.5526 -0.2439  0.6727
 3150TIP3    H230866   1.567   0.563   1.417  0.5619  1.5366 -1.4362
 3151TIP3   OH230867   4.871   0.756   0.124 -0.3364 -0.2040 -0.9395
 3151TIP3    H130868   4.835   0.840   0.153 -0.5915 -0.4026 -0.6736
 3151TIP3    H230869   4.906   0.774   0.037  0.5746  0.4415 -0.4549
 3152TIP3   OH230870   4.550   5.035  11.852 -0.0933  0.6442 -0.3518
 3152TIP3    H130871   4.530   5.064  11.763  1.3521 -1.7069 -1.4865
 3152TIP3    H230872   4.579   5.115  11.897  0.1411  1.6815 -2.2825
 3153TIP3   OH230873   5.922   1.655   0.540 -0.3365  0.4967  0.1609
 3153TIP3    H130874   5.990   1.640   0.607  0.7881  0.8508 -0.8784
 3153TIP3    H230875   5.931   1.582   0.479 -1.7344 -0.1258  0.6819
 3154TIP3   OH230876   0.246   4.433   5.575  0.7121  0.3734  0.3759
 3154TIP3    H130877   0.207   4.483   5.646  2.0060 -0.0963  1.4281
 3154TIP3    H230878   0.315   4.489   5.540 -0.8321  1.1918 -1.4646
 3155TIP3   OH230879   2.897   0.501  11.608  0.3169 -0.9222 -0.7566
 3155TIP3    H130880   2.963   0.477  11.543 -0.0761  0.4573 -1.6975
 3155TIP3    H230881   2.819   0.452  11.582 -0.0630  0.2133 -1.8018
 3156TIP3   OH230882   5.704   3.840  17.094 -0.1011 -0.1543  0.7833
 3156TIP3    H130883   5.667   3.807  17.012  1.2876 -1.5797  0.7140
 3156TIP3    H230884   5.639   3.816  17.160  0.1808 -1.6869  0.5168
 3157TIP3   OH230885   0.542   1.996   3.689  0.2249 -0.0793 -0.4301
 3157TIP3    H130886   0.592   2.073   3.660 -2.2561  1.8479  0.1597
 3157TIP3    H230887   0.504   2.023   3.773 -3.0409 -0.8388 -1.5844
 3158TIP3   OH230888   0.247   5.713  13.023 -0.4927 -0.1090  0.5630
 3158TIP3    H130889   0.236   5.634  13.077  0.4913  1.1343  2.6359
 3158TIP3    H230890   0.248   5.785  13.086 -1.0862  1.5461 -1.2916
 3159TIP3   OH230891   1.529   1.049  14.846 -0.2761  0.0916  0.6113
 3159TIP3    H130892   1.590   1.120  14.824 -1.6880  0.9894 -0.4599
 3159TIP3    H230893   1.455   1.061  14.787 -1.4594 -1.0593  1.8135
 3160TIP3   OH230894   6.389   0.586  15.966 -0.3495  0.0809  0.0935
 3160TIP3    H130895   6.385   0.525  15.892 -1.0187  0.6334 -0.3354
 3160TIP3    H230896   6.474   0.570  16.006  1.1431  1.5423 -2.3452
 3161TIP3   OH230897   1.169   0.346   3.210 -0.4683 -0.5938  0.0890
 3161TIP3    H130898   1.174   0.363   3.304 -0.5195  0.1230 -0.0313
 3161TIP3    H230899   1.146   0.254   3.203  0.6163 -0.9216  0.7681
 3162TIP3   OH230900   5.836   3.918   2.828  0.0121 -0.2048  0.3962
 3162TIP3    H130901   5.928   3.911   2.853 -0.2515  1.2997  1.9275
 3162TIP3    H230902   5.793   3.845   2.874  0.5173 -1.3132 -0.8560
 3163TIP3   OH230903   0.581   5.396   1.228  0.1705  0.1190 -0.6712
 3163TIP3    H130904   0.558   5.483   1.196  0.0756 -0.5624 -2.4942
 3163TIP3    H230905   0.500   5.345   1.221  0.8545 -0.8130 -2.0643
 3164TIP3   OH230906   4.711   6.529   6.275  0.1537 -0.8020 -1.1001
 3164TIP3    H130907   4.705   6.481   6.357  1.0582 -0.8870 -1.0708
 3164TIP3    H230908   4.732   6.619   6.301 -1.8011 -0.3146 -1.1413
 3165TIP3   OH230909   4.166   2.024  16.429 -0.2335  0.0440 -0.2068
 3165TIP3    H130910   4.166   2.084  16.355 -2.1604 -0.0165 -0.2631
 3165TIP3    H230911   4.154   2.080  16.505 -0.6472 -0.1364 -0.1408
 3166TIP3   OH230912   4.489   3.979   3.177  0.7420  0.2882 -0.0579
 3166TIP3    H130913   4.482   3.969   3.271  1.2241  0.1851 -0.0291
 3166TIP3    H230914   4.472   4.072   3.161 -1.0245 -0.0227 -0.0454
 3167TIP3   OH230915   3.900   5.342  16.603 -0.3133  0.0879 -0.4406
 3167TIP3    H130916   3.843   5.399  16.655 -0.2520  0.5910 -0.9175
 3167TIP3    H230917   3.943   5.286  16.667  1.3094  2.0646  0.2662
 3168TIP3   OH230918   3.143   5.967   0.873  0.4718  0.2483  0.5079
 3168TIP3    H130919   3.122   5.878   0.899 -2.5897  0.9555  0.7372
 3168TIP3    H230920   3.139   5.965   0.777 -1.7997  0.5486  0.5522
 3169TIP3   OH230921   0.412   2.663  14.774 -0.2356  0.7662 -0.3670
 3169TIP3    H130922   0.476   2.679  14.705 -1.2350 -0.1202 -1.5257
 3169TIP3    H230923   0.334   2.632  14.728 -0.3661 -1.5281  1.2725
 3170TIP3   OH230924   4.611   1.709  12.652  0.0059  0.2109 -0.2860
 3170TIP3    H130925   4.696   1.750  12.673 -0.2825 -0.1294  1.6216
 3170TIP3    H230926   4.617   1.621  12.690 -1.0553  0.0513 -0.4771
 3171TIP3   OH230927   0.865   0.965   5.902 -0.1399  0.4953 -0.7889
 3171TIP3    H130928   0.797   0.918   5.856 -0.7530  0.7713 -0.1754
 3171TIP3    H230929   0.914   0.898   5.949 -0.1916  0.3339 -0.9668
 3172TIP3   OH230930   3.279   6.118   0.482 -0.2225  0.4262 -0.1137
 3172TIP3    H130931   3.278   6.181   0.410 -3.9284 -0.5986 -1.0501
 3172TIP3    H230932   3.208   6.146   0.540  1.2020 -0.1297  1.9488
 3173TIP3   OH230933   3.402   4.218  16.766 -0.1271 -0.2951  0.3622
 3173TIP3    H130934   3.497   4.218  16.774  0.2733  0.1134 -3.5314
 3173TIP3    H230935   3.374   4.134  16.801  1.7520 -0.8425  0.5653
 3174TIP3   OH230936   1.366   5.245   2.631 -0.4662  0.5280  0.5282
 3174TIP3    H130937   1.288   5.230   2.684 -0.8259 -0.5663 -0.2791
 3174TIP3    H230938   1.366   5.172   2.568 -0.8356  2.5576 -1.8951
 3175TIP3   OH230939   6.087   2.703  14.878 -0.0405  0.1438 -0.8149
 3175TIP3    H130940   5.999   2.740  14.893  0.4156  0.3165  1.6990
 3175TIP3    H230941   6.142   2.780  14.862 -0.2864  0.0526 -2.1479
 3176TIP3   OH230942   5.448   0.933   4.823 -0.5292 -0.1722  0.8856
 3176TIP3    H130943   5.403   0.974   4.749 -0.2181 -1.6671 -0.1452
 3176TIP3    H230944   5.508   1.001   4.855 -2.1690  1.2080  1.1126
 3177TIP3   OH230945   3.914   4.737   4.807  0.1059 -0.7683  0.2584
 3177TIP3    H130946   3.864   4.658   4.827 -0.3578 -0.4564  0.3194
 3177TIP3    H230947   3.848   4.803   4.784  0.5397 -0.6550 -0.6933
 3178TIP3   OH230948   1.820   6.457   4.094  0.8075  0.2975  0.1767
 3178TIP3    H130949   1.850   6.517   4.163  0.2708 -1.1545  1.6979
 3178TIP3    H230950   1.812   6.372   4.138  0.0948 -0.5629 -1.5960
 3179TIP3   OH230951   6.663   5.146  14.272  0.2020 -0.0830  0.5948
 3179TIP3    H130952   6.690   5.096  14.349  0.6169 -0.4240  0.2323
 3179TIP3    H230953   6.693   5.235  14.289 -2.7437  0.6201  2.3559
 3180TIP3   OH230954   2.464   3.952   3.930 -0.5752  0.0988  0.2060
 3180TIP3    H130955   2.429   3.894   3.863 -0.6800  0.7933 -0.3537
 3180TIP3    H230956   2.388   3.995   3.967 -0.4457  0.4475  0.0748
 3181TIP3   OH230957   1.149   4.369   3.119  0.5797  0.6448 -0.1902
 3181TIP3    H130958   1.222   4.310   3.106  0.2628 -0.0003  0.9549
 3181TIP3    H230959   1.077   4.329   3.070  0.3991  0.1451  0.4811
 3182TIP3   OH230960   0.731   1.643  16.708 -0.3152 -0.1765 -0.0177
 3182TIP3    H130961   0.670   1.608  16.773 -2.7791  0.0251 -2.1220
 3182TIP3    H230962   0.793   1.695  16.759 -3.5573  1.9023  2.0190
 3183TIP3   OH230963   1.190   2.196  14.724 -0.1286 -0.2134 -0.5959
 3183TIP3    H130964   1.099   2.224  14.724 -0.7517 -2.1908 -0.4581
 3183TIP3    H230965   1.202   2.152  14.640  0.8160  0.3440 -0.7699
 3184TIP3   OH230966   4.902   0.814  13.020  0.6090  0.1562  0.3245
 3184TIP3    H130967   4.997   0.800  13.019  0.3972 -1.3654 -0.0666
 3184TIP3    H230968   4.891   0.903  13.055  2.2388  1.0270 -1.3089
 3185TIP3   OH230969   0.683   0.597   3.368  0.1856 -0.3872  0.3736
 3185TIP3    H130970   0.719   0.670   3.418 -0.3691  0.1826 -0.0543
 3185TIP3    H230971   0.742   0.524   3.386  1.8921  0.6829 -0.8102
 3186TIP3   OH230972   1.999   2.856   3.289  0.5901  0.2244 -0.9232
 3186TIP3    H130973   2.055   2.807   3.230  0.9441 -0.5059 -0.0029
 3186TIP3    H230974   2.035   2.839   3.376 -1.9160 -1.4660 -0.1476
 3187TIP3   OH230975   1.319   6.535  12.831  0.7883  0.1580  0.1106
 3187TIP3    H130976   1.354   6.446  12.842  1.7463  0.4934 -0.1551
 3187TIP3    H230977   1.340   6.578  12.914 -1.1678 -0.3420  0.8935
 3188TIP3   OH230978   5.009   0.843  12.179  0.3366 -0.4354 -0.2752
 3188TIP3    H130979   5.069   0.804  12.115  1.3636 -1.6522  1.3624
 3188TIP3    H230980   5.051   0.826  12.264 -0.6908  1.6748  0.6861
 3189TIP3   OH230981   2.491   6.061   4.671 -0.1460 -0.2497  0.0189
 3189TIP3    H130982   2.529   5.973   4.681 -2.5792 -1.1861  1.4758
 3189TIP3    H230983   2.455   6.081   4.757  0.2973  2.1715 -0.3391
 3190TIP3   OH230984   1.462   4.612  10.877  0.2558  0.6736 -0.2830
 3190TIP3    H130985   1.406   4.534  10.882  2.3980 -0.7747  2.7012
 3190TIP3    H230986   1.422   4.665  10.808 -2.6815 -1.9269 -0.7335
 3191TIP3   OH230987   4.910   4.079  11.787  0.7498  0.4879  0.2058
 3191TIP3    H130988   4.951   4.124  11.860  1.8021  1.9605 -1.2477
 3191TIP3    H230989   4.842   4.139  11.757  0.1769 -0.2035  0.1195
 3192TIP3   OH230990   2.240   2.922  11.732  0.7376  0.4388 -0.5805
 3192TIP3    H130991   2.193   2.866  11.670  0.3371 -1.0584  1.0120
 3192TIP3    H230992   2.321   2.946  11.686  0.7417 -1.1548 -1.4544
 3193TIP3   OH230993   1.347   1.084  17.139 -0.2360 -0.1100  0.0950
 3193TIP3    H130994   1.391   1.110  17.058 -1.0592  0.9098 -0.0437
 3193TIP3    H230995   1.262   1.129  17.136 -0.6818 -0.8556  1.0560
 3194TIP3   OH230996   3.782   6.284   2.138  0.0439  0.1556 -0.0971
 3194TIP3    H130997   3.735   6.338   2.201  0.0282  0.6039 -0.4925
 3194TIP3    H230998   3.733   6.295   2.056  1.0086  0.8721 -0.5903
 3195TIP3   OH230999   3.621   3.971  11.968  0.4975 -0.1397 -0.1768
 3195TIP3    H131000   3.635   4.036  11.899  0.0304 -0.0289 -0.1716
 3195TIP3    H231001   3.542   4.001  12.013  1.1017  0.0682  0.7420
 3196TIP3   OH231002   5.186   4.253  15.846  0.3854 -0.3668 -0.5990
 3196TIP3    H131003   5.249   4.215  15.784  0.7264  1.5799 -1.4752
 3196TIP3    H231004   5.195   4.347  15.834 -1.8442 -0.0357  0.1491
 3197TIP3   OH231005   4.895   6.164   4.508 -0.2194  0.3064  0.8173
 3197TIP3    H131006   4.832   6.141   4.440 -0.7219  0.8793  1.0732
 3197TIP3    H231007   4.974   6.115   4.487 -0.9239 -0.8384  0.7881
 3198TIP3   OH231008   0.794   2.932   6.400  0.3934 -0.4458  0.0440
 3198TIP3    H131009   0.801   3.011   6.455 -1.6013  0.5176 -1.0160
 3198TIP3    H231010   0.708   2.896   6.421  0.0839 -0.7046 -1.5959
 3199TIP3   OH231011   6.498   2.360   3.921  0.3818 -0.1297 -0.2832
 3199TIP3    H131012   6.493   2.316   4.006 -0.8117 -0.0784 -0.3224
 3199TIP3    H231013   6.539   2.295   3.863  0.2114 -0.5598  0.0722
 3200TIP3   OH231014   0.051   2.842  12.134 -0.1355  0.2301  0.6532
 3200TIP3    H131015   0.105   2.874  12.206  1.4846 -0.5276 -0.1969
 3200TIP3    H231016   0.045   2.916  12.073 -0.2804  0.4036  0.8784
 3201TIP3   OH231017   5.156   1.688  16.953  0.0059 -0.0591 -0.1227
 3201TIP3    H131018   5.138   1.720  16.865 -1.9138 -2.0782 -0.5092
 3201TIP3    H231019   5.240   1.642  16.946  0.7505  1.3502 -0.4702
 3202TIP3   OH231020   2.969   5.480  12.902  0.0540  0.6343 -0.2141
 3202TIP3    H131021   2.874   5.472  12.912  0.3787 -0.1961  2.9425
 3202TIP3    H231022   2.982   5.521  12.817 -2.9928 -2.8378 -2.4727
 3203TIP3   OH231023   5.956   4.030  15.924  0.0247 -0.2240  0.0293
 3203TIP3    H131024   5.872   4.073  15.940 -0.2852 -1.2899  1.3486
 3203TIP3    H231025   5.933   3.942  15.892  0.6408 -0.3365 -0.1192
 3204TIP3   OH231026   3.457   0.691  13.609 -0.1616  0.3673  0.7376
 3204TIP3    H131027   3.471   0.752  13.682 -1.1559  1.0367  0.3781
 3204TIP3    H231028   3.396   0.736  13.551 -1.9400 -1.5148  1.0985
 3205TIP3   OH231029   0.936   3.125   1.723 -0.1864 -0.0824 -0.5069
 3205TIP3    H131030   0.902   3.094   1.639  0.5986 -2.2549 -0.0695
 3205TIP3    H231031   0.908   3.216   1.729 -1.1694 -0.2238 -2.6328
 3206TIP3   OH231032   5.024   5.941  16.710 -0.6664  0.3910 -0.1660
 3206TIP3    H131033   5.031   6.032  16.682  0.8786 -0.3139 -2.1683
 3206TIP3    H231034   5.107   5.923  16.754 -0.6193 -0.2779 -0.5197
 3207TIP3   OH231035   1.205   3.765  17.052  0.1682 -0.2982  1.2571
 3207TIP3    H131036   1.264   3.690  17.055  0.6798  0.1294  2.0224
 3207TIP3    H231037   1.171   3.765  16.962 -0.9095 -2.2440  1.6517
 3208TIP3   OH231038   1.141   0.168  12.669  0.3985 -0.1425 -0.9503
 3208TIP3    H131039   1.053   0.197  12.693  0.5099 -0.1804 -0.4795
 3208TIP3    H231040   1.127   0.094  12.610  0.1142  0.8100 -2.0893
 3209TIP3   OH231041   3.215   6.601   3.295 -0.1806  0.1070 -0.8503
 3209TIP3    H131042   3.187   6.539   3.363 -0.2093  0.0761 -0.8906
 3209TIP3    H231043   3.261   6.547   3.231  0.4958  0.2390 -0.4883
 3210TIP3   OH231044   4.922   2.002  16.472 -0.1717 -0.3665 -0.0677
 3210TIP3    H131045   4.887   2.000  16.383  0.4418 -0.3262 -0.3096
 3210TIP3    H231046   4.848   2.032  16.526 -0.1958  0.7460 -0.7142
 3211TIP3   OH231047   3.660   1.686   1.209 -0.1204  0.2748 -0.2436
 3211TIP3    H131048   3.650   1.668   1.303 -0.8306  1.4442 -0.0807
 3211TIP3    H231049   3.571   1.679   1.174  0.0090  0.7009 -0.6643
 3212TIP3   OH231050   5.378   0.867   2.594  0.2236  0.3115  0.1463
 3212TIP3    H131051   5.377   0.947   2.645 -0.6359  1.3812 -1.4905
 3212TIP3    H231052   5.357   0.798   2.657 -0.7731  1.5838  1.2364
 3213TIP3   OH231053   4.771   3.031   2.177  0.0413  0.3034 -0.5521
 3213TIP3    H131054   4.718   3.042   2.098  0.1851  1.0957 -0.5401
 3213TIP3    H231055   4.783   2.936   2.184 -0.5265  0.1826 -1.1121
 3214TIP3   OH231056   5.779   3.155   0.209  0.1061 -0.3581  0.4192
 3214TIP3    H131057   5.774   3.067   0.170 -0.2566 -0.7293  1.2856
 3214TIP3    H231058   5.702   3.160   0.265 -0.6963  1.1025 -0.7938
 3215TIP3   OH231059   3.439   5.983   4.407 -0.1136 -0.1310  0.0710
 3215TIP3    H131060   3.455   6.068   4.365 -1.2471  0.4115  0.7204
 3215TIP3    H231061   3.481   5.920   4.349 -0.2498  0.7605 -1.0207
 3216TIP3   OH231062   2.590   1.437  14.295  0.1392  0.8194  0.9688
 3216TIP3    H131063   2.609   1.413  14.386 -2.1545  1.4995  1.6465
 3216TIP3    H231064   2.591   1.354  14.248 -2.2935  0.0007  2.3019
 3217TIP3   OH231065   4.178   1.525  10.872  0.4705  0.4458  0.2081
 3217TIP3    H131066   4.104   1.562  10.825 -0.4546 -0.4121  0.9680
 3217TIP3    H231067   4.182   1.434  10.842  3.0607  1.2262 -2.0709
 3218TIP3   OH231068   3.161   4.422  14.963  0.7838  0.2879  0.0455
 3218TIP3    H131069   3.215   4.381  14.895  0.4930  1.3462 -0.8309
 3218TIP3    H231070   3.105   4.352  14.995  0.8771 -0.2005 -0.8555
 3219TIP3   OH231071   6.740   5.584  10.271 -0.3577  0.5968  0.2617
 3219TIP3    H131072   6.764   5.623  10.187 -0.8793  0.7323  0.1737
 3219TIP3    H231073   6.665   5.636  10.301 -0.7924 -0.0699  0.3393
 3220TIP3   OH231074   6.087   5.753  15.148 -0.4398  0.1527  0.4340
 3220TIP3    H131075   6.017   5.693  15.122 -1.2111  0.9604  0.6145
 3220TIP3    H231076   6.045   5.815  15.207  0.4164  0.6814  0.4998
 3221TIP3   OH231077   1.113   1.431  11.071 -0.3768 -0.3701 -0.4101
 3221TIP3    H131078   1.043   1.480  11.114 -1.0232 -0.9119 -0.8276
 3221TIP3    H231079   1.075   1.403  10.988  0.6291  0.0613 -1.0194
 3222TIP3   OH231080   4.282   2.921  16.939 -0.5001 -0.5783 -0.0712
 3222TIP3    H131081   4.219   2.970  16.886 -0.5658 -1.3201 -0.6860
 3222TIP3    H231082   4.312   2.851  16.881 -1.0571 -1.7861  1.0956
 3223TIP3   OH231083   1.700   2.367  12.573 -0.5600  0.1871  0.2268
 3223TIP3    H131084   1.676   2.290  12.624  0.0075  0.1132  0.3868
 3223TIP3    H231085   1.729   2.332  12.489 -0.1539  0.2168  0.3546
 3224TIP3   OH231086   1.795   6.525   4.384  0.1990  0.0526 -0.5714
 3224TIP3    H131087   1.881   6.482   4.389 -0.1244 -0.7202 -1.3445
 3224TIP3    H231088   1.789   6.577   4.463  0.9968 -0.6387 -0.0462
 3225TIP3   OH231089   3.243   2.728   0.186 -0.3352 -0.4946 -0.1958
 3225TIP3    H131090   3.211   2.789   0.251  0.9228 -0.7535  0.6951
 3225TIP3    H231091   3.300   2.668   0.235  0.2675 -0.9673 -1.4438
 3226TIP3   OH231092   0.782   6.517  16.148 -0.4450 -0.0863 -0.0004
 3226TIP3    H131093   0.854   6.482  16.096  1.1916  2.9472  0.1123
 3226TIP3    H231094   0.713   6.452  16.140  1.5342 -2.0390 -1.8878
 3227TIP3   OH231095   1.652   6.198  15.687 -0.0736 -0.0282 -0.0439
 3227TIP3    H131096   1.598   6.120  15.696 -0.5267  0.1559 -1.1698
 3227TIP3    H231097   1.617   6.259  15.754 -0.9244 -0.0994 -0.4169
 3228TIP3   OH231098   6.274   0.748  15.404 -0.3231 -0.1688 -0.0201
 3228TIP3    H131099   6.211   0.736  15.474 -0.5009 -1.2371 -0.3587
 3228TIP3    H231100   6.225   0.730  15.324 -0.4267  2.1578 -0.5216
 3229TIP3   OH231101   5.789   1.188   2.961 -0.1752 -0.4380 -0.0895
 3229TIP3    H131102   5.736   1.247   2.907  0.9971  0.5518 -0.1894
 3229TIP3    H231103   5.747   1.103   2.952 -1.4938  0.2486 -0.5028
 3230TIP3   OH231104   0.117   3.342  13.461 -0.0311 -0.6963 -0.1417
 3230TIP3    H131105   0.132   3.430  13.427 -0.1156 -0.4157  0.5519
 3230TIP3    H231106   0.042   3.309  13.411  0.0599 -0.4138 -0.4658
 3231TIP3   OH231107   6.655   2.769  16.029  0.1878 -0.5088  1.0405
 3231TIP3    H131108   6.714   2.838  15.999  0.4001  0.3615  3.3884
 3231TIP3    H231109   6.692   2.738  16.111 -0.3733 -2.8646  0.4611
 3232TIP3   OH231110   1.752   6.354   3.107 -0.3404  0.0301 -0.0150
 3232TIP3    H131111   1.730   6.416   3.176  1.1069  1.0034 -0.4079
 3232TIP3    H231112   1.847   6.350   3.108 -0.3577 -0.8868 -1.1367
 3233TIP3   OH231113   4.033   2.067   1.300  0.2666  0.6293 -0.3006
 3233TIP3    H131114   3.957   2.125   1.308 -1.2366 -1.5534  2.5970
 3233TIP3    H231115   4.004   1.998   1.240  0.3112  0.3334  0.0156
 3234TIP3   OH231116   4.959   3.436  15.764  0.5934  0.0879 -0.0770
 3234TIP3    H131117   4.956   3.356  15.712  0.4786 -0.0764  0.1790
 3234TIP3    H231118   5.007   3.412  15.843  0.4173  0.2263  0.0754
 3235TIP3   OH231119   3.557   1.356   3.938  0.3608 -0.0081  0.3694
 3235TIP3    H131120   3.536   1.263   3.952  1.9429 -0.3908  0.3356
 3235TIP3    H231121   3.568   1.392   4.025 -0.1153  0.1167  0.3787
 3236TIP3   OH231122   5.948   5.517  14.006 -0.0835 -0.4099 -0.3155
 3236TIP3    H131123   5.899   5.562  14.074 -0.3360  0.8013 -1.2943
 3236TIP3    H231124   5.913   5.551  13.924 -0.5390 -2.6466 -1.0916
 3237TIP3   OH231125   4.624   5.817  14.636 -0.2151  0.0925  0.1085
 3237TIP3    H131126   4.639   5.851  14.724 -0.6448 -0.8435  0.5563
 3237TIP3    H231127   4.712   5.810  14.598 -0.0021  0.2253  0.5690
 3238TIP3   OH231128   4.582   0.476  12.832 -0.0051 -0.2001  0.4529
 3238TIP3    H131129   4.495   0.437  12.824 -0.1564  0.2082  0.0951
 3238TIP3    H231130   4.566   0.564  12.866  0.4563 -1.0524  2.9761
 3239TIP3   OH231131   2.070   2.120   0.631 -0.3162  0.3197 -0.2923
 3239TIP3    H131132   2.108   2.034   0.648 -1.5288 -0.3434 -0.8978
 3239TIP3    H231133   2.133   2.162   0.572  0.7686  0.2374  0.7922
 3240TIP3   OH231134   1.585   0.512   3.348  0.0962  0.3864 -0.0972
 3240TIP3    H131135   1.631   0.505   3.432 -0.5339  2.9226  0.5115
 3240TIP3    H231136   1.628   0.584   3.303  0.3766 -0.9263 -1.9573
 3241TIP3   OH231137   4.382   4.568   1.472 -0.3086 -0.9372  0.0050
 3241TIP3    H131138   4.337   4.637   1.521  0.4239  0.0852 -0.7189
 3241TIP3    H231139   4.410   4.612   1.391  0.0325 -2.1368 -0.5349
 3242TIP3   OH231140   5.706   4.765   5.353 -0.0666 -0.6031 -0.3128
 3242TIP3    H131141   5.699   4.742   5.446  2.6252  2.0330  0.6313
 3242TIP3    H231142   5.711   4.860   5.353  1.6865 -0.6575 -3.0565
 3243TIP3   OH231143   0.467   5.417   3.148  0.2116  0.7169 -0.6475
 3243TIP3    H131144   0.376   5.394   3.169  0.1371  1.1081 -0.5493
 3243TIP3    H231145   0.498   5.466   3.224  0.8844 -0.4344 -0.1642
 3244TIP3   OH231146   5.367   1.849  13.149 -0.4232  0.6188 -0.3747
 3244TIP3    H131147   5.411   1.934  13.142  0.6976  0.0479 -0.3098
 3244TIP3    H231148   5.330   1.849  13.237  1.1131  0.3094  0.2847
 3245TIP3   OH231149   3.312   6.476  11.229  0.2621 -0.6805 -0.4404
 3245TIP3    H131150   3.283   6.554  11.181  0.1208 -0.5410 -0.1318
 3245TIP3    H231151   3.398   6.500  11.263  0.8386 -1.1704 -1.5353
 3246TIP3   OH231152   5.923   4.083   5.713 -0.7114 -0.1352  0.4869
 3246TIP3    H131153   5.855   4.016   5.716  0.1036 -0.9499  1.2258
 3246TIP3    H231154   5.922   4.114   5.623 -3.2817  1.1566  0.9058
 3247TIP3   OH231155   1.179   1.583   0.287 -0.8037  0.2155  0.3179
 3247TIP3    H131156   1.143   1.557   0.372 -0.1903 -0.0926  0.4904
 3247TIP3    H231157   1.221   1.667   0.303  0.5714 -0.5177  0.6698
 3248TIP3   OH231158   2.964   5.142   2.677  0.1027 -0.2548  0.3239
 3248TIP3    H131159   2.969   5.218   2.735 -0.1215 -0.8554  1.1518
 3248TIP3    H231160   3.034   5.085   2.707  1.7585  0.6201 -1.7856
 3249TIP3   OH231161   6.720   4.732   5.346 -0.2408  0.0608 -0.1308
 3249TIP3    H131162   6.746   4.652   5.301  1.8861  0.4359  0.4050
 3249TIP3    H231163   6.656   4.703   5.411 -0.3306 -1.0319 -0.6957
 3250TIP3   OH231164   5.556   5.516  12.865 -0.3589 -0.4334  0.1045
 3250TIP3    H131165   5.540   5.509  12.770  1.2677  1.5625 -0.3547
 3250TIP3    H231166   5.580   5.427  12.891  1.6291 -0.5213 -1.8545
 3251TIP3   OH231167   1.809   4.182  12.158 -0.1793 -0.1655  0.0289
 3251TIP3    H131168   1.874   4.133  12.107 -0.5663  0.5224 -1.1291
 3251TIP3    H231169   1.742   4.207  12.095 -1.3388 -0.4252  1.1209
 3252TIP3   OH231170   3.960   3.812   6.155  0.2466  0.4836  0.4889
 3252TIP3    H131171   3.872   3.801   6.119  0.2739  0.7168  0.3463
 3252TIP3    H231172   3.992   3.892   6.113  0.5607  0.3479  0.4711
 3253TIP3   OH231173   2.511   2.937   1.347 -0.1954  0.1745  0.6429
 3253TIP3    H131174   2.560   2.994   1.288 -1.1597 -0.8239 -1.1713
 3253TIP3    H231175   2.577   2.880   1.386  0.4381  0.7240  0.3772
 3254TIP3   OH231176   1.241   3.838  12.260  0.0971  0.9887 -0.1411
 3254TIP3    H131177   1.269   3.842  12.169  1.5461  1.8218  0.3143
 3254TIP3    H231178   1.227   3.745  12.278  2.3088  0.5638 -0.4997
 3255TIP3   OH231179   0.176   4.484   1.708 -0.2711 -0.1136  0.3776
 3255TIP3    H131180   0.111   4.500   1.777 -0.1376 -2.9474  1.2567
 3255TIP3    H231181   0.254   4.530   1.737 -0.6187 -0.1816  1.4573
 3256TIP3   OH231182   6.560   1.016   5.480  0.4253  0.2680 -0.1320
 3256TIP3    H131183   6.528   0.942   5.532  0.0617  0.1720 -0.4876
 3256TIP3    H231184   6.598   1.076   5.544 -1.6694  1.0080  0.4743
 3257TIP3   OH231185   5.150   3.880   3.649 -0.3511 -0.9399 -0.3922
 3257TIP3    H131186   5.080   3.858   3.710  0.9344 -2.0851  0.6788
 3257TIP3    H231187   5.178   3.968   3.675 -0.7401 -0.8602 -0.2393
 3258TIP3   OH231188   0.860   5.162  17.030  0.2005  0.1779  0.0030
 3258TIP3    H131189   0.766   5.178  17.038  0.6426  3.1114 -0.0579
 3258TIP3    H231190   0.867   5.097  16.960 -1.9191 -2.3919  2.0811
 3259TIP3   OH231191   6.542   2.457  11.229 -0.3390  0.5606  0.3473
 3259TIP3    H131192   6.556   2.452  11.135 -1.7432  1.0399  0.0989
 3259TIP3    H231193   6.457   2.413  11.243 -0.6123  1.3643  1.2605
 3260TIP3   OH231194   2.530   5.369   5.285 -0.0500  0.4880 -1.1215
 3260TIP3    H131195   2.592   5.327   5.225  1.6142  1.1182  0.1183
 3260TIP3    H231196   2.538   5.318   5.366 -0.7261  0.9430 -0.7680
 3261TIP3   OH231197   1.693   2.625  13.646  0.3054 -0.1957 -0.2931
 3261TIP3    H131198   1.681   2.719  13.630  1.4781  0.0756  0.3333
 3261TIP3    H231199   1.782   2.607  13.617 -0.1268 -1.2647 -1.0034
 3262TIP3   OH231200   3.037   4.557  16.926 -0.7813  0.2208  0.0811
 3262TIP3    H131201   3.113   4.509  16.959 -1.3323  0.6547  2.0141
 3262TIP3    H231202   3.062   4.649  16.937 -1.7673  0.3675  1.1996
 3263TIP3   OH231203   6.387   1.757   5.362  0.6320 -0.2589  0.1095
 3263TIP3    H131204   6.295   1.772   5.342  0.1148 -0.8113  1.9304
 3263TIP3    H231205   6.426   1.844   5.367  0.1237 -0.0108 -0.3181
 3264TIP3   OH231206   1.927   0.176  15.612  0.0904  0.0136  0.2989
 3264TIP3    H131207   1.931   0.267  15.583  0.1046  0.2337  0.9622
 3264TIP3    H231208   2.015   0.157  15.645 -0.2153  0.1338  1.2183
 3265TIP3   OH231209   2.884   5.291  12.648  0.4051 -0.1502  0.0608
 3265TIP3    H131210   2.820   5.220  12.649  0.1192  0.0713 -1.3173
 3265TIP3    H231211   2.878   5.331  12.735 -0.0840 -1.2290  0.5230
 3266TIP3   OH231212   2.510   4.896   1.177 -0.9365 -0.4921 -0.3406
 3266TIP3    H131213   2.582   4.953   1.152 -0.6598  0.6570  2.9005
 3266TIP3    H231214   2.535   4.861   1.263 -2.7872 -2.5923 -0.6074
 3267TIP3   OH231215   2.964   2.521   3.939 -0.0034  0.5390 -0.1114
 3267TIP3    H131216   2.999   2.599   3.980 -1.0857  1.5618 -1.1058
 3267TIP3    H231217   3.024   2.503   3.866 -0.3746  1.0763 -0.5474
 3268TIP3   OH231218   1.136   4.738  16.231 -0.1478  0.0197 -0.1004
 3268TIP3    H131219   1.060   4.793  16.248  0.1818  0.6256 -0.5897
 3268TIP3    H231220   1.121   4.702  16.144  0.3243  0.4567 -0.3592
 3269TIP3   OH231221   4.752   1.079  12.813  0.2114 -0.7518 -0.4047
 3269TIP3    H131222   4.720   1.039  12.732  1.3059 -0.4644 -0.9955
 3269TIP3    H231223   4.843   1.100  12.794 -0.1307  1.3497  0.1347
 3270TIP3   OH231224   3.980   3.105   4.036  0.4829 -0.0662 -0.0983
 3270TIP3    H131225   3.908   3.090   3.975 -1.4886  0.3638  2.0361
 3270TIP3    H231226   3.958   3.187   4.079  1.1207 -1.0188  2.1167
 3271TIP3   OH231227   6.726   5.143   2.101 -0.3419  0.6868 -0.1272
 3271TIP3    H131228   6.811   5.107   2.075 -0.4283  0.7205 -0.4634
 3271TIP3    H231229   6.744   5.234   2.123 -0.3996  0.8671 -0.8090
 3272TIP3   OH231230   6.351   5.046   0.007 -0.4393  0.2329  0.3251
 3272TIP3    H131231   6.370   5.108   0.079 -1.8525  0.9266  0.1228
 3272TIP3    H231232   6.410   5.072  -0.063  0.1818  0.2535  0.8469
 3273TIP3   OH231233   1.581   3.967   5.028 -0.6417 -0.2924  0.3889
 3273TIP3    H131234   1.517   4.032   5.057 -0.2390 -0.3986  1.5450
 3273TIP3    H231235   1.572   3.965   4.933 -1.5475  0.5298  0.4514
 3274TIP3   OH231236   2.527   0.004  15.286  0.4276 -0.4335  0.3995
 3274TIP3    H131237   2.611   0.005  15.331  0.6035 -1.5831  0.1213
 3274TIP3    H231238   2.507   0.096  15.270  2.6414 -0.2392 -1.4323
 3275TIP3   OH231239   4.997   2.038   0.904  0.3033 -0.6241  0.4277
 3275TIP3    H131240   4.948   1.957   0.884 -1.1568  0.4914 -0.6434
 3275TIP3    H231241   4.944   2.082   0.971 -0.3692  0.7472 -0.9709
 3276TIP3   OH231242   5.629   2.733  14.164  0.3240 -0.2884 -0.3927
 3276TIP3    H131243   5.542   2.696  14.153  0.4059 -0.7097  0.3338
 3276TIP3    H231244   5.616   2.828  14.161 -0.0884 -0.3592 -0.7806
 3277TIP3   OH231245   0.041   1.198  14.899 -0.6262  0.7138 -0.1611
 3277TIP3    H131246   0.037   1.222  14.992 -0.4330 -0.7116  0.2297
 3277TIP3    H231247  -0.017   1.260  14.856 -0.0107  1.9784  0.7865
 3278TIP3   OH231248   1.837   3.563  15.987  0.3947  0.5946 -0.1030
 3278TIP3    H131249   1.923   3.551  16.027 -0.0570 -0.5777  0.5281
 3278TIP3    H231250   1.781   3.595  16.057 -0.7752 -2.9258  0.6534
 3279TIP3   OH231251   1.650   2.518  16.616 -0.0484  0.2816  0.1569
 3279TIP3    H131252   1.622   2.505  16.706  1.0323 -0.2423  0.4345
 3279TIP3    H231253   1.676   2.610  16.612 -0.2450  0.3451  0.3388
 3280TIP3   OH231254   0.236   1.606   0.412 -0.3696  0.2749 -0.0837
 3280TIP3    H131255   0.209   1.555   0.488 -0.9664  0.6133 -0.0665
 3280TIP3    H231256   0.255   1.540   0.345 -2.4522  0.0561 -0.4939
 3281TIP3   OH231257   1.973   0.708  17.115  0.2482 -0.3480 -0.6162
 3281TIP3    H131258   2.014   0.792  17.132  0.4457 -0.4767 -0.4555
 3281TIP3    H231259   1.984   0.694  17.021  0.9840 -0.6004 -0.4948
 3282TIP3   OH231260   0.496   3.544  16.961 -0.2353  0.7453  0.3159
 3282TIP3    H131261   0.567   3.584  17.012 -0.6574  1.6101  0.2269
 3282TIP3    H231262   0.421   3.602  16.975 -0.8984 -0.1160  0.3261
 3283TIP3   OH231263   1.611   5.371  12.529 -0.0571  0.2535  0.1643
 3283TIP3    H131264   1.537   5.359  12.470  0.4276  0.1030 -0.4164
 3283TIP3    H231265   1.675   5.420  12.478  0.8303 -0.8687  0.1746
 3284TIP3   OH231266   1.437   0.067  14.329 -0.0117  0.0193 -0.2849
 3284TIP3    H131267   1.474   0.047  14.415  0.5499 -0.3057 -0.5954
 3284TIP3    H231268   1.347   0.093  14.346  1.1472  3.6542  0.8202
 3285TIP3   OH231269   1.797   2.621  12.385 -0.2237 -0.1295  0.9159
 3285TIP3    H131270   1.807   2.536  12.429 -1.2623 -1.1963 -0.8698
 3285TIP3    H231271   1.853   2.615  12.308 -0.6553  0.6370  0.5353
 3286TIP3   OH231272   1.463   1.541  14.046  0.1074  0.8543 -0.4568
 3286TIP3    H131273   1.459   1.502  14.133  0.0113  0.7617 -0.5034
 3286TIP3    H231274   1.405   1.488  13.993 -1.4285  2.1229 -0.0937
 3287TIP3   OH231275   5.805   3.695   0.419 -0.4778  0.6840 -0.0989
 3287TIP3    H131276   5.717   3.662   0.440 -0.6319  1.3139  0.2317
 3287TIP3    H231277   5.791   3.754   0.345 -0.2624  0.4160 -0.3572
 3288TIP3   OH231278   6.519   5.636  12.304  0.1415  0.3176  0.5765
 3288TIP3    H131279   6.472   5.693  12.243 -0.1251  0.7578  1.1864
 3288TIP3    H231280   6.450   5.588  12.350  0.3531 -0.2368  0.3163
 3289TIP3   OH231281   0.225   6.737   0.526  0.1513  0.5325  0.1231
 3289TIP3    H131282   0.211   6.730   0.431 -1.6919 -1.6423  0.5042
 3289TIP3    H231283   0.283   6.663   0.547 -1.4341 -0.4966  1.0080
 3290TIP3   OH231284   1.108   0.017   2.886  0.4837  0.0947 -0.1847
 3290TIP3    H131285   1.066   0.007   2.801  0.3366  2.6231 -0.4369
 3290TIP3    H231286   1.200  -0.004   2.869  0.4839  0.7385 -1.0033
 3291TIP3   OH231287   1.257   5.528  15.301  0.4748  0.3839 -0.7043
 3291TIP3    H131288   1.344   5.503  15.270  0.9101 -0.4232  1.1366
 3291TIP3    H231289   1.254   5.497  15.392 -1.2678  1.5301 -0.3610
 3292TIP3   OH231290   6.688   6.130  16.532  0.1811  0.0534  0.4649
 3292TIP3    H131291   6.628   6.067  16.492  0.5488  0.5264 -0.8646
 3292TIP3    H231292   6.681   6.208  16.477  1.5143  0.3448  0.6855
 3293TIP3   OH231293   5.838   0.707   0.345  0.7001 -0.5381 -0.5657
 3293TIP3    H131294   5.769   0.771   0.364  0.5253 -0.7412 -0.5156
 3293TIP3    H231295   5.916   0.742   0.388  0.0511 -1.5573  1.5198
 3294TIP3   OH231296   6.013   6.550  12.746 -0.3146  0.0231  0.2857
 3294TIP3    H131297   5.931   6.524  12.705 -0.4654 -0.0468  0.6348
 3294TIP3    H231298   5.987   6.600  12.823 -0.0293  1.2570 -0.3994
 3295TIP3   OH231299   0.772   0.614   5.333 -0.4618  0.7147 -0.3777
 3295TIP3    H131300   0.851   0.610   5.278  0.2103 -0.4077  0.6354
 3295TIP3    H231301   0.718   0.541   5.302 -0.5619  0.7424 -0.2669
 3296TIP3   OH231302   1.253   5.996  12.800 -0.0276 -0.4397 -0.4791
 3296TIP3    H131303   1.293   5.969  12.883  2.0024 -2.0896 -1.9343
 3296TIP3    H231304   1.278   5.927  12.738 -1.8334  0.5697 -2.3700
 3297TIP3   OH231305   5.128   1.637   5.048 -0.6845  0.0925 -0.0888
 3297TIP3    H131306   5.096   1.646   5.138  3.0942 -0.9237  1.4309
 3297TIP3    H231307   5.169   1.720   5.028  0.7346 -0.5594  0.0738
 3298TIP3   OH231308   4.439   5.681   4.419 -0.0992  0.5731  0.4026
 3298TIP3    H131309   4.534   5.668   4.428 -0.2636 -0.0763  1.2397
 3298TIP3    H231310   4.426   5.699   4.326  0.6989 -0.6395  0.0464
 3299TIP3   OH231311   0.100   3.604  13.358 -0.0419  0.3448 -0.5060
 3299TIP3    H131312   0.183   3.640  13.327  0.2417  0.3677  0.2830
 3299TIP3    H231313   0.049   3.681  13.383 -1.0931  0.4815 -2.8991
 3300TIP3   OH231314   4.680   0.314  16.296  0.3790  0.3506  0.4324
 3300TIP3    H131315   4.747   0.362  16.248  1.0226 -1.2626 -0.3137
 3300TIP3    H231316   4.717   0.303  16.384  0.8404 -0.0158  0.1939
 3301TIP3   OH231317   3.764   3.923   5.484  0.3383 -0.2311 -0.3020
 3301TIP3    H131318   3.851   3.964   5.487  0.3774 -0.3302 -0.0405
 3301TIP3    H231319   3.782   3.829   5.489  0.2284 -0.2643 -0.5137
 3302TIP3   OH231320   1.293   6.421   1.073 -0.0898 -0.0650  0.1606
 3302TIP3    H131321   1.320   6.352   1.012 -1.4341 -0.4054 -0.0744
 3302TIP3    H231322   1.201   6.401   1.092 -0.1178  0.9287  1.0992
 3303TIP3   OH231323   4.634   4.914   3.395 -0.2531  0.1257 -0.1613
 3303TIP3    H131324   4.592   4.870   3.469 -0.1466 -1.2997 -0.9302
 3303TIP3    H231325   4.727   4.892   3.403 -0.1966  0.2033 -0.5691
 3304TIP3   OH231326   6.136   3.613  13.787  1.1243  0.3436 -0.0105
 3304TIP3    H131327   6.062   3.570  13.745 -0.8071  0.9447  2.5938
 3304TIP3    H231328   6.103   3.700  13.809  1.4233 -0.4669  4.0930
 3305TIP3   OH231329   6.326   0.612   2.602  0.4732 -0.3193 -0.5868
 3305TIP3    H131330   6.367   0.587   2.685  1.9795  0.3073 -1.1310
 3305TIP3    H231331   6.380   0.684   2.569 -1.6217  1.1520 -0.8778
 3306TIP3   OH231332   3.928   3.702  16.978 -0.1122 -0.2736 -0.7035
 3306TIP3    H131333   3.870   3.750  16.918 -0.9252  0.9944  1.0643
 3306TIP3    H231334   3.985   3.769  17.015 -1.4047 -0.5714  1.9699
 3307TIP3   OH231335   4.288   1.573  12.604 -0.1337  0.4906  0.7886
 3307TIP3    H131336   4.216   1.636  12.595 -1.0132 -0.7414 -1.0600
 3307TIP3    H231337   4.357   1.609  12.549 -0.4169  0.1557  0.2112
 3308TIP3   OH231338   2.280   2.727   1.773  0.6132  0.2395 -1.0230
 3308TIP3    H131339   2.237   2.644   1.755  1.6593 -0.4992 -0.2443
 3308TIP3    H231340   2.349   2.705   1.837  1.9441  1.4119 -2.0098
 3309TIP3   OH231341   6.447   2.240   2.441  0.1393 -0.0722  0.1332
 3309TIP3    H131342   6.382   2.184   2.484  0.1431 -0.2642 -0.1100
 3309TIP3    H231343   6.409   2.328   2.445  0.2648 -0.0410  0.7754
 3310TIP3   OH231344   1.691   3.949   2.893  0.4245 -0.5124 -0.2633
 3310TIP3    H131345   1.681   3.938   2.798  1.1996 -1.4513 -0.2399
 3310TIP3    H231346   1.785   3.954   2.907  0.3120 -0.4129  0.4713
 3311TIP3   OH231347   3.395   5.307  11.616 -0.4991  0.6303 -0.1531
 3311TIP3    H131348   3.315   5.354  11.641 -1.5690 -0.8691 -0.6549
 3311TIP3    H231349   3.364   5.241  11.554  1.3682  1.0371 -1.5445
 3312TIP3   OH231350   5.435   4.964   5.625 -0.0698  0.0583 -0.0857
 3312TIP3    H131351   5.361   4.914   5.589  2.2571 -2.9758 -0.8675
 3312TIP3    H231352   5.417   4.967   5.719 -0.3517 -2.2284 -0.0194
 3313TIP3   OH231353   2.684   6.251  16.793  0.3275 -0.5745 -0.5076
 3313TIP3    H131354   2.753   6.224  16.734  1.7658  1.9804 -0.0620
 3313TIP3    H231355   2.681   6.183  16.860  1.3176 -1.4983 -1.3956
 3314TIP3   OH231356   3.791   0.553  15.944 -0.4270 -0.7461 -0.0573
 3314TIP3    H131357   3.843   0.608  16.002  0.6097 -4.2677  2.5099
 3314TIP3    H231358   3.842   0.548  15.863 -0.3874  1.7330 -0.2169
 3315TIP3   OH231359   0.869   0.127   4.762 -0.1868  0.2554 -0.1344
 3315TIP3    H131360   0.892   0.056   4.702  0.2322  0.4156 -0.1629
 3315TIP3    H231361   0.785   0.159   4.729 -0.9688 -0.9942  0.5644
 3316TIP3   OH231362   0.507   0.897  13.292  0.2238 -0.4886 -0.0784
 3316TIP3    H131363   0.439   0.963  13.282  0.5131  0.0166  1.1525
 3316TIP3    H231364   0.589   0.946  13.285  0.4444 -0.7939  0.3325
 3317TIP3   OH231365   3.019   2.876   0.443  0.0799  0.4623 -0.8749
 3317TIP3    H131366   3.039   2.966   0.417  0.2929  0.6888  0.0643
 3317TIP3    H231367   3.104   2.833   0.450 -0.1428 -0.6651 -4.2746
 3318TIP3   OH231368   5.495   3.101  16.519 -0.1906 -0.5100  0.4916
 3318TIP3    H131369   5.400   3.113  16.521 -0.4273 -2.1081 -0.7890
 3318TIP3    H231370   5.523   3.139  16.436 -0.0110 -2.1249 -0.1964
 3319TIP3   OH231371   5.241   0.236   4.993 -0.2123 -0.4870 -0.4656
 3319TIP3    H131372   5.267   0.296   5.063 -1.0458  1.1491 -1.5064
 3319TIP3    H231373   5.257   0.149   5.029  0.0689  0.3266  1.4826
 3320TIP3   OH231374   3.759   6.708   5.505 -0.1052  0.7505  0.5536
 3320TIP3    H131375   3.782   6.776   5.442 -0.2199  0.5010  0.2432
 3320TIP3    H231376   3.676   6.738   5.543 -1.5019 -0.4954 -1.4577
 3321TIP3   OH231377   1.007   6.763  13.766 -0.4258  0.1075 -0.4759
 3321TIP3    H131378   0.968   6.735  13.848  0.0834 -0.8437 -0.5445
 3321TIP3    H231379   0.982   6.695  13.703  2.3479 -1.2333 -0.2410
 3322TIP3   OH231380   2.404   6.312  14.418 -0.4414  0.8342 -0.2407
 3322TIP3    H131381   2.418   6.220  14.437  0.9276  1.1170  0.1619
 3322TIP3    H231382   2.319   6.315  14.373 -0.9170 -0.5034  0.5569
 3323TIP3   OH231383   6.537   5.064  17.067  0.3939  0.3329  0.3729
 3323TIP3    H131384   6.630   5.087  17.070  0.0153  1.8053  1.7662
 3323TIP3    H231385   6.504   5.106  16.988  0.5552  1.3326  0.8291
 3324TIP3   OH231386   5.453   3.763   3.002  0.2984  0.1233 -0.2199
 3324TIP3    H131387   5.411   3.830   2.948  0.5653  0.6245  0.1904
 3324TIP3    H231388   5.397   3.754   3.079 -0.8770 -1.6597 -1.2611
 3325TIP3   OH231389   2.211   0.036  13.758  0.5829 -0.2131 -0.7782
 3325TIP3    H131390   2.260  -0.012  13.692 -0.7358 -0.6758 -1.4437
 3325TIP3    H231391   2.258   0.120  13.767  1.7469 -0.8292 -1.0355
 3326TIP3   OH231392   0.060   1.235  14.309 -0.1584 -0.1522 -0.0548
 3326TIP3    H131393   0.088   1.311  14.361 -0.4823 -1.0122  1.3994
 3326TIP3    H231394  -0.029   1.256  14.282  0.6859  1.1526 -1.9356
 3327TIP3   OH231395   5.689   5.359  10.790 -0.2777 -0.5464  0.0940
 3327TIP3    H131396   5.777   5.323  10.777 -1.0878 -2.2027 -0.9562
 3327TIP3    H231397   5.704   5.451  10.810  1.7508 -1.0378  0.9458
 3328TIP3   OH231398   6.105   3.549  10.964 -0.2776  0.4408  0.6850
 3328TIP3    H131399   6.045   3.481  10.995  0.4630 -0.1595  0.8189
 3328TIP3    H231400   6.096   3.549  10.869  0.6545 -0.7308  0.5875
 3329TIP3   OH231401   3.011   0.322  12.746 -0.5971 -0.3538 -0.0689
 3329TIP3    H131402   2.949   0.261  12.707  1.3180 -1.2720 -1.7880
 3329TIP3    H231403   3.003   0.401  12.693 -0.4566 -0.4066 -0.1718
 3330TIP3   OH231404   6.070   6.780  15.827  0.2319 -0.6459  0.3814
 3330TIP3    H131405   6.008   6.840  15.785  2.3590  1.9510  0.8151
 3330TIP3    H231406   6.019   6.736  15.894 -1.4650  0.4924 -0.1207
 3331TIP3   OH231407   1.593   2.697   1.410 -0.2495 -0.0574  0.1235
 3331TIP3    H131408   1.597   2.682   1.316  0.2663 -0.1889  0.1652
 3331TIP3    H231409   1.676   2.738   1.432  0.3552 -1.5836  0.7917
 3332TIP3   OH231410   1.985   4.411  15.153 -0.4238 -0.3136  0.6882
 3332TIP3    H131411   1.965   4.497  15.189 -2.8250 -0.6360  0.1592
 3332TIP3    H231412   1.945   4.411  15.066  0.3540 -1.6347  0.3187
 3333TIP3   OH231413   6.508   4.577   0.237  0.0984 -0.3499  0.3178
 3333TIP3    H131414   6.424   4.559   0.195 -0.3879  1.7608  0.3435
 3333TIP3    H231415   6.527   4.668   0.214  1.0551  0.0448  2.5408
 3334TIP3   OH231416   0.804   3.568   6.680 -0.1249  0.3692 -0.2911
 3334TIP3    H131417   0.812   3.644   6.621 -2.6926  0.4637 -0.5960
 3334TIP3    H231418   0.858   3.591   6.756  0.8176  1.5862 -1.3067
 3335TIP3   OH231419   5.334   6.095  13.426  0.0415 -0.0907 -0.5864
 3335TIP3    H131420   5.314   6.101  13.332 -0.0917 -0.4202 -0.5809
 3335TIP3    H231421   5.261   6.138  13.469 -1.1410 -2.0857 -0.5242
 3336TIP3   OH231422   0.886   0.427  12.912  0.3738 -0.3797 -0.0166
 3336TIP3    H131423   0.804   0.473  12.931  0.2384 -0.6978  0.1693
 3336TIP3    H231424   0.866   0.373  12.836 -0.1404 -1.8799  1.1385
 3337TIP3   OH231425   5.222   3.540  16.077  0.0249 -0.7096 -0.1113
 3337TIP3    H131426   5.166   3.565  16.003 -0.0445 -1.4014 -0.3009
 3337TIP3    H231427   5.301   3.504  16.037 -0.0481 -1.1660  0.1519
 3338TIP3   OH231428   1.042   5.139  13.508 -0.1101  0.2585  0.4387
 3338TIP3    H131429   1.100   5.067  13.534  0.9907  1.1946  0.6120
 3338TIP3    H231430   1.088   5.218  13.537 -0.4859  1.1273 -1.2882
 3339TIP3   OH231431   6.693   4.941   1.442  0.2686  0.0410  0.0628
 3339TIP3    H131432   6.717   5.034   1.444 -0.4347  0.2097  1.3482
 3339TIP3    H231433   6.619   4.934   1.503 -0.6784 -1.0930 -1.1810
 3340TIP3   OH231434   3.796   0.405   4.371 -0.3889  0.2414  0.2335
 3340TIP3    H131435   3.853   0.386   4.297  2.3834 -0.0931  2.3971
 3340TIP3    H231436   3.713   0.361   4.349  1.5522 -2.9899 -1.0365
 3341TIP3   OH231437   5.407   0.853  14.918 -0.2948  0.1058  0.6670
 3341TIP3    H131438   5.451   0.896  14.845  0.5530  1.0838  1.7433
 3341TIP3    H231439   5.405   0.760  14.893 -0.7686  0.5315 -0.9664
 3342TIP3   OH231440   4.701   2.053   1.505 -0.0920  0.1201 -0.0130
 3342TIP3    H131441   4.795   2.046   1.488  0.0674  2.0859 -0.0279
 3342TIP3    H231442   4.695   2.090   1.593 -0.8663 -0.0920  0.0308
 3343TIP3   OH231443   4.319   5.876  12.910  0.7331  0.0462 -0.3418
 3343TIP3    H131444   4.385   5.899  12.845  0.6543  1.1854 -0.0266
 3343TIP3    H231445   4.277   5.798  12.875  2.4056 -0.8360 -0.4259
 3344TIP3   OH231446   3.555   2.914  11.976  0.2687  0.5366  0.3331
 3344TIP3    H131447   3.639   2.930  11.933 -0.0107  0.1837 -0.3555
 3344TIP3    H231448   3.544   2.819  11.973 -0.4343  0.6278 -0.1206
 3345TIP3   OH231449   4.872   4.872  14.165 -0.4776  0.5695 -0.0056
 3345TIP3    H131450   4.921   4.840  14.089 -2.3014 -0.3949 -0.7985
 3345TIP3    H231451   4.917   4.833  14.240 -0.7422 -1.3183 -0.7968
 3346TIP3   OH231452   3.711   3.803   3.993  0.4414 -0.0873  0.3942
 3346TIP3    H131453   3.631   3.821   3.944  0.4069 -0.3196  0.3663
 3346TIP3    H231454   3.682   3.757   4.072  0.7621 -2.3542 -0.7721
 3347TIP3   OH231455   1.962   1.621   6.271 -0.1020 -0.4832  0.2452
 3347TIP3    H131456   1.953   1.706   6.228 -0.4739 -1.0158 -0.7480
 3347TIP3    H231457   2.023   1.637   6.342  1.0005  0.2837 -0.8526
 3348TIP3   OH231458   4.176   2.093  11.928  0.1972 -0.0184 -0.0983
 3348TIP3    H131459   4.149   2.004  11.906  1.1389 -0.0244 -1.3451
 3348TIP3    H231460   4.097   2.146  11.918  0.0635 -0.4211 -1.2310
 3349TIP3   OH231461   0.557   3.444   6.630  0.0755 -0.3812  0.6569
 3349TIP3    H131462   0.590   3.363   6.591  1.1425  0.1422  0.4692
 3349TIP3    H231463   0.635   3.493   6.655 -0.5634  0.5388  0.8800
 3350TIP3   OH231464   5.357   5.190  16.423 -0.3693 -0.5485 -0.6310
 3350TIP3    H131465   5.319   5.256  16.364  0.5376 -1.3382 -2.1476
 3350TIP3    H231466   5.298   5.114  16.414 -0.7673 -0.3452  0.2256
 3351TIP3   OH231467   2.855   2.407  16.022 -0.2645 -0.3754 -0.4769
 3351TIP3    H131468   2.913   2.459  16.076  0.1799 -0.6482 -0.6868
 3351TIP3    H231469   2.901   2.324  16.010  0.3417  0.2117 -2.5173
 3352TIP3   OH231470   3.570   4.111   5.482  0.2954 -0.0709 -0.0398
 3352TIP3    H131471   3.590   4.110   5.575  1.1372  0.3631 -0.2050
 3352TIP3    H231472   3.632   4.049   5.444 -1.1361 -1.4808 -0.1142
 3353TIP3   OH231473   6.748   2.055  16.328  0.2814 -0.2226  0.3702
 3353TIP3    H131474   6.810   1.994  16.368  1.8275  1.4830  0.6472
 3353TIP3    H231475   6.695   2.087  16.401  0.2764 -0.3301  0.4120
 3354TIP3   OH231476   4.267   5.532  14.435 -0.3095  0.0958 -0.0264
 3354TIP3    H131477   4.315   5.613  14.415 -1.9340  0.9720 -0.4023
 3354TIP3    H231478   4.305   5.502  14.518  0.4978  1.0786 -0.0313
 3355TIP3   OH231479   1.291   4.776   6.047  0.3843 -0.4185  0.4756
 3355TIP3    H131480   1.318   4.793   5.957  0.7242 -0.7734  0.5061
 3355TIP3    H231481   1.212   4.828   6.059  1.6132  1.4677  0.7021
 3356TIP3   OH231482   5.025   2.332  11.926 -0.5097 -0.4136 -0.1475
 3356TIP3    H131483   4.975   2.395  11.875  0.6540  0.3056 -0.4227
 3356TIP3    H231484   5.104   2.379  11.953 -0.3126 -1.3003  0.8910
 3357TIP3   OH231485   3.432   0.713   5.810 -0.2624  0.0984 -0.0697
 3357TIP3    H131486   3.498   0.652   5.778  0.8330 -0.1153  2.4793
 3357TIP3    H231487   3.458   0.798   5.774  0.4781 -0.2497 -0.3636
 3358TIP3   OH231488   0.923   6.732  15.261 -0.2404 -0.1663 -0.2403
 3358TIP3    H131489   0.948   6.751  15.170 -0.9853 -0.2160 -0.4620
 3358TIP3    H231490   0.836   6.692  15.254  1.3130 -3.8338  0.1890
 3359TIP3   OH231491   0.553   4.478  12.832  0.7494 -0.0133  0.5761
 3359TIP3    H131492   0.630   4.532  12.819  0.4790  0.4004  0.6878
 3359TIP3    H231493   0.479   4.540  12.831  0.2326 -0.6251 -1.6137
 3360TIP3   OH231494   6.687   5.392  11.106 -0.4956 -0.4401 -0.1689
 3360TIP3    H131495   6.668   5.371  11.015 -3.2257 -0.2832  0.3187
 3360TIP3    H231496   6.724   5.480  11.104 -0.3635 -0.5187 -1.1415
 3361TIP3   OH231497   0.215   4.963   0.263 -0.2368 -0.3757 -0.2572
 3361TIP3    H131498   0.170   5.012   0.195 -1.0943 -1.5604 -0.5410
 3361TIP3    H231499   0.156   4.966   0.338  0.3808  0.2966  0.2153
 3362TIP3   OH231500   0.523   4.027  14.826  0.2468  0.1380 -0.0566
 3362TIP3    H131501   0.474   3.946  14.839  0.0039  0.4626  1.1371
 3362TIP3    H231502   0.499   4.056  14.738 -0.0329 -0.8347 -0.3045
 3363TIP3   OH231503   3.891   5.651   1.500  0.5707 -0.4099 -0.0993
 3363TIP3    H131504   3.862   5.716   1.436  1.2490  2.2628  2.2100
 3363TIP3    H231505   3.820   5.646   1.564  0.2519 -2.4486 -0.5820
 3364TIP3   OH231506   0.050   4.451   3.182 -0.1366  0.3173  0.0610
 3364TIP3    H131507   0.064   4.405   3.265  1.7926 -0.1518 -0.5142
 3364TIP3    H231508   0.133   4.443   3.135  0.2226  4.3106 -0.1214
 3365TIP3   OH231509   5.439   1.299   4.186  0.1809 -0.1693  0.3858
 3365TIP3    H131510   5.481   1.214   4.191  1.2227  0.3908  1.3027
 3365TIP3    H231511   5.502   1.354   4.140  0.6481  0.7852  2.1419
 3366TIP3   OH231512   4.480   3.775  15.794 -0.6575  0.1573 -0.7263
 3366TIP3    H131513   4.392   3.812  15.786 -0.3894  1.3854  1.4449
 3366TIP3    H231514   4.530   3.816  15.724 -1.9209 -0.9204 -2.2839
 3367TIP3   OH231515   0.579   0.753  14.262  0.3400 -0.7023  0.0822
 3367TIP3    H131516   0.579   0.673  14.210 -1.8250 -0.5321 -0.2291
 3367TIP3    H231517   0.642   0.810  14.218 -0.0640 -1.2743 -1.2512
 3368TIP3   OH231518   1.431   1.873   0.843  0.2555  0.4117  0.1551
 3368TIP3    H131519   1.353   1.853   0.790  0.3535 -2.0680  0.8687
 3368TIP3    H231520   1.501   1.823   0.801  0.3239 -1.6667  2.5882
 3369TIP3   OH231521   6.065   3.760  12.391 -0.3295  0.6766  0.0197
 3369TIP3    H131522   6.004   3.782  12.461  0.3966  1.8373  0.3172
 3369TIP3    H231523   6.109   3.681  12.420  0.1914  1.3288  1.0433
 3370TIP3   OH231524   2.877   6.172  14.657 -0.1602  0.7714  0.7876
 3370TIP3    H131525   2.950   6.233  14.655 -1.7335  2.7311  0.7676
 3370TIP3    H231526   2.890   6.116  14.581  1.5554  0.7714  1.0639
 3371TIP3   OH231527   1.202   3.072   1.724  0.3264 -0.2771 -0.2696
 3371TIP3    H131528   1.215   3.129   1.800  0.2154  0.9512 -1.1448
 3371TIP3    H231529   1.107   3.072   1.711  0.3827 -0.1084 -0.6834
 3372TIP3   OH231530   2.016   2.586  14.655 -0.2506 -0.3279 -0.1070
 3372TIP3    H131531   1.999   2.625  14.569 -0.2195  0.4252  0.2251
 3372TIP3    H231532   2.079   2.516  14.637 -1.2544 -1.0448 -0.8819
 3373TIP3   OH231533   4.848   4.171   0.506 -0.2304 -0.1234  0.2398
 3373TIP3    H131534   4.792   4.094   0.501  0.2942 -0.4113 -1.5878
 3373TIP3    H231535   4.805   4.228   0.570 -1.4045 -1.2882  0.5166
 3374TIP3   OH231536   4.477   6.211   2.145  0.6121  0.1697  0.2768
 3374TIP3    H131537   4.458   6.283   2.085  3.4168  0.8058  0.0697
 3374TIP3    H231538   4.505   6.255   2.226 -2.4995 -0.6843  1.8594
 3375TIP3   OH231539   2.546   3.425   5.025  0.2050  0.1381 -0.4109
 3375TIP3    H131540   2.460   3.452   5.056 -0.0197 -0.6514 -0.3149
 3375TIP3    H231541   2.566   3.484   4.953 -1.1534 -0.7082 -1.5071
 3376TIP3   OH231542   1.784   1.067   4.996 -0.5676  0.2038  0.4060
 3376TIP3    H131543   1.785   1.161   5.012 -1.2068  0.1176  0.9621
 3376TIP3    H231544   1.702   1.037   5.034 -0.2887 -0.6077  0.3765
 3377TIP3   OH231545   6.570   0.587   6.556  0.3640  0.2637 -0.0888
 3377TIP3    H131546   6.589   0.678   6.533 -0.2101  0.5434  0.5276
 3377TIP3    H231547   6.524   0.552   6.480  1.7461  0.0977 -0.8677
 3378TIP3   OH231548   5.592   4.668   5.106  0.7714 -0.4292  0.1720
 3378TIP3    H131549   5.635   4.689   5.189 -1.0231  1.4404  0.6835
 3378TIP3    H231550   5.541   4.747   5.085 -0.1948 -1.5434 -1.8044
 3379TIP3   OH231551   2.435   3.128   4.126  0.2465 -0.2635  0.6677
 3379TIP3    H131552   2.368   3.065   4.153  0.4074 -0.6679  0.1209
 3379TIP3    H231553   2.385   3.201   4.089  0.0520  0.0145  1.4694
 3380TIP3   OH231554   5.048   1.782   4.178  0.5119 -0.2091 -0.2698
 3380TIP3    H131555   5.143   1.774   4.187  0.5167  0.5319  0.3144
 3380TIP3    H231556   5.031   1.876   4.183 -0.3107 -0.3828  0.2097
 3381TIP3   OH231557   4.029   3.936   2.996  0.0545  0.6277  0.1086
 3381TIP3    H131558   4.081   3.860   3.021  0.9007  1.3031  0.4371
 3381TIP3    H231559   4.019   3.928   2.901 -0.8954 -0.5326  0.2993
 3382TIP3   OH231560   0.987   5.946   2.045 -0.2241 -0.0404 -0.4026
 3382TIP3    H131561   1.004   5.852   2.041 -1.8483 -0.4072  0.7072
 3382TIP3    H231562   0.900   5.953   2.086 -0.6486  1.8866 -1.5529
 3383TIP3   OH231563   2.715   6.306  15.064 -0.1637  0.4540 -0.2088
 3383TIP3    H131564   2.662   6.304  15.143  0.2222  1.0290  0.0646
 3383TIP3    H231565   2.725   6.213  15.040  0.0464  0.2524  0.6280
 3384TIP3   OH231566   5.503   1.739   1.035 -0.2546  0.0685 -0.0065
 3384TIP3    H131567   5.491   1.707   0.946  0.9144  0.6360 -0.3706
 3384TIP3    H231568   5.542   1.826   1.025 -0.5263  0.3221  1.0487
 3385TIP3   OH231569   1.283   0.663   3.081 -0.3395  0.3003 -0.1842
 3385TIP3    H131570   1.370   0.700   3.066 -0.4703  0.8467  0.3768
 3385TIP3    H231571   1.296   0.599   3.151 -0.5811  1.1462  0.6336
 3386TIP3   OH231572   3.626   0.474  17.086  0.1214  0.2698  0.2554
 3386TIP3    H131573   3.533   0.467  17.065  0.2238 -1.5567  0.3425
 3386TIP3    H231574   3.637   0.564  17.117 -1.5052  0.6550 -0.2453
 3387TIP3   OH231575   0.245   1.153  15.591 -0.6441  0.4756  0.5320
 3387TIP3    H131576   0.228   1.160  15.498 -0.7231 -0.0714  0.5014
 3387TIP3    H231577   0.162   1.123  15.629  0.2778 -2.5746  0.3296
 3388TIP3   OH231578   6.472   5.837   0.688  0.0641 -0.3531 -0.2194
 3388TIP3    H131579   6.450   5.931   0.684  0.5156 -0.2909 -1.4342
 3388TIP3    H231580   6.400   5.798   0.737  1.1128  0.9959  2.5045
 3389TIP3   OH231581   1.829   6.008   3.594 -0.3280  0.6767  0.1989
 3389TIP3    H131582   1.740   5.981   3.571 -0.1705 -0.1747  0.5473
 3389TIP3    H231583   1.820   6.098   3.625 -0.9553  0.8518 -0.4759
 3390TIP3   OH231584   2.484   6.604   4.874 -0.0305  0.2677  0.1647
 3390TIP3    H131585   2.552   6.548   4.837  0.2771  1.3575 -0.9559
 3390TIP3    H231586   2.526   6.648   4.948  0.1169 -0.0063  0.2418
 3391TIP3   OH231587   3.509   3.072  11.143 -0.3890 -0.0528  0.0046
 3391TIP3    H131588   3.565   3.028  11.079  0.6211 -0.2718  1.0354
 3391TIP3    H231589   3.429   3.019  11.144 -1.3119  1.2050 -2.6973
 3392TIP3   OH231590   5.800   1.269   5.785  0.3545  0.8656  0.2774
 3392TIP3    H131591   5.755   1.263   5.700  0.1931  0.2237  0.4047
 3392TIP3    H231592   5.778   1.356   5.818  0.4373  1.1264 -0.3550
 3393TIP3   OH231593   0.426   1.949   0.039 -0.1480  0.8029  0.5422
 3393TIP3    H131594   0.489   1.909   0.099 -0.6151  1.0578  1.2113
 3393TIP3    H231595   0.344   1.901   0.054 -0.0775  0.3502 -0.4487
 3394TIP3   OH231596   4.580   0.385  14.767 -0.0823  0.1057 -0.1331
 3394TIP3    H131597   4.515   0.315  14.760 -0.1971 -0.0663  2.0867
 3394TIP3    H231598   4.662   0.339  14.788  0.2340  0.4931 -0.5174
 3395TIP3   OH231599   2.120   2.581   4.582 -0.0807 -0.3542  0.0020
 3395TIP3    H131600   2.173   2.519   4.532  1.7588  0.1427  1.2490
 3395TIP3    H231601   2.177   2.608   4.654 -0.8495  2.6934 -0.4403
 3396TIP3   OH231602   3.150   6.692   5.606  0.4849  0.0604  0.4872
 3396TIP3    H131603   3.056   6.708   5.610  0.3851  0.2540 -1.8902
 3396TIP3    H231604   3.158   6.598   5.622 -0.3357 -0.3907 -1.6120
 3397TIP3   OH231605   1.509   3.815  16.896 -0.2812 -0.3128  0.2295
 3397TIP3    H131606   1.466   3.785  16.976  2.7337 -2.3355  1.2013
 3397TIP3    H231607   1.553   3.896  16.922 -1.3400  0.3615 -0.0624
 3398TIP3   OH231608   2.119   4.607  10.640  0.1217  0.0450  0.1902
 3398TIP3    H131609   2.165   4.624  10.723  0.8326 -0.7680 -0.0322
 3398TIP3    H231610   2.056   4.538  10.662 -0.5926  0.7502  0.3585
 3399TIP3   OH231611   6.213   4.880   2.538  0.5230 -0.0047  0.1821
 3399TIP3    H131612   6.188   4.802   2.488  0.5989 -0.4985  0.9005
 3399TIP3    H231613   6.304   4.896   2.512 -0.1191  1.0409 -1.4742
 3400TIP3   OH231614   0.365   6.420   5.463 -0.3983 -0.2883 -0.2662
 3400TIP3    H131615   0.286   6.423   5.517  0.1802  1.4595  0.5334
 3400TIP3    H231616   0.435   6.396   5.524  0.1029  0.7594 -0.4235
 3401TIP3   OH231617   2.341   2.688  16.448 -0.1394  0.3344  0.5571
 3401TIP3    H131618   2.357   2.745  16.372 -1.0988 -0.3430 -0.1753
 3401TIP3    H231619   2.322   2.749  16.519  1.0225  0.9877  0.3121
 3402TIP3   OH231620   2.934   1.272  11.077 -0.3991 -0.7131  0.1183
 3402TIP3    H131621   2.948   1.356  11.035 -1.2194 -0.3374  0.5842
 3402TIP3    H231622   2.947   1.208  11.007 -0.1820 -0.1761 -0.3345
 3403TIP3   OH231623   5.916   1.291  13.483 -0.5518  0.0005 -0.4676
 3403TIP3    H131624   6.009   1.279  13.499 -0.5015  0.0303 -0.7328
 3403TIP3    H231625   5.911   1.326  13.394 -0.6203  3.2665  0.7741
 3404TIP3   OH231626   5.351   3.578  11.877 -0.2980 -0.0077  0.6823
 3404TIP3    H131627   5.414   3.629  11.826  0.1153 -0.7479  0.4538
 3404TIP3    H231628   5.404   3.522  11.933 -0.7407 -0.9113  0.2071
 3405TIP3   OH231629   6.684   4.922   5.158 -0.2670  0.1449  0.7717
 3405TIP3    H131630   6.696   4.847   5.217 -1.1804 -0.7871 -0.2096
 3405TIP3    H231631   6.756   4.981   5.180  1.2296 -1.5926  0.6887
 3406TIP3   OH231632   1.478   1.629   3.672  0.5971 -0.7937 -0.0751
 3406TIP3    H131633   1.428   1.631   3.753 -0.8159 -2.6950 -0.8648
 3406TIP3    H231634   1.430   1.687   3.613  1.9744  1.0857  0.6188
 3407TIP3   OH231635   3.128   2.987   0.082  0.1378 -0.7889  0.4546
 3407TIP3    H131636   3.130   3.070   0.129 -1.0714  0.0911 -1.0242
 3407TIP3    H231637   3.035   2.967   0.072  0.3593 -0.8010 -1.8119
 3408TIP3   OH231638   4.067   0.734   5.341  0.4881 -0.2755 -0.1457
 3408TIP3    H131639   4.036   0.681   5.267  1.5804  1.1971 -1.7246
 3408TIP3    H231640   4.122   0.802   5.300  0.4491  1.0792  1.9554
 3409TIP3   OH231641   0.643   6.532   0.441  0.0288  0.6162  0.1994
 3409TIP3    H131642   0.666   6.517   0.349  0.7822 -2.0466  0.7811
 3409TIP3    H231643   0.679   6.618   0.461 -0.4709  1.4026 -2.0887
 3410TIP3   OH231644   0.539   0.875   4.381  0.3294  0.0721  0.6001
 3410TIP3    H131645   0.539   0.780   4.365  0.6534 -0.0108  1.0661
 3410TIP3    H231646   0.540   0.883   4.476 -1.3578  0.5543  0.5972
 3411TIP3   OH231647   4.241   4.991  14.280  0.5873 -0.6633 -0.4079
 3411TIP3    H131648   4.279   4.904  14.274 -0.7756 -1.1998 -1.5892
 3411TIP3    H231649   4.308   5.050  14.247  0.8182 -1.4772 -1.4069
 3412TIP3   OH231650   6.631   3.470   2.040 -0.3733 -0.1877 -0.4426
 3412TIP3    H131651   6.545   3.454   2.079 -0.6843 -0.8415 -1.3802
 3412TIP3    H231652   6.644   3.396   1.980  0.6776  0.1047 -0.5808
 3413TIP3   OH231653   5.939   0.150  16.105  0.2874 -0.4247  0.1706
 3413TIP3    H131654   5.934   0.196  16.021 -0.5850 -0.7171  0.0580
 3413TIP3    H231655   5.892   0.207  16.167 -1.2708 -1.3908 -0.0843
 3414TIP3   OH231656   3.720   3.329   6.884 -0.3865 -0.4528  0.2850
 3414TIP3    H131657   3.704   3.420   6.858  1.8636 -0.2816 -0.6360
 3414TIP3    H231658   3.685   3.278   6.811 -2.3538 -0.3710  1.1576
 3415TIP3   OH231659   1.837   5.271  14.985  0.3316 -0.1115  0.3036
 3415TIP3    H131660   1.778   5.226  15.045 -0.2959 -0.2603 -0.4065
 3415TIP3    H231661   1.881   5.337  15.038  0.4858 -0.8746  1.1241
 3416TIP3   OH231662   4.672   3.190   0.963 -0.2280 -0.0372 -0.7194
 3416TIP3    H131663   4.627   3.275   0.967 -0.8038 -0.3740  0.1676
 3416TIP3    H231664   4.676   3.160   1.054  0.5957 -0.6400 -0.9475
 3417TIP3   OH231665   4.405   4.972  10.995  0.1075  0.0358  0.3927
 3417TIP3    H131666   4.333   4.970  11.058  0.0259  4.7108  0.6239
 3417TIP3    H231667   4.364   4.992  10.911  0.7532 -1.0431 -0.1918
 3418TIP3   OH231668   5.624   0.969   2.900 -0.2170  0.1646 -0.1629
 3418TIP3    H131669   5.629   0.874   2.908 -1.0597  0.0364 -1.1268
 3418TIP3    H231670   5.570   0.984   2.822  2.7919  1.3748 -2.1309
 3419TIP3   OH231671   2.820   3.378   4.399  0.0154 -0.3744  0.2792
 3419TIP3    H131672   2.727   3.366   4.382  0.1005 -0.7575  0.0651
 3419TIP3    H231673   2.835   3.472   4.387 -0.4535 -0.2242  0.8806
 3420TIP3   OH231674   5.282   6.021  13.718  0.2093 -0.0920 -0.0832
 3420TIP3    H131675   5.219   6.066  13.661 -0.4088 -1.5974 -0.6361
 3420TIP3    H231676   5.360   6.010  13.663 -0.6257 -2.1573 -0.9328
 3421TIP3   OH231677   2.626   5.605   2.847 -0.9902  0.0672 -0.2975
 3421TIP3    H131678   2.634   5.576   2.756 -1.3235 -1.0072  0.0174
 3421TIP3    H231679   2.711   5.645   2.866 -0.8224  0.0515 -0.9930
 3422TIP3   OH231680   1.131   6.258   5.973  0.4992 -0.1943 -0.4380
 3422TIP3    H131681   1.123   6.174   5.929 -0.9191  1.4419 -3.4092
 3422TIP3    H231682   1.062   6.258   6.039  0.9369 -1.5937  0.0346
 3423TIP3   OH231683   2.797   0.078  12.291 -0.3909 -0.1864  0.1260
 3423TIP3    H131684   2.759  -0.010  12.288 -0.2932 -0.2860  1.4249
 3423TIP3    H231685   2.723   0.135  12.309 -0.1381 -0.2457  1.4184
 3424TIP3   OH231686   5.016   2.414  15.997 -0.0635  0.0782 -0.1189
 3424TIP3    H131687   5.050   2.386  15.912  0.3390 -0.4318  0.2087
 3424TIP3    H231688   5.089   2.457  16.039  0.2034 -1.0375  0.5943
 3425TIP3   OH231689   3.059   0.002  11.950 -0.0688  0.1536  0.6588
 3425TIP3    H131690   3.120   0.038  12.015  1.3822  0.1415 -0.6588
 3425TIP3    H231691   3.029   0.078  11.901 -1.8154  0.2619  1.8639
 3426TIP3   OH231692   4.766   2.601   3.347  0.0564  0.2823 -0.0498
 3426TIP3    H131693   4.854   2.563   3.347  0.6650  1.6176  2.5289
 3426TIP3    H231694   4.761   2.648   3.263  1.4443 -0.5570 -0.6252
 3427TIP3   OH231695   0.660   2.530   2.973  0.2745 -0.4087 -0.4981
 3427TIP3    H131696   0.569   2.558   2.971  0.1213 -0.8754 -0.1419
 3427TIP3    H231697   0.708   2.601   2.930  0.1033  1.1761  1.8159
 3428TIP3   OH231698   3.840   2.435  13.415  0.1703  0.0083  0.2062
 3428TIP3    H131699   3.789   2.465  13.339 -1.3963 -0.5334  1.0085
 3428TIP3    H231700   3.910   2.499  13.423  0.5426 -0.0865 -1.8825
 3429TIP3   OH231701   3.605   6.267   3.372 -0.0784 -0.1342 -0.5768
 3429TIP3    H131702   3.584   6.341   3.314 -0.7504  0.7408  0.7526
 3429TIP3    H231703   3.529   6.261   3.431 -0.2140 -2.1621 -0.9378
 3430TIP3   OH231704   4.261   2.093  12.930  0.2922  0.1099 -0.1414
 3430TIP3    H131705   4.342   2.138  12.954  0.2454 -1.1057  2.4236
 3430TIP3    H231706   4.248   2.028  12.998 -0.8325 -2.3349 -2.5882
 3431TIP3   OH231707   5.981   0.174   0.829  0.1259 -0.0649  0.8937
 3431TIP3    H131708   6.031   0.109   0.779  1.1843  1.2679  0.1821
 3431TIP3    H231709   5.966   0.245   0.767  3.1730  2.5073  2.9631
 3432TIP3   OH231710   2.250   3.638   2.324 -0.1626 -0.4511 -0.1232
 3432TIP3    H131711   2.283   3.717   2.281  0.7203 -0.0063  1.3466
 3432TIP3    H231712   2.306   3.568   2.291 -0.4532 -0.3548 -0.8367
 3433TIP3   OH231713   2.611   0.469  10.295 -0.0168 -0.4352 -0.1444
 3433TIP3    H131714   2.695   0.428  10.317  0.6666  1.4741  0.9490
 3433TIP3    H231715   2.546   0.414  10.338  0.8941 -0.2488  1.5226
 3434TIP3   OH231716   5.276   4.675   3.806 -0.0864  0.2307  0.6735
 3434TIP3    H131717   5.200   4.617   3.793 -1.0782  1.5477  0.4699
 3434TIP3    H231718   5.310   4.651   3.892 -1.1522  0.0769  1.0666
 3435TIP3   OH231719   6.621   6.621  11.962 -0.0881 -0.1292  0.2913
 3435TIP3    H131720   6.685   6.662  12.020 -1.3272 -0.3594  1.8663
 3435TIP3    H231721   6.551   6.687  11.954 -1.4877 -1.3865  1.7964
 3436TIP3   OH231722   2.354   3.153  13.533  0.5162  0.4117  0.0700
 3436TIP3    H131723   2.335   3.073  13.485 -0.2501  0.6861 -0.1033
 3436TIP3    H231724   2.352   3.127  13.625 -1.5263  0.5748  0.0959
 3437TIP3   OH231725   1.944   6.454  11.967 -0.0682 -0.4425 -0.6149
 3437TIP3    H131726   2.000   6.409  12.030  0.6186 -0.0665 -0.9532
 3437TIP3    H231727   1.861   6.468  12.013 -0.4663 -2.4796 -0.6385
 3438TIP3   OH231728   4.232   5.156   3.705 -0.1647 -0.5756 -0.4524
 3438TIP3    H131729   4.276   5.140   3.789  0.0001 -2.2096 -0.8298
 3438TIP3    H231730   4.303   5.184   3.647 -0.0762 -0.6220 -0.3683
 3439TIP3   OH231731   5.824   4.362  11.454  0.6070  0.2414  0.6867
 3439TIP3    H131732   5.815   4.457  11.466  2.3334  0.4608  0.3766
 3439TIP3    H231733   5.770   4.343  11.377 -2.7217  0.3508  2.8855
 3440TIP3   OH231734   2.739   1.237   1.832 -0.2035  0.0793 -0.5597
 3440TIP3    H131735   2.780   1.197   1.755 -0.1955  0.1936 -0.6149
 3440TIP3    H231736   2.810   1.243   1.896 -0.6380 -1.7741  0.1438
 3441TIP3   OH231737   6.465   3.817  16.355  0.1703 -0.3112 -0.3270
 3441TIP3    H131738   6.504   3.813  16.442 -0.7981  2.9043  0.3144
 3441TIP3    H231739   6.370   3.810  16.370  0.0117 -0.0093 -1.1397
 3442TIP3   OH231740   0.109   0.621   0.183 -0.0288  1.0202  0.3253
 3442TIP3    H131741   0.160   0.549   0.145  0.3539  1.1643  0.5616
 3442TIP3    H231742   0.109   0.688   0.115 -0.0591  0.9468  0.2529
 3443TIP3   OH231743   6.114   1.344  16.097  0.2018  0.4922 -0.3544
 3443TIP3    H131744   6.043   1.286  16.070 -1.0577  2.0064 -0.3389
 3443TIP3    H231745   6.182   1.285  16.129 -1.0966 -0.9673 -0.2300
 3444TIP3   OH231746   2.146   0.684  10.882 -0.5339  0.0007 -0.3126
 3444TIP3    H131747   2.151   0.759  10.822  0.9274  0.0602 -0.1333
 3444TIP3    H231748   2.059   0.647  10.867 -0.3776  0.3180 -2.1092
 3445TIP3   OH231749   4.482   6.159  12.937 -0.3530  0.6641 -0.5312
 3445TIP3    H131750   4.427   6.236  12.920 -1.3358  0.3600  1.1430
 3445TIP3    H231751   4.566   6.196  12.965 -1.0748  1.1560  1.0457
 3446TIP3   OH231752   6.321   5.839   6.018 -0.2301  0.3219 -0.1878
 3446TIP3    H131753   6.332   5.934   6.010  0.0243  0.2276 -0.9444
 3446TIP3    H231754   6.230   5.823   5.992 -0.2620  0.3504 -0.0950
 3447TIP3   OH231755   5.425   2.262   3.419 -0.4610 -0.0057  0.0575
 3447TIP3    H131756   5.369   2.194   3.457 -0.8670 -0.4589 -1.3050
 3447TIP3    H231757   5.511   2.246   3.455 -0.6643 -0.9489  0.1389
 3448TIP3   OH231758   4.443   2.756  14.972  0.7976 -0.4806  0.4258
 3448TIP3    H131759   4.503   2.726  14.904  0.9387 -1.8499  1.1343
 3448TIP3    H231760   4.493   2.747  15.054  1.3687  3.0785  0.5571
 3449TIP3   OH231761   6.282   4.163   2.595  0.8658  0.4754 -0.1301
 3449TIP3    H131762   6.374   4.174   2.573  1.6266 -2.7109  1.2488
 3449TIP3    H231763   6.241   4.132   2.514  1.1601  0.9567 -0.4671
 3450TIP3   OH231764   6.360   6.026  14.940  0.0675 -0.1131 -0.3031
 3450TIP3    H131765   6.283   5.995  14.893  0.0683 -2.6174  1.2417
 3450TIP3    H231766   6.429   6.028  14.874 -0.5557 -1.0505 -1.0045
 3451TIP3   OH231767   3.724   4.780  16.700 -0.0006  0.2347  0.0787
 3451TIP3    H131768   3.644   4.728  16.689 -0.7558  1.4791 -0.3000
 3451TIP3    H231769   3.784   4.745  16.633 -0.2910 -0.5601  0.2263
 3452TIP3   OH231770   5.045   0.964  16.457 -0.4904  0.1477 -0.4549
 3452TIP3    H131771   4.996   0.929  16.383 -2.5627  1.3546  0.2964
 3452TIP3    H231772   5.035   0.898  16.525  0.0427 -0.2112 -0.7248
 3453TIP3   OH231773   5.182   6.332   2.074 -0.5656 -0.5045 -0.3346
 3453TIP3    H131774   5.178   6.402   2.139  0.3520 -1.3451  0.6575
 3453TIP3    H231775   5.127   6.262   2.111 -0.8738 -0.5907 -0.9537
 3454TIP3   OH231776   6.101   4.044   3.291  0.6268  0.6416  0.1321
 3454TIP3    H131777   6.112   3.974   3.355 -1.6134  0.7184  0.6424
 3454TIP3    H231778   6.127   4.123   3.337 -0.7533  0.6630  0.9060
 3455TIP3   OH231779   1.200   1.959   1.561  0.1407 -0.2067 -0.0929
 3455TIP3    H131780   1.286   1.946   1.520 -0.0670  0.1526 -0.6384
 3455TIP3    H231781   1.199   1.897   1.634  1.1139  0.2061  0.2856
 3456TIP3   OH231782   5.066   3.105  14.027  0.6711 -0.4693  0.0313
 3456TIP3    H131783   5.085   3.192  14.062 -3.3145  0.0066  1.2882
 3456TIP3    H231784   5.045   3.120  13.935 -1.8716  0.2483  0.6843
 3457TIP3   OH231785   0.739   5.409  17.122 -0.1914 -0.0666  0.5286
 3457TIP3    H131786   0.816   5.395  17.067 -0.1355 -2.0252  1.0403
 3457TIP3    H231787   0.694   5.483  17.082  2.4750  1.7739  0.8194
 3458TIP3   OH231788   0.289   6.435   6.246  0.1825  1.0430  0.2109
 3458TIP3    H131789   0.349   6.360   6.241 -1.3060 -0.1008 -1.0918
 3458TIP3    H231790   0.319   6.493   6.177 -0.3464  0.3518 -0.6123
 3459TIP3   OH231791   5.173   4.929   0.731  0.7950 -0.1901  0.9707
 3459TIP3    H131792   5.086   4.891   0.722  0.3214  0.7645  1.4415
 3459TIP3    H231793   5.203   4.941   0.641 -0.1909  0.8875  0.7684
 3460TIP3   OH231794   2.110   3.069   3.732  0.3669  0.3112 -0.4257
 3460TIP3    H131795   2.110   3.163   3.749  0.7970  0.5066 -1.4964
 3460TIP3    H231796   2.020   3.042   3.751  0.5655  0.6968  1.1321
 3461TIP3   OH231797   2.407   6.581  15.185 -0.3384 -0.5175  0.1679
 3461TIP3    H131798   2.415   6.612  15.095  1.4387 -2.0606 -0.2298
 3461TIP3    H231799   2.444   6.652  15.238 -0.4471 -0.0476 -0.3756
 3462TIP3   OH231800   4.589   4.618   5.460  0.1519  0.2680 -0.2060
 3462TIP3    H131801   4.651   4.620   5.387  0.2698 -0.0035 -0.1153
 3462TIP3    H231802   4.644   4.631   5.537  0.1026 -0.0274 -0.1216
 3463TIP3   OH231803   0.442   4.254  16.243 -0.1758  0.0023  0.4894
 3463TIP3    H131804   0.480   4.168  16.224 -1.2075 -0.3213 -0.1373
 3463TIP3    H231805   0.436   4.297  16.158  1.0691  1.0213  0.8839
 3464TIP3   OH231806   5.435   5.550  12.321  0.1209  0.0975 -0.4615
 3464TIP3    H131807   5.488   5.555  12.401  0.9467  2.3844 -1.1055
 3464TIP3    H231808   5.477   5.482  12.268 -0.4277 -1.4192  1.0239
 3465TIP3   OH231809   2.013   2.411   5.069  0.2852  0.1547  0.0080
 3465TIP3    H131810   2.037   2.319   5.057  0.4673  0.2568 -0.4376
 3465TIP3    H231811   1.918   2.410   5.080  0.3190 -0.1119  0.2874
 3466TIP3   OH231812   6.717   5.091   6.261 -0.3167 -0.1252  0.3717
 3466TIP3    H131813   6.642   5.033   6.251 -0.0401 -0.3436 -0.4795
 3466TIP3    H231814   6.739   5.086   6.355 -0.6463 -0.9474  0.4089
 3467TIP3   OH231815   0.247   2.630   4.940 -0.4695  0.2450  0.0508
 3467TIP3    H131816   0.341   2.649   4.936  0.1266 -1.6832  3.0043
 3467TIP3    H231817   0.207   2.715   4.960  0.5248  1.2425 -2.0046
 3468TIP3   OH231818   4.828   5.392   0.627 -0.1471  1.4023 -0.2831
 3468TIP3    H131819   4.791   5.311   0.665 -2.4943  1.4344 -2.3584
 3468TIP3    H231820   4.904   5.362   0.577  0.6733  0.8761  1.2226
 3469TIP3   OH231821   1.250   3.680  16.360 -0.0046 -0.2900  0.1568
 3469TIP3    H131822   1.269   3.743  16.429  0.4302 -0.9323  0.6337
 3469TIP3    H231823   1.209   3.606  16.406  1.0467 -1.0755 -0.1395
 3470TIP3   OH231824   2.476   5.077  13.986  0.0297  0.2241  0.8991
 3470TIP3    H131825   2.457   5.042  13.899 -0.9969  0.2610  1.1004
 3470TIP3    H231826   2.516   5.162  13.969  0.1100  0.1023  0.4626
 3471TIP3   OH231827   3.249   5.735  14.808 -0.7116  0.1574  0.0356
 3471TIP3    H131828   3.325   5.678  14.815 -0.7781  0.0575 -0.0661
 3471TIP3    H231829   3.234   5.745  14.714  0.6190  2.0825 -0.0153
 3472TIP3   OH231830   3.436   5.665   0.722  0.2823  0.3134  0.0638
 3472TIP3    H131831   3.398   5.747   0.690 -0.0352 -0.6390 -2.0817
 3472TIP3    H231832   3.500   5.692   0.787 -0.6381  2.2041  0.2257
 3473TIP3   OH231833   6.746   0.980  11.903  0.3404 -1.1099  0.3383
 3473TIP3    H131834   6.777   0.941  11.985  1.9801 -2.2022 -0.7794
 3473TIP3    H231835   6.742   1.074  11.922 -0.4062 -1.4539  2.0129
 3474TIP3   OH231836   1.000   2.048  16.107 -0.0844  0.0702 -0.2491
 3474TIP3    H131837   1.031   2.106  16.038 -0.5102  2.1814  1.2991
 3474TIP3    H231838   1.056   1.970  16.100  0.4716  0.6390 -2.3619
 3475TIP3   OH231839   1.020   1.264  16.161  0.3197  0.3166  0.0944
 3475TIP3    H131840   1.050   1.178  16.133  2.6452  1.1833 -0.1778
 3475TIP3    H231841   0.973   1.299  16.085 -0.4507 -0.6335  0.1365
 3476TIP3   OH231842   3.147   5.280  14.475 -0.2700  0.4721 -0.0577
 3476TIP3    H131843   3.084   5.256  14.543 -1.2887  2.0690 -0.3964
 3476TIP3    H231844   3.093   5.300  14.399  0.6676  1.5976 -0.4380
 3477TIP3   OH231845   4.591   3.823   1.887 -0.5196 -0.0222 -0.0724
 3477TIP3    H131846   4.515   3.807   1.943 -0.3659  0.8167  0.3825
 3477TIP3    H231847   4.554   3.840   1.800 -0.7126 -2.4607 -0.5164
 3478TIP3   OH231848   1.897   2.332   2.992  0.0065  0.0540  0.3938
 3478TIP3    H131849   1.947   2.402   2.949  0.3103 -0.4821 -0.1307
 3478TIP3    H231850   1.954   2.303   3.063 -0.0135  0.1671  0.4568
 3479TIP3   OH231851   2.137   6.372  16.501  0.1511 -0.0148  0.0832
 3479TIP3    H131852   2.170   6.421  16.426 -1.4329  2.6586  1.0521
 3479TIP3    H231853   2.052   6.340  16.473 -0.0659  0.2591  0.4138
 3480TIP3   OH231854   1.590   3.762  16.028  0.8010 -0.0786  0.3755
 3480TIP3    H131855   1.626   3.732  15.944 -1.2024  2.5723 -1.5399
 3480TIP3    H231856   1.522   3.698  16.049  3.1544 -2.3166  1.4744
 3481TIP3   OH231857   3.458   5.925   5.246 -0.1089 -0.5940 -0.5061
 3481TIP3    H131858   3.461   6.020   5.256 -1.7170 -0.3833 -1.8920
 3481TIP3    H231859   3.440   5.893   5.334 -2.8999  0.6008 -0.5816
 3482TIP3   OH231860   2.965   4.645   6.656  0.0475  0.0390  0.9738
 3482TIP3    H131861   2.949   4.568   6.602  1.1359  1.0384 -0.8148
 3482TIP3    H231862   3.031   4.617   6.719  1.1572 -0.2322 -0.2935
 3483TIP3   OH231863   4.449   6.622   3.061 -0.3675 -0.2641  0.0164
 3483TIP3    H131864   4.439   6.587   3.150  1.2172 -0.1878  0.2325
 3483TIP3    H231865   4.365   6.664   3.043 -0.8551 -0.6439  1.3172
 3484TIP3   OH231866   0.928   5.281   4.303 -0.0873  0.2169  0.3167
 3484TIP3    H131867   0.934   5.265   4.209 -0.5385 -0.4418  0.3922
 3484TIP3    H231868   0.959   5.200   4.343 -3.3721 -0.9215  0.7206
 3485TIP3   OH231869   3.985   6.072   5.550 -0.0042  0.1174 -0.0443
 3485TIP3    H131870   4.051   6.008   5.575 -0.5725 -0.9477 -1.1994
 3485TIP3    H231871   3.972   6.058   5.456 -0.9994  1.1142 -0.0745
 3486TIP3   OH231872   1.919   3.545  15.164 -0.0521  0.2509 -0.6391
 3486TIP3    H131873   1.831   3.580  15.149  0.2454  1.4195  0.2766
 3486TIP3    H231874   1.973   3.585  15.097  0.4181  2.0983  0.8084
 3487TIP3   OH231875   0.768   0.651  16.643 -0.2466 -0.4214  0.0650
 3487TIP3    H131876   0.854   0.627  16.678  0.1022  0.3510 -0.2550
 3487TIP3    H231877   0.718   0.677  16.720 -0.2681 -1.0883  0.2817
 3488TIP3   OH231878   5.889   4.825   2.980  0.3564 -0.1111 -0.3761
 3488TIP3    H131879   5.926   4.835   2.893  0.3065 -1.0494 -0.5091
 3488TIP3    H231880   5.899   4.732   3.000 -1.6031 -0.3196 -0.2849
 3489TIP3   OH231881   3.203   0.365  16.384 -0.2520  0.7925 -0.3193
 3489TIP3    H131882   3.278   0.306  16.375  0.3946  1.4422  0.6592
 3489TIP3    H231883   3.159   0.361  16.299  0.8041  0.2708 -0.8552
 3490TIP3   OH231884   5.563   4.305  12.076 -0.5650  0.6123 -0.1518
 3490TIP3    H131885   5.501   4.262  12.136 -0.5231 -0.5158 -0.8992
 3490TIP3    H231886   5.639   4.325  12.130 -1.9345  2.8372  0.9888
 3491TIP3   OH231887   5.743   6.575   1.013  0.2164  0.8945  0.1004
 3491TIP3    H131888   5.717   6.576   0.921 -0.4502  0.2685  0.2837
 3491TIP3    H231889   5.701   6.497   1.049  2.3228 -0.1387  0.3966
 3492TIP3   OH231890   1.115   2.473  16.082 -0.1575 -0.3693 -0.3692
 3492TIP3    H131891   1.123   2.531  16.157 -2.9045 -0.9497  0.4185
 3492TIP3    H231892   1.158   2.392  16.110  0.0917 -0.1033  0.0227
 3493TIP3   OH231893   4.146   6.786  15.865 -0.3305 -0.1198 -0.5990
 3493TIP3    H131894   4.091   6.795  15.787 -0.6179  1.0168 -0.2759
 3493TIP3    H231895   4.235   6.779  15.830 -0.6179 -1.4885 -1.1024
 3494TIP3   OH231896   4.699   4.404  14.824  0.0395 -0.3357 -0.1145
 3494TIP3    H131897   4.685   4.316  14.861 -0.7597 -0.5329 -0.8879
 3494TIP3    H231898   4.780   4.434  14.865  0.0259 -1.2189  0.5680
 3495TIP3   OH231899   4.032   3.749  15.987  0.1128 -0.2120  0.1842
 3495TIP3    H131900   4.071   3.662  15.977 -2.2782 -1.2890 -0.0364
 3495TIP3    H231901   3.942   3.739  15.957 -0.1976  2.3687  0.1096
 3496TIP3   OH231902   5.149   3.380   6.105 -0.5592 -0.3443 -0.3125
 3496TIP3    H131903   5.172   3.402   6.196  0.5093 -1.2621 -0.3449
 3496TIP3    H231904   5.144   3.284   6.105  0.8427 -0.4312 -1.5490
 3497TIP3   OH231905   1.222   5.327   0.245 -0.1306  0.1722  0.0242
 3497TIP3    H131906   1.264   5.413   0.247 -1.4682  0.8379  0.0528
 3497TIP3    H231907   1.294   5.265   0.257  0.6352  1.3607  1.8626
 3498TIP3   OH231908   5.915   1.102   2.007  0.7041  0.0993  0.3291
 3498TIP3    H131909   5.902   1.115   1.913  1.0917  2.4072  0.5809
 3498TIP3    H231910   5.926   1.007   2.016  0.4230 -0.1824 -1.9159
 3499TIP3   OH231911   1.667   2.150  13.355  0.1668  0.4309 -0.1203
 3499TIP3    H131912   1.656   2.120  13.445  0.6407  0.5949 -0.0036
 3499TIP3    H231913   1.626   2.236  13.353 -2.1325 -0.6645 -0.7252
 3500TIP3   OH231914   3.495   2.308   5.893 -0.2438 -0.6500 -0.2000
 3500TIP3    H131915   3.433   2.254   5.942 -0.2989  0.0267  0.4708
 3500TIP3    H231916   3.573   2.309   5.947 -0.6482  0.9388  0.3556
 3501TIP3   OH231917   4.085   3.227   4.379  0.1400  0.0343  1.1170
 3501TIP3    H131918   4.027   3.233   4.454  2.3509 -1.3831  3.0336
 3501TIP3    H231919   4.057   3.148   4.332  1.2142 -1.3752  2.7422
 3502TIP3   OH231920   3.591   2.393   1.125 -0.3595 -0.3028 -0.1045
 3502TIP3    H131921   3.642   2.457   1.175 -1.3850  0.0685  0.4745
 3502TIP3    H231922   3.521   2.367   1.184 -2.3780  1.1198 -1.8081
 3503TIP3   OH231923   5.625   2.197   2.720  0.1208  0.5717 -0.2029
 3503TIP3    H131924   5.640   2.286   2.688  0.2261  0.1340 -1.4124
 3503TIP3    H231925   5.700   2.147   2.687  0.6630  0.2759  1.4608
 3504TIP3   OH231926   5.441   0.029  12.970 -0.3459  0.4173 -0.2788
 3504TIP3    H131927   5.436   0.125  12.962 -4.6756  0.2449 -0.7775
 3504TIP3    H231928   5.359   0.004  13.012  0.9225 -3.0772  0.2622
 3505TIP3   OH231929   5.799   1.467   3.664  0.8578 -0.0408 -0.1838
 3505TIP3    H131930   5.793   1.521   3.742  1.6101  1.5217 -1.1960
 3505TIP3    H231931   5.708   1.459   3.633  0.6471 -0.0898  0.4408
 3506TIP3   OH231932   2.014   0.639   4.226  0.1092 -0.1913  0.5806
 3506TIP3    H131933   2.062   0.692   4.290  2.6573 -0.4347 -1.0738
 3506TIP3    H231934   2.048   0.551   4.238 -1.0001 -0.6515  0.3707
 3507TIP3   OH231935   1.697   3.253   5.756 -0.3227  0.3578  0.5891
 3507TIP3    H131936   1.652   3.188   5.809 -1.9926  1.8648  1.0515
 3507TIP3    H231937   1.684   3.335   5.802  2.2162  0.9796  0.2815
 3508TIP3   OH231938   2.056   5.300  13.586  0.2224  0.0554 -0.1637
 3508TIP3    H131939   2.131   5.346  13.625  0.1863 -0.1103  0.0964
 3508TIP3    H231940   2.095   5.234  13.530  0.2947  1.3169 -1.6414
 3509TIP3   OH231941   6.410   4.558  15.311  0.0675 -0.5139 -0.5279
 3509TIP3    H131942   6.316   4.571  15.305  0.0709 -0.6919 -0.9553
 3509TIP3    H231943   6.429   4.561  15.405 -0.0584  1.6965 -0.5476
 3510TIP3   OH231944   1.108   0.955  16.115  0.7909  0.4139  0.8331
 3510TIP3    H131945   1.021   0.975  16.081  0.3961 -2.2796  0.1636
 3510TIP3    H231946   1.158   0.926  16.038  1.9322  0.8090  1.4110
 3511TIP3   OH231947   2.762   3.310   6.222  0.2383 -0.0008 -0.4179
 3511TIP3    H131948   2.696   3.248   6.192  0.0758 -0.8256  1.5666
 3511TIP3    H231949   2.746   3.390   6.171 -1.0905 -0.7956 -1.2557
 3512TIP3   OH231950   6.575   2.162  15.731 -0.1789  0.1953 -0.0928
 3512TIP3    H131951   6.585   2.214  15.811 -0.2386  0.9164 -0.5515
 3512TIP3    H231952   6.530   2.220  15.670  2.0613  0.5204 -1.4929
 3513TIP3   OH231953   0.850   2.757   5.216 -0.0965  0.7288 -0.5760
 3513TIP3    H131954   0.893   2.782   5.297 -1.1269  0.6689 -0.0056
 3513TIP3    H231955   0.786   2.826   5.200 -0.9839 -0.0572 -0.4973
 3514TIP3   OH231956   5.724   0.142  14.766  0.1963 -0.1428 -1.3063
 3514TIP3    H131957   5.727   0.157  14.672  1.4262 -2.4468 -1.6629
 3514TIP3    H231958   5.793   0.078  14.783  1.1942  1.5662  1.4430
 3515TIP3   OH231959   5.146   4.464   4.559 -0.2578  0.1645 -0.1370
 3515TIP3    H131960   5.102   4.396   4.508  0.3913  0.5456 -1.2366
 3515TIP3    H231961   5.210   4.417   4.613 -1.0835 -0.2620  0.4758
 3516TIP3   OH231962   1.716   3.186   1.662 -0.1707  0.2287 -0.0259
 3516TIP3    H131963   1.790   3.238   1.632 -0.1159  0.5382  0.6596
 3516TIP3    H231964   1.668   3.166   1.581  0.9685 -0.4706 -0.5476
 3517TIP3   OH231965   5.190   2.070  13.809 -0.3023  0.0119 -0.3025
 3517TIP3    H131966   5.177   2.154  13.854 -0.4105  0.8660 -1.8817
 3517TIP3    H231967   5.261   2.088  13.747  0.6187 -1.4589  0.2989
 3518TIP3   OH231968   3.871   2.353  16.109 -0.0275  0.4807 -0.2478
 3518TIP3    H131969   3.804   2.403  16.156  0.3665  0.9967 -0.2301
 3518TIP3    H231970   3.900   2.412  16.039  0.4051  0.2623 -0.2564
 3519TIP3   OH231971   3.980   4.822   0.622 -0.1954 -0.0513  0.2999
 3519TIP3    H131972   4.063   4.795   0.662 -0.3695 -1.7417 -0.4607
 3519TIP3    H231973   4.006   4.882   0.552  0.3022  0.4131  0.8696
 3520TIP3   OH231974   2.916   0.398  15.923 -0.4232  0.4338 -0.5884
 3520TIP3    H131975   2.879   0.403  15.835 -3.8074  0.7293  0.7873
 3520TIP3    H231976   2.917   0.488  15.954  1.2071  0.3877 -0.4602
 3521TIP3   OH231977   1.436   2.977   2.212  0.5670 -0.5618  0.0596
 3521TIP3    H131978   1.525   3.003   2.190  0.5099 -1.0808 -0.8180
 3521TIP3    H231979   1.446   2.890   2.252  0.6047  0.0880  1.5145
 3522TIP3   OH231980   5.713   0.395   2.925  0.1605 -0.2148  0.3791
 3522TIP3    H131981   5.679   0.309   2.904 -1.6822  0.4208  0.6711
 3522TIP3    H231982   5.747   0.429   2.842  1.0951 -1.2904  0.3124
 3523TIP3   OH231983   0.612   2.068  12.501  0.1522 -0.0064 -0.4969
 3523TIP3    H131984   0.701   2.091  12.528 -0.2841 -1.3598  2.2771
 3523TIP3    H231985   0.621   1.982  12.459  0.1853 -0.0232 -0.4551
 3524TIP3   OH231986   3.581   5.229   4.620  0.3055  0.3854  0.2371
 3524TIP3    H131987   3.539   5.147   4.646 -0.8547  0.6311 -0.8252
 3524TIP3    H231988   3.635   5.253   4.695  0.7561 -1.4146  0.5165
 3525TIP3   OH231989   3.972   0.292  13.314  0.5792  0.6146 -0.2014
 3525TIP3    H131990   3.995   0.201  13.295  0.6787  0.6591 -0.2971
 3525TIP3    H231991   4.056   0.339  13.313  0.6082  0.5743  0.5809
 3526TIP3   OH231992   5.592   3.658  12.495 -0.5241  0.1348  0.5968
 3526TIP3    H131993   5.657   3.664  12.425  0.1737  3.2034  1.4428
 3526TIP3    H231994   5.508   3.665  12.450 -0.1060  1.2950 -0.0300
 3527TIP3   OH231995   1.226   5.699  16.359  0.0581 -0.4443  0.4756
 3527TIP3    H131996   1.230   5.750  16.278 -0.2466 -0.9162  0.1537
 3527TIP3    H231997   1.316   5.699  16.393  0.6969 -2.1894 -1.0926
 3528TIP3   OH231998   2.329   0.667  15.187 -0.3038 -0.1562 -0.0797
 3528TIP3    H131999   2.315   0.579  15.223 -2.0070  0.0555 -0.1888
 3528TIP3    H232000   2.267   0.673  15.115  0.1826  0.9514 -0.4141
 3529TIP3   OH232001   3.771   1.973  15.666  0.4396  0.3258  0.1703
 3529TIP3    H132002   3.741   1.936  15.583 -1.9930  1.2004  0.6098
 3529TIP3    H232003   3.743   1.910  15.732  1.4282  0.1488  0.4312
 3530TIP3   OH232004   2.635   5.437  11.959  0.4629  0.0433  0.2992
 3530TIP3    H132005   2.686   5.377  12.014 -0.1015  0.1169  0.9035
 3530TIP3    H232006   2.688   5.447  11.880  1.5432  0.3632  1.0512
 3531TIP3   OH232007   0.981   5.511  13.676 -0.1972 -0.8513  0.5744
 3531TIP3    H132008   0.899   5.475  13.644  1.4630 -3.2841 -1.1025
 3531TIP3    H232009   0.977   5.500  13.771 -1.9130 -0.6204  0.5464
 3532TIP3   OH232010   3.569   5.749  13.505  0.0400 -0.7259  0.2962
 3532TIP3    H132011   3.575   5.742  13.409 -1.6491 -2.2136  0.2727
 3532TIP3    H232012   3.508   5.821  13.520 -0.2094 -0.9193  0.2271
 3533TIP3   OH232013   6.207   0.860   4.849  0.0951 -0.1737  0.5632
 3533TIP3    H132014   6.277   0.891   4.907  1.2519 -1.7511  0.0602
 3533TIP3    H232015   6.205   0.765   4.864 -1.7043 -0.1816  0.3062
 3534TIP3   OH232016   5.924   3.267   5.044 -0.3010 -0.0823  0.5482
 3534TIP3    H132017   5.920   3.245   4.951  0.6460 -1.5060  0.8394
 3534TIP3    H232018   5.920   3.363   5.046  0.2444 -0.0198 -0.9829
 3535TIP3   OH232019   0.986   4.427  15.247  0.1164  0.0840  0.3272
 3535TIP3    H132020   0.936   4.378  15.312 -0.5914  0.8427  0.3568
 3535TIP3    H232021   0.998   4.514  15.285  0.6394  0.1990 -0.0861
 3536TIP3   OH232022   5.736   1.548   0.128 -0.1455 -0.3108 -0.0628
 3536TIP3    H132023   5.721   1.521   0.037 -1.4293  0.9676 -0.2465
 3536TIP3    H232024   5.830   1.567   0.131 -0.2986  0.8374 -1.4781
 3537TIP3   OH232025   5.615   3.255  11.297  0.3725  0.3185  0.1669
 3537TIP3    H132026   5.583   3.309  11.226  1.3750  0.3644 -0.2689
 3537TIP3    H232027   5.606   3.165  11.265  3.6061  0.4222 -1.2982
 3538TIP3   OH232028   3.895   3.721   2.769 -0.2568 -0.1690  0.3487
 3538TIP3    H132029   3.850   3.804   2.755 -0.2104 -0.3362 -0.8453
 3538TIP3    H232030   3.955   3.714   2.695 -0.7639 -1.5975  0.0631
 3539TIP3   OH232031   1.633   1.735   3.153 -0.2294 -0.1544  0.0271
 3539TIP3    H132032   1.603   1.685   3.229  1.3639 -0.3597  0.5369
 3539TIP3    H232033   1.714   1.777   3.182 -0.2678  0.7730 -1.1669
 3540TIP3   OH232034   6.261   3.789  14.302 -0.0065  0.2937  0.2900
 3540TIP3    H132035   6.179   3.820  14.265  0.5551  0.2834 -1.0244
 3540TIP3    H232036   6.244   3.698  14.325  0.1575 -0.2672 -1.7170
 3541TIP3   OH232037   6.082   3.144  11.705  0.5015  0.4511  0.1277
 3541TIP3    H132038   6.127   3.168  11.623  0.1164 -1.0883 -0.5531
 3541TIP3    H232039   6.035   3.063  11.683  0.2571  0.1249  1.8348
 3542TIP3   OH232040   1.706   0.104   0.805 -0.1909  0.0099 -0.3956
 3542TIP3    H132041   1.655   0.066   0.733  0.9562  1.1584 -1.8408
 3542TIP3    H232042   1.644   0.160   0.851 -0.5281  0.5222 -1.4545
 3543TIP3   OH232043   6.258   2.690   0.548  0.0330 -0.2768  0.3284
 3543TIP3    H132044   6.235   2.627   0.479  0.1115 -0.7730  0.7515
 3543TIP3    H232045   6.178   2.699   0.600  0.2828 -0.7169  0.7984
 3544TIP3   OH232046   1.122   3.826  14.728 -0.0884 -0.6578  0.9309
 3544TIP3    H132047   1.062   3.859  14.796 -2.4409  0.4681 -1.6166
 3544TIP3    H232048   1.186   3.896  14.717 -1.0050  0.1122  0.4367
 3545TIP3   OH232049   6.468   4.043  12.642  0.3085  0.5202  0.1371
 3545TIP3    H132050   6.435   4.129  12.669  1.6918  1.5465 -1.3964
 3545TIP3    H232051   6.405   4.013  12.577 -0.6111 -0.0092  1.2401
 3546TIP3   OH232052   2.642   3.797  14.680  0.3201 -0.1251  0.1022
 3546TIP3    H132053   2.558   3.825  14.643  1.2279  1.8432 -0.5253
 3546TIP3    H232054   2.662   3.863  14.746  1.5430 -0.3886  0.0021
 3547TIP3   OH232055   0.134   4.367  16.957 -0.0480  0.0036  0.2375
 3547TIP3    H132056   0.089   4.375  17.041 -1.5010 -0.4863 -0.4848
 3547TIP3    H232057   0.217   4.324  16.979 -1.6180 -2.7290  1.0616
 3548TIP3   OH232058   3.077   1.444   2.922  0.0248 -0.1378 -0.1488
 3548TIP3    H132059   3.143   1.391   2.879 -0.1821 -0.7686  0.3044
 3548TIP3    H232060   2.999   1.435   2.868 -0.8656 -2.6570  1.4789
 3549TIP3   OH232061   6.449   6.445  17.183 -0.6151 -0.2581 -0.7797
 3549TIP3    H132062   6.450   6.540  17.197 -0.7081 -0.1628 -1.3808
 3549TIP3    H232063   6.418   6.409  17.266 -3.7345  0.4446 -1.5814
 3550TIP3   OH232064   6.718   0.576  13.464 -0.4491 -0.2218  0.4454
 3550TIP3    H132065   6.808   0.562  13.491 -0.3134 -0.1053  0.0566
 3550TIP3    H232066   6.719   0.569  13.368 -0.7167  0.4949  0.3844
 3551TIP3   OH232067   5.978   4.547   4.732  0.3724 -0.3163 -0.7085
 3551TIP3    H132068   5.917   4.597   4.679 -0.2129  0.8162  0.9797
 3551TIP3    H232069   6.061   4.554   4.685  0.2961  2.2170 -0.5781
 3552TIP3   OH232070   0.515   4.965   5.678 -0.2011 -0.0364  0.1400
 3552TIP3    H132071   0.475   4.913   5.608  0.8352  0.4579 -0.8536
 3552TIP3    H232072   0.531   4.903   5.748 -0.1222 -0.8151 -0.5558
 3553TIP3   OH232073   0.144   2.427   1.020 -0.0633 -0.2334  0.7049
 3553TIP3    H132074   0.165   2.490   0.951  1.5685  1.1726  2.4168
 3553TIP3    H232075   0.212   2.441   1.087  1.2025 -4.7492  0.5554
 3554TIP3   OH232076   6.298   0.822  15.817 -0.0871 -0.3914  0.0396
 3554TIP3    H132077   6.286   0.882  15.890  2.7165  0.8141 -0.4309
 3554TIP3    H232078   6.342   0.745  15.854 -0.2776 -0.5482 -0.0547
 3555TIP3   OH232079   3.593   1.601   2.951  0.6121  0.2636  0.0882
 3555TIP3    H132080   3.634   1.604   3.037 -1.2040  1.8382  0.9254
 3555TIP3    H232081   3.641   1.533   2.904  0.9607 -1.3532  2.6985
 3556TIP3   OH232082   1.828   5.348  16.795  0.2896 -0.1536  0.6491
 3556TIP3    H132083   1.799   5.432  16.831  1.7900  0.3057  0.8235
 3556TIP3    H232084   1.864   5.370  16.709 -0.1018 -0.7388  0.3408
 3557TIP3   OH232085   5.289   0.342  17.014 -0.7693 -0.0761  0.1180
 3557TIP3    H132086   5.266   0.276  17.079 -1.1110  0.6643  0.7725
 3557TIP3    H232087   5.205   0.380  16.988 -0.5538  0.3306  0.0020
 3558TIP3   OH232088   6.437   6.660  11.642  0.4084 -0.1393 -0.2856
 3558TIP3    H132089   6.384   6.587  11.675  0.2773 -0.6948 -1.7048
 3558TIP3    H232090   6.411   6.670  11.551  1.9398  0.3304 -0.6878
 3559TIP3   OH232091   5.961   2.647   1.342 -0.2987  0.8460  0.6845
 3559TIP3    H132092   5.996   2.620   1.258 -1.4115  0.2338  0.4040
 3559TIP3    H232093   6.034   2.690   1.386  0.7527 -0.2747  0.0633
 3560TIP3   OH232094   6.160   2.742   3.864  0.0991  0.1980 -0.4669
 3560TIP3    H132095   6.150   2.834   3.840  0.6719 -0.0479 -1.6926
 3560TIP3    H232096   6.238   2.739   3.919 -0.0887  0.4926 -0.1870
 3561TIP3   OH232097   6.505   3.988   1.006  0.4605 -0.3769  0.4823
 3561TIP3    H132098   6.434   4.045   1.034  0.2905 -0.3602  0.0261
 3561TIP3    H232099   6.576   4.048   0.983  0.2533 -0.3376 -0.0758
 3562TIP3   OH232100   2.541   4.573   2.101  0.1358  0.0926  0.4226
 3562TIP3    H132101   2.584   4.650   2.064  0.0244  0.4426  1.0173
 3562TIP3    H232102   2.464   4.607   2.146 -1.4322 -0.6466 -1.6097
 3563TIP3   OH232103   4.306   2.998  10.524  0.3700  0.2037 -0.4050
 3563TIP3    H132104   4.280   3.075  10.472  1.6765  1.8763  1.3459
 3563TIP3    H232105   4.224   2.953  10.543 -0.5387  1.7584 -0.5665
 3564TIP3   OH232106   3.326   1.544  12.340  0.6178 -0.4485  0.4261
 3564TIP3    H132107   3.379   1.536  12.261  1.6079  0.7987  0.9518
 3564TIP3    H232108   3.292   1.633  12.338 -0.7080 -0.9403  0.5701
 3565TIP3   OH232109   2.475   1.733  13.667 -0.3438  0.2366 -0.1200
 3565TIP3    H132110   2.493   1.820  13.632  3.1058 -1.2583 -2.3322
 3565TIP3    H232111   2.559   1.704  13.703 -1.8152 -1.5962  1.9183
 3566TIP3   OH232112   2.407   5.768  15.243  0.4504  0.5207  0.1531
 3566TIP3    H132113   2.358   5.688  15.261  1.1999  0.6390  2.9319
 3566TIP3    H232114   2.482   5.738  15.191 -0.7095 -0.1307 -1.2203
 3567TIP3   OH232115   5.150   6.212  16.656  0.0396  0.2618  0.1415
 3567TIP3    H132116   5.238   6.240  16.631  0.8391 -1.7436  0.6108
 3567TIP3    H232117   5.117   6.281  16.713  1.3618  0.9471  0.0771
 3568TIP3   OH232118   0.540   6.608  12.001 -0.2176  0.2129 -0.4925
 3568TIP3    H132119   0.463   6.653  12.037  0.5193  1.0356  0.0700
 3568TIP3    H232120   0.549   6.645  11.913 -0.0895  0.5976 -0.3224
 3569TIP3   OH232121   4.899   2.549  16.550  0.4623 -0.6329 -0.9413
 3569TIP3    H132122   4.949   2.476  16.587 -0.8840 -2.1781 -2.0643
 3569TIP3    H232123   4.848   2.583  16.623  0.9154 -0.9689 -0.4637
 3570TIP3   OH232124   4.000   4.326   3.539  0.4845  0.3787 -0.3648
 3570TIP3    H132125   4.088   4.361   3.537  0.2018  1.0971 -0.3399
 3570TIP3    H232126   3.946   4.397   3.575 -0.1756  0.1239 -0.8275
 3571TIP3   OH232127   6.089   2.115   4.680  0.6046  0.0977  0.0499
 3571TIP3    H132128   6.097   2.153   4.593  0.0444 -1.8808 -0.9065
 3571TIP3    H232129   6.160   2.154   4.731  1.8233  0.2014 -1.7077
 3572TIP3   OH232130   1.260   4.551  12.687  0.3073 -0.6739 -0.3506
 3572TIP3    H132131   1.277   4.490  12.616  0.2832 -0.8341 -0.2197
 3572TIP3    H232132   1.330   4.536  12.750  0.9957  0.2841 -0.8727
 3573TIP3   OH232133   3.262   0.822   5.161  0.1949 -0.0604  0.1003
 3573TIP3    H132134   3.342   0.836   5.110  0.9753 -0.6346  1.1640
 3573TIP3    H232135   3.292   0.817   5.251 -1.0997  0.1420  0.5466
 3574TIP3   OH232136   2.301   1.897   2.582 -0.4662  0.2400  0.2647
 3574TIP3    H132137   2.335   1.908   2.671  0.7337  1.0321 -0.2711
 3574TIP3    H232138   2.272   1.806   2.578  2.8421 -0.8766  0.3341
 3575TIP3   OH232139   1.560   0.828  12.234  0.1390  0.2177 -0.2570
 3575TIP3    H132140   1.508   0.810  12.155 -0.2114 -1.5626  0.3582
 3575TIP3    H232141   1.520   0.908  12.271  0.7169  1.4481 -2.2013
 3576TIP3   OH232142   6.421   2.868  16.896 -0.1126 -0.4550  0.1239
 3576TIP3    H132143   6.486   2.878  16.828 -0.4308 -1.2802 -0.3055
 3576TIP3    H232144   6.457   2.915  16.971  1.5097 -1.9017  0.2633
 3577TIP3   OH232145   1.473   0.975   5.781  0.3039  0.0848  0.7874
 3577TIP3    H132146   1.569   0.969   5.785  0.3868  1.3333  0.9756
 3577TIP3    H232147   1.444   0.949   5.868  0.4812 -0.1918  0.7636
 3578TIP3   OH232148   3.206   3.088  11.247 -0.0074 -0.4880  0.1309
 3578TIP3    H132149   3.119   3.106  11.282 -0.2366 -0.1297 -0.6265
 3578TIP3    H232150   3.264   3.097  11.323 -0.4608  0.6213  0.3558
 3579TIP3   OH232151   5.211   2.437   5.792 -0.0333  0.2999 -0.2137
 3579TIP3    H132152   5.204   2.515   5.846 -0.5723  0.1463 -0.0594
 3579TIP3    H232153   5.274   2.382   5.838 -0.0104  0.4434 -0.0728
 3580TIP3   OH232154   3.107   2.542  11.589  0.1342 -0.2437 -0.6475
 3580TIP3    H132155   3.154   2.461  11.610  0.6660 -0.2946 -1.9511
 3580TIP3    H232156   3.060   2.522  11.508  1.0730  1.0496 -1.5252
 3581TIP3   OH232157   5.884   1.707   4.111  0.1058  0.2885 -0.8623
 3581TIP3    H132158   5.908   1.615   4.118  0.5781  0.5007  0.4680
 3581TIP3    H232159   5.946   1.752   4.169  0.2702  1.5055 -1.9629
 3582TIP3   OH232160   2.009   1.478  11.546 -0.0480 -0.0766  0.4025
 3582TIP3    H132161   2.072   1.411  11.519 -0.2607 -0.9190  1.9203
 3582TIP3    H232162   1.939   1.428  11.589 -0.5980  1.0594  0.8265
 3583TIP3   OH232163   1.494   5.785   3.717  0.3907 -0.4381  0.8556
 3583TIP3    H132164   1.527   5.803   3.629 -0.7498 -4.8775 -0.5978
 3583TIP3    H232165   1.565   5.814   3.775  3.5101 -2.3144 -1.7928
 3584TIP3   OH232166   1.378   2.329  13.615 -0.4407 -0.1207  0.3500
 3584TIP3    H132167   1.351   2.293  13.700 -1.1114 -2.0522 -0.6510
 3584TIP3    H232168   1.470   2.353  13.627 -0.9509  1.0572  2.0659
 3585TIP3   OH232169   0.838   3.979   3.938 -0.2655 -0.3776  0.1750
 3585TIP3    H132170   0.868   3.911   3.878 -0.3086 -0.8378  0.6728
 3585TIP3    H232171   0.766   4.022   3.891 -0.5410 -0.9747  0.0454
 3586TIP3   OH232172   3.723   0.198  12.074  0.0864 -0.0357  0.3454
 3586TIP3    H132173   3.740   0.195  11.980 -0.6450  0.2617  0.2027
 3586TIP3    H232174   3.806   0.172  12.114 -0.2046 -2.2240 -0.4165
 3587TIP3   OH232175   0.423   0.981  16.659 -0.1762  0.7766  0.4728
 3587TIP3    H132176   0.436   1.023  16.743  0.1736 -0.9494  1.2992
 3587TIP3    H232177   0.365   1.041  16.611  0.6681  2.3920  1.4352
 3588TIP3   OH232178   1.945   2.365  11.888 -0.0474 -0.4960  0.9182
 3588TIP3    H132179   2.008   2.424  11.931  0.2780 -1.4612  1.7787
 3588TIP3    H232180   1.941   2.397  11.798  2.4514 -1.0289  0.5870
 3589TIP3   OH232181   1.172   3.599  12.373  0.2545 -0.2208 -1.0432
 3589TIP3    H132182   1.083   3.629  12.392 -0.1722 -0.5830 -2.3850
 3589TIP3    H232183   1.174   3.509  12.404 -0.7218 -1.1064 -3.4369
 3590TIP3   OH232184   6.501   4.897   0.418 -0.4193  0.2773  0.1352
 3590TIP3    H132185   6.424   4.842   0.404 -0.5977  0.3062  0.9728
 3590TIP3    H232186   6.543   4.860   0.496  1.2717 -0.7020 -1.1932
 3591TIP3   OH232187   5.528   4.425  15.641 -0.0905  0.1598 -0.3117
 3591TIP3    H132188   5.501   4.339  15.675  1.0396  0.0264  0.2794
 3591TIP3    H232189   5.446   4.473  15.630 -0.8128 -1.3295 -1.5730
 3592TIP3   OH232190   6.312   3.813  13.334  0.1923 -0.3459  0.2156
 3592TIP3    H132191   6.307   3.823  13.429  0.2948  1.2997  0.0640
 3592TIP3    H232192   6.400   3.843  13.310 -0.4993  1.1478 -0.5843
 3593TIP3   OH232193   2.407   3.181  11.444 -0.4896  0.2321 -0.4387
 3593TIP3    H132194   2.369   3.093  11.444  1.1761 -0.5155  0.7574
 3593TIP3    H232195   2.420   3.201  11.537  1.9604  0.4542 -0.7838
 3594TIP3   OH232196   4.354   1.818  12.752 -0.1805  0.2217 -0.0075
 3594TIP3    H132197   4.440   1.785  12.724 -0.6407 -0.9218 -0.1163
 3594TIP3    H232198   4.323   1.871  12.678  0.2970  0.3925 -0.0872
 3595TIP3   OH232199   6.237   6.183   3.351  0.7057  0.6257  0.1174
 3595TIP3    H132200   6.285   6.197   3.432  0.1571  0.8513  0.4077
 3595TIP3    H232201   6.197   6.097   3.360  2.9817 -0.6084 -1.1127
 3596TIP3   OH232202   6.570   4.062  16.470 -0.5269 -0.0593  0.4032
 3596TIP3    H132203   6.603   3.982  16.429 -0.6879 -1.1764  2.4278
 3596TIP3    H232204   6.476   4.048  16.476 -0.7663  0.9790 -0.6943
 3597TIP3   OH232205   3.862   5.713  11.756  0.1402 -0.5905  0.2697
 3597TIP3    H132206   3.890   5.776  11.823  0.1634 -0.9805  0.6285
 3597TIP3    H232207   3.831   5.637  11.806  1.3060 -1.3802 -0.1858
 3598TIP3   OH232208   2.772   3.050   0.139 -0.3766  0.0546  0.2606
 3598TIP3    H132209   2.799   3.141   0.149 -0.4255  0.4712 -2.8766
 3598TIP3    H232210   2.693   3.054   0.085 -0.7791 -1.8147  0.6690
 3599TIP3   OH232211   6.754   2.384   2.043  0.1423  0.1613 -0.9214
 3599TIP3    H132212   6.698   2.394   2.120  0.2679 -0.4464 -0.7461
 3599TIP3    H232213   6.840   2.362   2.079  0.2813  0.2117 -1.2228
 3600TIP3   OH232214   6.035   3.024   3.672  0.4723 -0.5155 -0.1856
 3600TIP3    H132215   6.028   3.056   3.582  0.4081  3.4102  1.1179
 3600TIP3    H232216   6.118   3.058   3.704 -1.1415  1.1883  2.3475
 3601TIP3   OH232217   2.763   2.476   4.099 -0.3345  0.3570  0.4792
 3601TIP3    H132218   2.841   2.479   4.043 -0.0230  0.2487  0.8943
 3601TIP3    H232219   2.777   2.546   4.162 -0.7757  0.6064  0.2995
 3602TIP3   OH232220   3.376   2.701  16.052  0.1365  0.4572 -0.6996
 3602TIP3    H132221   3.441   2.656  16.106 -0.8529 -1.0986 -0.7785
 3602TIP3    H232222   3.425   2.771  16.008  1.6594 -0.4432 -0.4459
 3603TIP3   OH232223   5.045   1.044  11.453 -0.1503  0.2743  0.0038
 3603TIP3    H132224   5.134   1.043  11.418  0.7241  2.3303  2.0646
 3603TIP3    H232225   5.053   1.007  11.541 -1.1149  1.6450  0.6833
 3604TIP3   OH232226   1.423   1.507   2.259 -0.6833  0.4594  0.0999
 3604TIP3    H132227   1.330   1.502   2.284 -0.5108 -2.3548  0.4202
 3604TIP3    H232228   1.469   1.513   2.343 -0.6048  3.5043 -0.1172
 3605TIP3   OH232229   6.189   4.787  17.014  0.0549 -0.3215  0.4683
 3605TIP3    H132230   6.126   4.857  17.030 -2.1255 -1.8470 -1.0915
 3605TIP3    H232231   6.149   4.710  17.054 -0.5389 -1.9359 -3.0343
 3606TIP3   OH232232   4.203   4.793   1.496 -0.5030  0.2420  0.0091
 3606TIP3    H132233   4.181   4.834   1.412  1.5461 -0.1608 -0.7501
 3606TIP3    H232234   4.250   4.862   1.543  1.4125 -0.6597 -0.5712
 3607TIP3   OH232235   0.843   6.413  15.144 -0.2305  0.2956 -0.6218
 3607TIP3    H132236   0.856   6.318  15.145 -0.4561  0.2656 -0.5683
 3607TIP3    H232237   0.773   6.427  15.079 -0.7840  0.3530 -0.0180
 3608TIP3   OH232238   1.301   0.573   5.644 -0.3229 -0.0140 -0.2048
 3608TIP3    H132239   1.252   0.493   5.626 -0.8037 -0.1743  1.6723
 3608TIP3    H232240   1.343   0.557   5.728 -0.1693  1.5798  0.0423
 3609TIP3   OH232241   3.476   2.347  11.012 -0.6298 -0.3810  0.1109
 3609TIP3    H132242   3.437   2.417  10.959 -1.6801 -1.8165 -1.0320
 3609TIP3    H232243   3.544   2.392  11.063 -1.9427  1.6655  0.1496
 3610TIP3   OH232244   3.354   0.670  13.100  0.3069  0.4107 -0.1392
 3610TIP3    H132245   3.264   0.673  13.070  0.0146  1.5026  0.8195
 3610TIP3    H232246   3.403   0.723  13.036  0.2258  0.1021 -0.4616
 3611TIP3   OH232247   2.669   3.963   1.843 -0.2802  0.4800 -0.2924
 3611TIP3    H132248   2.761   3.937   1.842 -0.8460 -1.6248  0.5858
 3611TIP3    H232249   2.657   4.003   1.929 -0.7960 -1.6066  0.6320
 3612TIP3   OH232250   3.344   4.573  15.113  0.2329  0.5227  0.3047
 3612TIP3    H132251   3.293   4.625  15.174 -0.3488 -1.1097  1.2518
 3612TIP3    H232252   3.279   4.528  15.059  0.6977  0.0892  0.0984
 3613TIP3   OH232253   4.883   0.094  14.139  1.1708  0.0867  0.1640
 3613TIP3    H132254   4.827   0.028  14.182 -0.4662  1.4287  0.1468
 3613TIP3    H232255   4.944   0.043  14.086 -1.1664 -1.3850 -1.1752
 3614TIP3   OH232256   2.934   5.854   0.137 -0.0390  0.1758  0.5844
 3614TIP3    H132257   2.863   5.907   0.175  1.1188  1.2529  1.2966
 3614TIP3    H232258   2.965   5.799   0.209  0.4597  0.3769  0.5270
 3615TIP3   OH232259   2.275   6.562   2.393  0.1323  0.0393  0.1419
 3615TIP3    H132260   2.366   6.589   2.401  0.7919 -2.0498  0.1220
 3615TIP3    H232261   2.275   6.498   2.321 -1.4403  0.4209 -0.2169
 3616TIP3   OH232262   5.315   3.459  11.556 -0.4221  0.5366  0.2149
 3616TIP3    H132263   5.314   3.397  11.629 -2.5167 -0.3850 -0.5433
 3616TIP3    H232264   5.387   3.518  11.575  0.3144 -0.9015  2.0104
 3617TIP3   OH232265   6.676   3.784  14.447 -0.1875 -0.2654 -0.2776
 3617TIP3    H132266   6.629   3.701  14.456  0.3635 -0.5037  0.5131
 3617TIP3    H232267   6.765   3.763  14.475 -0.5640  1.1143  2.1211
 3618TIP3   OH232268   0.365   4.182   4.588  0.2603 -0.5820  0.0849
 3618TIP3    H132269   0.418   4.152   4.662 -1.0845 -2.5488  0.2979
 3618TIP3    H232270   0.275   4.178   4.620 -0.1827  0.6851 -0.9604
 3619TIP3   OH232271   2.743   2.243  14.556  0.6093 -0.1647  0.4364
 3619TIP3    H132272   2.831   2.244  14.593  0.1522  1.5072  1.5702
 3619TIP3    H232273   2.740   2.321  14.500 -0.2789  0.0260  0.7427
 3620TIP3   OH232274   4.262   5.927  11.520 -0.2261  0.2056  0.4486
 3620TIP3    H132275   4.235   5.875  11.595 -0.6789 -0.8491 -0.4208
 3620TIP3    H232276   4.192   5.913  11.455  0.3696  0.7373 -0.3172
 3621TIP3   OH232277   5.750   1.695  12.348  0.6877 -0.4079  0.6470
 3621TIP3    H132278   5.697   1.770  12.322 -0.5083 -0.0008  3.9734
 3621TIP3    H232279   5.696   1.619  12.327  0.7714 -0.2300 -0.2394
 3622TIP3   OH232280   6.698   6.441  13.738  0.0379  0.0569  0.4726
 3622TIP3    H132281   6.663   6.501  13.803 -0.0110  0.1056  0.4023
 3622TIP3    H232282   6.621   6.394  13.705 -0.4287  2.4568 -2.0389
 3623TIP3   OH232283   3.676   0.713  17.222 -0.1916 -0.1457 -0.2612
 3623TIP3    H132284   3.764   0.676  17.227  0.3653  0.9851 -1.2485
 3623TIP3    H232285   3.627   0.669  17.291  0.9789 -1.2414 -0.1080
 3624TIP3   OH232286   6.387   0.716  14.586 -0.0526 -0.2296 -0.2914
 3624TIP3    H132287   6.348   0.769  14.656 -0.9094 -0.5215 -0.5378
 3624TIP3    H232288   6.317   0.708  14.521  0.1179 -1.5217 -0.3322
 3625TIP3   OH232289   2.585   1.481   1.848 -0.4640  0.0529  0.4618
 3625TIP3    H132290   2.653   1.416   1.867 -1.4555 -1.5685 -1.3993
 3625TIP3    H232291   2.621   1.534   1.778  0.5444  1.9000  2.3064
 3626TIP3   OH232292   2.515   3.222   4.648 -0.2532  0.1502 -0.2824
 3626TIP3    H132293   2.605   3.191   4.645 -0.9894 -2.0105 -1.5787
 3626TIP3    H232294   2.483   3.195   4.734  0.2545  0.6392  0.0583
 3627TIP3   OH232295   6.318   6.075  11.996  0.1173  0.0745  0.0163
 3627TIP3    H132296   6.341   6.035  11.912  0.7835  0.7896 -0.1602
 3627TIP3    H232297   6.324   6.169  11.979 -1.3950  0.2474  0.4224
 3628TIP3   OH232298   5.341   6.372  16.476 -0.2495 -0.0832  0.4300
 3628TIP3    H132299   5.373   6.311  16.409  1.6325  0.3439  0.8881
 3628TIP3    H232300   5.252   6.394  16.449  0.4415  0.0316 -1.8774
 3629TIP3   OH232301   2.667   3.102  11.281 -0.0296  0.1859  0.2856
 3629TIP3    H132302   2.619   3.082  11.200  0.2582  1.6214 -0.2556
 3629TIP3    H232303   2.609   3.072  11.351 -0.3333 -0.9577 -0.4453
 3630TIP3   OH232304   2.817   4.194   2.003  0.2277 -0.1700  0.2036
 3630TIP3    H132305   2.890   4.140   1.975  0.0471 -0.4981  0.3631
 3630TIP3    H232306   2.770   4.140   2.067 -0.6731 -0.3107 -0.5745
 3631TIP3   OH232307   3.935   4.658  12.511  0.5038  0.2286 -0.4660
 3631TIP3    H132308   3.843   4.682  12.502  0.7833  1.2690 -0.6248
 3631TIP3    H232309   3.941   4.617  12.597 -0.0152  0.6382 -0.2329
 3632TIP3   OH232310   5.585   1.929  12.991  0.1580 -0.2306  0.4766
 3632TIP3    H132311   5.525   1.861  12.961  0.4127 -1.0333  1.7600
 3632TIP3    H232312   5.528   1.996  13.029 -0.0788  0.2119 -0.6142
 3633TIP3   OH232313   2.921   3.850   0.122 -0.0814  0.1761 -0.5717
 3633TIP3    H132314   2.985   3.779   0.127  1.0778  1.1392 -1.3394
 3633TIP3    H232315   2.910   3.879   0.212 -2.8344 -2.8979  0.1875
 3634TIP3   OH232316   3.038   6.240  10.762 -0.0814  0.1467 -0.3679
 3634TIP3    H132317   3.054   6.151  10.794  0.7517  0.5715  0.4222
 3634TIP3    H232318   3.113   6.260  10.706 -0.1404  0.4340 -0.3479
 3635TIP3   OH232319   3.952   2.415   1.830 -0.6275 -0.2557  0.1844
 3635TIP3    H132320   4.007   2.342   1.801 -0.7438 -0.7069  1.0938
 3635TIP3    H232321   4.006   2.462   1.894 -1.1448 -0.4546  0.7632
 3636TIP3   OH232322   3.993   0.529  15.360 -0.3644  0.0012 -0.0429
 3636TIP3    H132323   3.957   0.616  15.377 -0.5200 -0.1226  0.2637
 3636TIP3    H232324   3.916   0.473  15.350 -0.2522 -0.2709  0.6386
 3637TIP3   OH232325   2.190   5.698  16.560  0.3854 -0.4626 -0.3078
 3637TIP3    H132326   2.107   5.665  16.526 -0.5825 -0.2923  1.8018
 3637TIP3    H232327   2.204   5.781  16.514 -0.5589 -0.5547 -0.7604
 3638TIP3   OH232328   4.405   2.882   4.928  0.1813  0.1679 -0.3152
 3638TIP3    H132329   4.420   2.794   4.960  1.1139  0.1704 -0.7277
 3638TIP3    H232330   4.470   2.936   4.973 -0.8306  0.7625  0.4493
 3639TIP3   OH232331   4.118   4.105  16.200 -0.4218  0.0758 -0.3326
 3639TIP3    H132332   4.117   4.174  16.133  0.3305  1.3653  0.9400
 3639TIP3    H232333   4.188   4.046  16.173 -1.1497 -0.2716 -1.4946
 3640TIP3   OH232334   6.340   1.358   3.280  0.1647 -0.2256 -0.2721
 3640TIP3    H132335   6.421   1.400   3.309  0.3143 -0.6198 -0.1061
 3640TIP3    H232336   6.302   1.321   3.360 -2.2580  3.3665  0.3644
 3641TIP3   OH232337   1.600   6.152   0.275  0.4150  0.4478  0.0330
 3641TIP3    H132338   1.546   6.230   0.274 -1.0482 -0.5536 -1.1763
 3641TIP3    H232339   1.573   6.104   0.354  1.4013  1.2043  0.8421
 3642TIP3   OH232340   0.099   1.846   0.436  0.5581 -0.1393 -0.4933
 3642TIP3    H132341   0.145   1.770   0.400  0.4726 -0.7962  0.7364
 3642TIP3    H232342   0.052   1.811   0.512  0.6332  1.1800  0.1705
 3643TIP3   OH232343   2.485   3.825  15.038 -0.6424  0.4762  0.3394
 3643TIP3    H132344   2.414   3.777  14.995 -1.1851  0.5498  1.1292
 3643TIP3    H232345   2.546   3.846  14.968 -0.8256 -0.6112 -0.1619
 3644TIP3   OH232346   0.528   3.164   1.472  0.4153 -0.1172 -0.0279
 3644TIP3    H132347   0.447   3.188   1.426 -0.5115 -0.5830  1.3232
 3644TIP3    H232348   0.526   3.069   1.475  0.1549 -0.0766  1.4952
 3645TIP3   OH232349   3.401   6.466  15.167 -0.6613  0.6792  0.7218
 3645TIP3    H132350   3.468   6.403  15.194 -1.4230  0.0674  1.1993
 3645TIP3    H232351   3.424   6.487  15.076 -0.2764 -0.1326  0.6188
 3646TIP3   OH232352   2.033   0.864   6.882  0.3863 -0.2412  0.4289
 3646TIP3    H132353   2.083   0.914   6.818 -0.9710 -1.4111 -1.5983
 3646TIP3    H232354   2.084   0.784   6.894 -0.9708 -1.4886 -1.7308
 3647TIP3   OH232355   6.290   6.150   0.029 -0.3739 -0.4888  0.0404
 3647TIP3    H132356   6.297   6.150   0.124 -4.0388 -0.2878  0.4118
 3647TIP3    H232357   6.246   6.233   0.009 -0.1119 -0.7700 -1.7793
 3648TIP3   OH232358   0.574   0.628   5.544  0.2511 -0.3721  0.4143
 3648TIP3    H132359   0.640   0.654   5.480  1.4743  0.2177  1.8714
 3648TIP3    H232360   0.495   0.677   5.519  0.5134 -0.6879 -1.0346
 3649TIP3   OH232361   2.066   0.493   3.264 -0.4914 -0.0291  0.1534
 3649TIP3    H132362   2.051   0.481   3.357  0.2206  0.2644  0.3102
 3649TIP3    H232363   2.063   0.588   3.252  1.4934  0.0608  0.2409
 3650TIP3   OH232364   1.490   3.952  11.617 -0.3938  0.6409 -0.1628
 3650TIP3    H132365   1.531   3.989  11.695  1.5928 -0.2289 -0.7495
 3650TIP3    H232366   1.559   3.954  11.550 -1.3452 -0.7658 -1.2215
 3651TIP3   OH232367   0.542   3.872   1.180  0.8296 -0.9142 -0.0743
 3651TIP3    H132368   0.488   3.852   1.257  2.5970 -0.9707  1.1990
 3651TIP3    H232369   0.537   3.967   1.172  1.2542 -0.8281  0.5976
 3652TIP3   OH232370   2.950   0.676   3.003 -0.0028  0.1026 -0.0926
 3652TIP3    H132371   2.892   0.639   2.936  0.6277 -1.6190  0.2710
 3652TIP3    H232372   2.896   0.740   3.049 -0.8431  0.3426 -1.3864
 3653TIP3   OH232373   5.314   5.458   2.760  0.4963  0.5423  0.3321
 3653TIP3    H132374   5.253   5.405   2.811 -0.2999  1.0587 -0.0732
 3653TIP3    H232375   5.306   5.546   2.797  2.2164  0.3004  1.3709
 3654TIP3   OH232376   3.872   4.878  11.269 -1.1716 -0.0287  0.2193
 3654TIP3    H132377   3.927   4.800  11.275 -0.0048  0.7426 -0.3148
 3654TIP3    H232378   3.837   4.875  11.181 -0.6585  0.3552 -0.0008
 3655TIP3   OH232379   3.702   1.175  12.008 -0.1589  0.3636 -0.3074
 3655TIP3    H132380   3.655   1.163  12.091  0.3020 -0.9372 -0.2228
 3655TIP3    H232381   3.763   1.247  12.027  1.8959 -1.7511  1.3762
 3656TIP3   OH232382   0.025   4.401  11.634 -0.0021 -0.0880  0.0519
 3656TIP3    H132383   0.027   4.402  11.538  1.3121  1.1702  0.0844
 3656TIP3    H232384   0.102   4.349  11.659  1.9983  2.9785  0.4698
 3657TIP3   OH232385   5.950   1.743  12.517  0.5023  0.3640 -0.0774
 3657TIP3    H132386   5.882   1.716  12.455  0.6410 -0.3146  0.0627
 3657TIP3    H232387   5.960   1.669  12.576  0.6796  0.8403  0.4957
 3658TIP3   OH232388   3.777   1.647  13.796  0.4454  0.0436 -0.4405
 3658TIP3    H132389   3.780   1.719  13.733 -1.0285  0.4738 -0.0368
 3658TIP3    H232390   3.683   1.632  13.811  0.7581  1.4673  3.4289
 3659TIP3   OH232391   1.409   3.999  14.218 -0.0426 -0.2559  0.3278
 3659TIP3    H132392   1.446   3.985  14.305 -0.1624 -0.5425  0.3304
 3659TIP3    H232393   1.383   3.912  14.188  1.8501 -0.4424 -0.8383
 3660TIP3   OH232394   5.981   1.365   3.486 -0.0784 -0.0226 -0.1044
 3660TIP3    H132395   5.960   1.272   3.488 -1.2886  0.2697  1.7455
 3660TIP3    H232396   5.904   1.409   3.522 -0.6245  1.9405 -3.3843
 3661TIP3   OH232397   1.835   5.471   5.456 -0.4353 -0.4044 -0.6697
 3661TIP3    H132398   1.800   5.384   5.476 -0.5563 -0.6284 -1.7929
 3661TIP3    H232399   1.924   5.454   5.424 -0.9800 -0.2611 -2.3123
 3662TIP3   OH232400   4.760   1.687  11.675  0.4329  0.2284  0.2955
 3662TIP3    H132401   4.805   1.643  11.746  1.2887 -0.8890 -0.9112
 3662TIP3    H232402   4.668   1.687  11.701  0.4679 -2.0020  0.4646
 3663TIP3   OH232403   0.159   2.147   4.305  0.0087  0.2959 -0.4569
 3663TIP3    H132404   0.237   2.198   4.326  1.1956 -1.2344 -1.0841
 3663TIP3    H232405   0.165   2.069   4.359 -1.4894  0.5072  0.0525
 3664TIP3   OH232406   3.628   3.299   5.065  0.1335 -0.3510  0.6436
 3664TIP3    H132407   3.535   3.295   5.090 -0.0372  0.2371  0.1301
 3664TIP3    H232408   3.675   3.275   5.145 -0.4747 -1.2146  0.7522
 3665TIP3   OH232409   4.613   3.034   6.676 -0.1956  0.5667  0.6173
 3665TIP3    H132410   4.709   3.030   6.676 -0.2309 -3.8764 -0.7440
 3665TIP3    H232411   4.590   3.042   6.584 -1.1223  0.4129  0.8311
 3666TIP3   OH232412   0.205   2.152   6.040 -0.2480  0.3087 -0.1308
 3666TIP3    H132413   0.279   2.139   6.099  0.0141  2.7509  0.1388
 3666TIP3    H232414   0.225   2.096   5.965  1.9621  1.0113 -0.1160
 3667TIP3   OH232415   2.583   4.671   2.705 -0.2453  0.2449 -0.4921
 3667TIP3    H132416   2.540   4.604   2.758  0.8190 -0.4186 -0.4635
 3667TIP3    H232417   2.553   4.754   2.742 -0.8097 -0.2192  0.0857
 3668TIP3   OH232418   4.978   6.576  16.725 -0.0436  0.7217  0.3293
 3668TIP3    H132419   5.006   6.532  16.806  0.9964  1.0588  0.1579
 3668TIP3    H232420   5.054   6.627  16.699 -0.2569  0.3358 -1.0611
 3669TIP3   OH232421   2.966   1.964  17.044 -0.5360  0.0830 -0.0604
 3669TIP3    H132422   2.880   1.927  17.025 -0.7383 -0.4554  1.8592
 3669TIP3    H232423   2.976   2.035  16.980 -1.7744 -0.7767 -1.2378
 3670TIP3   OH232424   4.293   3.062  12.167  0.1108  0.2124  0.5463
 3670TIP3    H132425   4.236   3.137  12.150  0.6467  0.3993 -0.4558
 3670TIP3    H232426   4.381   3.098  12.167  0.1946  0.0500  2.8349
 3671TIP3   OH232427   2.472   3.915   5.943 -0.2498  0.3470  0.4683
 3671TIP3    H132428   2.464   3.824   5.972 -1.7579  0.3409  0.1107
 3671TIP3    H232429   2.517   3.909   5.859  0.3388 -0.0053  0.8060
 3672TIP3   OH232430   1.062   0.010  12.472  0.4302  0.2355  0.0547
 3672TIP3    H132431   0.979   0.015  12.425  0.2963  0.6355  0.3303
 3672TIP3    H232432   1.070  -0.082  12.498 -0.2351  0.3330  0.5914
 3673TIP3   OH232433   4.651   6.137   2.564 -0.1200 -0.0995 -0.1737
 3673TIP3    H132434   4.687   6.183   2.640 -1.3765  0.0396  0.3445
 3673TIP3    H232435   4.572   6.095   2.597 -2.1883  2.2151 -2.0073
 3674TIP3   OH232436   1.011   4.767   1.718  0.1511 -0.1994 -0.3545
 3674TIP3    H132437   0.931   4.804   1.755  0.3493 -1.3692  1.2866
 3674TIP3    H232438   1.079   4.785   1.783  0.3981 -2.7028  0.1433
 3675TIP3   OH232439   5.821   3.996   1.823  0.8046 -0.1376  0.4241
 3675TIP3    H132440   5.847   4.027   1.737 -1.4593  0.8952  0.0959
 3675TIP3    H232441   5.836   4.071   1.881 -1.7154  0.5838  0.1711
 3676TIP3   OH232442   4.524   2.896  13.659  0.5429 -0.0723  0.2200
 3676TIP3    H132443   4.493   2.884  13.748  2.9974 -0.0148  1.1186
 3676TIP3    H232444   4.444   2.895  13.605 -0.8763 -1.0780  2.2850
 3677TIP3   OH232445   2.313   5.356   2.681 -0.2207 -0.0789  0.3566
 3677TIP3    H132446   2.299   5.282   2.740  0.3118  0.6230  1.3833
 3677TIP3    H232447   2.338   5.428   2.739 -2.5745  1.4338 -0.4137
 3678TIP3   OH232448   0.759   6.714   3.139 -1.3263  0.3317 -0.7780
 3678TIP3    H132449   0.747   6.800   3.180  0.1872  0.3371 -0.3298
 3678TIP3    H232450   0.796   6.733   3.053  1.2166  0.0423  0.2150
 3679TIP3   OH232451   3.198   5.498   0.789  0.1221  0.0492 -0.5759
 3679TIP3    H132452   3.226   5.506   0.880  1.1180  1.1951 -0.9732
 3679TIP3    H232453   3.260   5.552   0.740 -0.0300 -1.0423 -2.0061
 3680TIP3   OH232454   1.919   1.741  16.870  0.2356 -0.1229 -0.4710
 3680TIP3    H132455   1.965   1.813  16.912 -1.4508 -0.9635  3.0801
 3680TIP3    H232456   1.973   1.664  16.889  0.8034 -0.1678 -2.1783
 3681TIP3   OH232457   3.982   2.480   4.794 -0.0349 -0.0882 -0.5498
 3681TIP3    H132458   4.044   2.543   4.832 -0.9789 -0.4185  1.5994
 3681TIP3    H232459   4.034   2.400   4.782  0.5047  0.2998 -0.8028
 3682TIP3   OH232460   4.901   1.382   6.455 -0.3626  0.3762  0.2299
 3682TIP3    H132461   4.819   1.376   6.503 -0.6662  0.1990 -0.3087
 3682TIP3    H232462   4.934   1.470   6.475 -0.1805  0.0847  1.2439
 3683TIP3   OH232463   3.871   6.457  16.167  0.5887  0.1170  0.2994
 3683TIP3    H132464   3.859   6.362  16.167  0.0120  0.1623  2.3245
 3683TIP3    H232465   3.965   6.470  16.159  0.7197 -0.6513  0.5482
 3684TIP3   OH232466   1.578   4.256   2.692  0.0124 -0.1828 -0.7321
 3684TIP3    H132467   1.515   4.185   2.706  0.3846 -0.6155 -1.2110
 3684TIP3    H232468   1.550   4.325   2.752 -1.0653 -0.2634 -1.1416
 3685TIP3   OH232469   5.699   2.402   3.377  0.2124  0.1437  0.4850
 3685TIP3    H132470   5.667   2.423   3.289  2.1503  0.4354 -0.1837
 3685TIP3    H232471   5.780   2.353   3.361  0.8934  0.7183  2.1250
 3686TIP3   OH232472   3.083   0.914   4.813 -0.1355  0.2340  0.2084
 3686TIP3    H132473   3.157   0.872   4.769 -0.4716 -1.5488  1.3217
 3686TIP3    H232474   3.123   0.979   4.871  0.4400  0.7002 -0.6982
 3687TIP3   OH232475   1.937   2.655  17.151 -0.3451 -0.0665 -0.0003
 3687TIP3    H132476   1.893   2.634  17.068 -0.8787  2.0955 -0.3198
 3687TIP3    H232477   2.028   2.671  17.126 -0.2918 -0.4121 -0.0213
 3688TIP3   OH232478   0.231   2.757   2.829 -0.0753  0.7682 -0.0372
 3688TIP3    H132479   0.216   2.852   2.829 -1.1376  0.6365 -1.9222
 3688TIP3    H232480   0.161   2.722   2.885 -0.7132  0.9721 -0.6977
 3689TIP3   OH232481   6.248   5.612  16.523  0.5835 -0.0068 -0.3371
 3689TIP3    H132482   6.220   5.520  16.531 -0.0097  0.1565 -0.4904
 3689TIP3    H232483   6.343   5.608  16.527  0.5275 -0.5227  0.8248
 3690TIP3   OH232484   1.603   2.255   1.354 -0.6034  0.7141 -0.2576
 3690TIP3    H132485   1.595   2.160   1.350 -2.3002  0.8924 -1.4831
 3690TIP3    H232486   1.582   2.277   1.445 -2.8693  0.1105 -0.5925
 3691TIP3   OH232487   3.242   0.179   3.496 -0.2574  0.0504 -0.3711
 3691TIP3    H132488   3.196   0.244   3.443 -1.4671  1.0582  1.8365
 3691TIP3    H232489   3.275   0.228   3.572  0.8309 -1.4637  0.1708
 3692TIP3   OH232490   2.885   3.231  14.636 -1.0212  0.2980  0.0297
 3692TIP3    H132491   2.839   3.219  14.553 -0.9208  0.5975 -0.0681
 3692TIP3    H232492   2.884   3.144  14.676  0.1141 -0.1567 -0.8910
 3693TIP3   OH232493   4.144   4.997  17.146 -0.4057  0.6546 -0.6805
 3693TIP3    H132494   4.129   4.910  17.108 -0.1389  0.3941 -0.1975
 3693TIP3    H232495   4.072   5.010  17.207  1.5154 -0.8178  2.0276
 3694TIP3   OH232496   4.965   5.700   4.540 -0.1548  0.6630  0.5624
 3694TIP3    H132497   5.051   5.701   4.499 -0.1449 -0.6776  0.5131
 3694TIP3    H232498   4.943   5.607   4.547 -2.0818  1.0151 -0.4435
 3695TIP3   OH232499   6.202   1.694  14.531 -0.0281  0.0218 -0.3132
 3695TIP3    H132500   6.298   1.688  14.525 -0.0953  0.6742 -2.4255
 3695TIP3    H232501   6.187   1.746  14.610  1.4075  0.7229 -0.4728
 3696TIP3   OH232502   2.157   6.482  12.670 -0.2571  0.1788 -0.4844
 3696TIP3    H132503   2.093   6.550  12.687  0.2063  0.1405  1.4556
 3696TIP3    H232504   2.133   6.447  12.584 -3.8181 -0.9402  0.8943
 3697TIP3   OH232505   0.546   0.097  12.173  0.0091 -0.1390  0.4253
 3697TIP3    H132506   0.634   0.065  12.153  0.2689  0.5417  0.4816
 3697TIP3    H232507   0.501   0.021  12.210  1.3592  0.1732  2.8125
 3698TIP3   OH232508   4.460   1.851   5.384  0.3931 -0.0190 -0.1499
 3698TIP3    H132509   4.399   1.910   5.428  0.2422 -0.8431  0.7520
 3698TIP3    H232510   4.546   1.889   5.401  0.7404 -2.5037  4.4138
 3699TIP3   OH232511   5.535   6.068   4.298 -0.5152 -0.8214 -0.0075
 3699TIP3    H132512   5.472   6.127   4.256  0.8716  0.0737 -0.8463
 3699TIP3    H232513   5.573   6.018   4.227 -0.9001 -2.0092  0.5980
 3700TIP3   OH232514   4.751   2.312   5.500  0.5491 -0.0137 -0.7454
 3700TIP3    H132515   4.806   2.390   5.496  1.7222 -0.7272  0.7629
 3700TIP3    H232516   4.680   2.336   5.559  0.1918  0.3409 -1.3196
 3701TIP3   OH232517   2.323   6.444   1.428 -0.3852  0.7867 -0.2384
 3701TIP3    H132518   2.342   6.356   1.460 -3.5194 -0.9798 -2.9284
 3701TIP3    H232519   2.266   6.482   1.494  0.0528  0.3507  0.3954
 3702TIP3   OH232520   1.166   2.493  12.636  1.1280  0.8538  0.2467
 3702TIP3    H132521   1.161   2.560  12.567  1.0792 -0.0295 -0.6186
 3702TIP3    H232522   1.076   2.481  12.664  1.1360  1.1537  0.3987
 3703TIP3   OH232523   1.213   3.912   0.551 -0.0195  0.3643 -0.2847
 3703TIP3    H132524   1.123   3.929   0.579 -0.4249  0.0731 -1.3868
 3703TIP3    H232525   1.221   3.957   0.467  1.2486  1.4151  0.3823
 3704TIP3   OH232526   1.142   6.472  14.792 -0.1934  0.6124  0.1206
 3704TIP3    H132527   1.053   6.447  14.820  0.0256  1.8705  2.0167
 3704TIP3    H232528   1.187   6.388  14.781 -1.4699 -0.0340 -0.4019
 3705TIP3   OH232529   2.203   1.281   2.097 -0.5053 -0.2806 -0.0142
 3705TIP3    H132530   2.128   1.337   2.116  0.0866  0.6741 -0.4322
 3705TIP3    H232531   2.279   1.340   2.102  0.6792 -1.9894  4.3426
 3706TIP3   OH232532   6.546   4.777  13.647  0.0890 -0.3374 -0.2115
 3706TIP3    H132533   6.616   4.714  13.664 -1.1653 -2.3788 -2.2569
 3706TIP3    H232534   6.528   4.767  13.553 -3.0374  0.0511  0.3233
 3707TIP3   OH232535   0.499   3.074  16.166 -0.1149  0.3579  0.1080
 3707TIP3    H132536   0.448   2.995  16.145 -0.0082  0.6647 -1.3978
 3707TIP3    H232537   0.454   3.144  16.118  2.9946  0.2677 -3.1199
 3708TIP3   OH232538   0.010   4.014  11.835  0.2461 -0.1669 -0.2543
 3708TIP3    H132539   0.075   4.084  11.846  0.9879 -1.0239  0.7879
 3708TIP3    H232540  -0.064   4.041  11.889  0.7656 -0.4804  0.6112
 3709TIP3   OH232541   3.554   0.911   1.763 -0.2028  0.5103  0.1477
 3709TIP3    H132542   3.588   0.994   1.796 -0.5968  0.3839  0.8943
 3709TIP3    H232543   3.632   0.860   1.741  0.0358  1.8197 -2.2474
 3710TIP3   OH232544   5.936   6.577  12.248 -0.1262 -0.1595  0.7265
 3710TIP3    H132545   6.017   6.526  12.244 -0.4778 -0.8096  1.8050
 3710TIP3    H232546   5.965   6.668  12.238  0.4871 -0.5531 -1.4105
 3711TIP3   OH232547   2.011   4.388   5.969  0.5475  0.0301 -0.2484
 3711TIP3    H132548   1.998   4.294   5.965  1.6863 -0.0921 -1.4521
 3711TIP3    H232549   2.025   4.407   6.062  0.5643 -1.0168 -0.0365
 3712TIP3   OH232550   0.622   3.877   6.114  1.0772 -0.1569  0.0231
 3712TIP3    H132551   0.550   3.939   6.107 -0.6029 -1.5042  3.9110
 3712TIP3    H232552   0.693   3.927   6.155  0.4242 -0.2643  1.2947
 3713TIP3   OH232553   3.296   0.979  13.080  0.2922  0.2470 -0.6034
 3713TIP3    H132554   3.215   1.002  13.035  0.1990 -1.1656 -1.1880
 3713TIP3    H232555   3.365   0.997  13.016  0.3686  0.5329 -0.4444
 3714TIP3   OH232556   4.051   2.204  13.776 -0.9038  0.1324 -0.3198
 3714TIP3    H132557   4.030   2.177  13.865 -2.3535 -0.2875 -0.7787
 3714TIP3    H232558   4.033   2.298  13.774  0.7819  0.4880  0.2947
 3715TIP3   OH232559   3.157   2.206  12.867  0.0155 -0.3009 -0.0494
 3715TIP3    H132560   3.204   2.290  12.865  0.5703 -0.6278 -1.2224
 3715TIP3    H232561   3.122   2.196  12.778 -2.4578  0.0232  0.8313
 3716TIP3   OH232562   2.809   5.797  11.502  0.1405  0.6111  0.4297
 3716TIP3    H132563   2.861   5.873  11.477  0.9301  0.3388  1.2270
 3716TIP3    H232564   2.874   5.728  11.517 -0.5457 -0.1304  0.0228
 3717TIP3   OH232565   3.814   4.205   1.857 -0.0804  0.8494  0.5305
 3717TIP3    H132566   3.815   4.290   1.812 -0.9888 -0.0415 -1.2431
 3717TIP3    H232567   3.728   4.168   1.836  1.6875 -2.1322 -1.9291
 3718TIP3   OH232568   1.896   6.572  13.841 -0.3522  0.4354  0.0483
 3718TIP3    H132569   1.948   6.643  13.878  2.5364 -1.2864 -0.4897
 3718TIP3    H232570   1.874   6.602  13.753  0.1870  0.9778  0.0929
 3719TIP3   OH232571   0.526   5.265   0.356  0.1806  0.7870 -0.0799
 3719TIP3    H132572   0.519   5.200   0.286 -0.3420  0.3622  0.3594
 3719TIP3    H232573   0.565   5.342   0.314  1.1274  0.0682 -0.5260
 3720TIP3   OH232574   6.377   3.534  14.970 -0.2482  0.0019  0.0280
 3720TIP3    H132575   6.422   3.618  14.964 -1.4566  0.5474 -1.6965
 3720TIP3    H232576   6.431   3.475  14.917 -0.5270  0.1961 -0.4738
 3721TIP3   OH232577   4.972   5.539  15.084  0.1377  0.2735  0.2027
 3721TIP3    H132578   5.004   5.483  15.155  0.6280  0.6666  0.2926
 3721TIP3    H232579   5.019   5.507  15.006  0.8768  0.9453  0.3613
 3722TIP3   OH232580   0.351   4.217  14.946  0.4462  0.2996  0.0861
 3722TIP3    H132581   0.423   4.161  14.919 -0.6247 -0.1261 -1.9485
 3722TIP3    H232582   0.285   4.156  14.979 -0.4347  0.3834 -1.4743
 3723TIP3   OH232583   1.663   2.947   0.550 -0.3707 -0.2748  0.3320
 3723TIP3    H132584   1.604   3.020   0.530  0.7019  0.8694  1.3131
 3723TIP3    H232585   1.683   2.956   0.643  0.9209 -0.9664  0.1353
 3724TIP3   OH232586   6.328   6.346   4.090  0.3354 -0.5374 -0.6543
 3724TIP3    H132587   6.245   6.303   4.111 -0.2401  0.4723 -0.8314
 3724TIP3    H232588   6.330   6.348   3.994  1.1896 -1.7366 -0.6799
 3725TIP3   OH232589   0.387   5.868  13.204  0.0955 -0.1433 -0.1234
 3725TIP3    H132590   0.442   5.927  13.256  0.8521  0.3220 -1.4376
 3725TIP3    H232591   0.436   5.786  13.201 -0.7184 -0.7135  1.2653
 3726TIP3   OH232592   2.793   2.505   0.411  0.1617  0.3693  0.4775
 3726TIP3    H132593   2.795   2.594   0.445 -1.4099  0.3073  0.7511
 3726TIP3    H232594   2.736   2.509   0.335 -1.1326 -0.6954  1.3737
 3727TIP3   OH232595   6.637   3.848  11.068  0.4151  0.1415  0.1546
 3727TIP3    H132596   6.709   3.791  11.096  3.3670  4.0457  0.9405
 3727TIP3    H232597   6.651   3.860  10.974 -0.6334 -0.9254 -0.1571
 3728TIP3   OH232598   3.542   1.663  14.218  0.3135 -0.3737 -0.1662
 3728TIP3    H132599   3.480   1.670  14.145 -0.1589 -0.9546  0.1786
 3728TIP3    H232600   3.494   1.616  14.286  0.2256  1.5165  1.0977
 3729TIP3   OH232601   4.685   2.007   2.364  0.3578 -0.3457  0.6111
 3729TIP3    H132602   4.750   2.076   2.376  2.7146 -2.2024 -0.7981
 3729TIP3    H232603   4.735   1.926   2.373 -1.6906 -1.8453 -0.9686
 3730TIP3   OH232604   1.609   3.108  13.563 -0.3071 -0.2651 -0.4510
 3730TIP3    H132605   1.665   3.183  13.546  1.6433 -1.8248 -0.9891
 3730TIP3    H232606   1.525   3.147  13.590  1.1552  2.0895  0.9161
 3731TIP3   OH232607   0.623   2.608   0.428  0.3897 -0.1015  0.2123
 3731TIP3    H132608   0.556   2.549   0.462 -0.1327  0.4827  0.2054
 3731TIP3    H232609   0.659   2.651   0.506  1.3169 -1.0020  0.2860
 3732TIP3   OH232610   6.040   2.267   3.729 -0.2172  0.1656 -0.4411
 3732TIP3    H132611   5.973   2.335   3.729  0.4414  0.8254  0.6326
 3732TIP3    H232612   6.121   2.313   3.710  0.0012 -0.5729 -1.3589
 3733TIP3   OH232613   2.924   4.727   5.957 -0.1139 -0.5123 -0.3743
 3733TIP3    H132614   3.004   4.760   5.999 -1.2040  2.1720 -0.2911
 3733TIP3    H232615   2.949   4.711   5.867  1.2251 -2.4547  0.3117
 3734TIP3   OH232616   1.515   4.587   0.830  0.0871  0.0093 -0.2943
 3734TIP3    H132617   1.489   4.541   0.750  0.6386 -0.9796  0.0807
 3734TIP3    H232618   1.539   4.517   0.891  0.6682  0.7905  0.3885
 3735TIP3   OH232619   4.577   6.737   3.957  0.3991  0.1893 -0.1213
 3735TIP3    H132620   4.595   6.671   4.023  0.2312  0.1722 -0.0929
 3735TIP3    H232621   4.532   6.807   4.005  0.1465  0.1119 -0.2472
 3736TIP3   OH232622   4.782   2.744   1.707 -0.0306  0.7913  0.5847
 3736TIP3    H132623   4.790   2.678   1.638  0.2021 -1.2192  2.4796
 3736TIP3    H232624   4.704   2.793   1.684 -0.1953 -0.1236 -0.8894
 3737TIP3   OH232625   2.354   2.370   2.378  0.3186 -0.0913 -0.4928
 3737TIP3    H132626   2.343   2.459   2.344 -1.0377 -0.1249 -0.1907
 3737TIP3    H232627   2.424   2.378   2.443  0.3314  0.7236 -0.5989
 3738TIP3   OH232628   6.495   6.782  12.244  0.2859 -0.2863  0.0705
 3738TIP3    H132629   6.557   6.753  12.310 -0.5012 -0.3365  0.8029
 3738TIP3    H232630   6.547   6.831  12.181  1.4158 -2.1654 -0.4833
 3739TIP3   OH232631   6.393   2.638   0.774  0.0123 -0.0248 -0.4260
 3739TIP3    H132632   6.416   2.730   0.790 -1.8462  0.6546 -1.5336
 3739TIP3    H232633   6.344   2.640   0.692 -0.2677 -1.9947 -0.3146
 3740TIP3   OH232634   0.898   5.843  16.927  0.3832  0.0647  0.0430
 3740TIP3    H132635   0.830   5.780  16.947  1.1920 -0.6364  0.6416
 3740TIP3    H232636   0.980   5.798  16.948  1.0716  0.6606 -1.2594
 3741TIP3   OH232637   1.728   3.100  15.884  0.1611  0.4104 -0.2040
 3741TIP3    H132638   1.695   3.069  15.800 -3.5436 -0.3105  1.3907
 3741TIP3    H232639   1.706   3.193  15.886  1.8926  0.8374 -0.7604
 3742TIP3   OH232640   2.545   3.954  14.305 -0.2016 -0.4223 -0.2679
 3742TIP3    H132641   2.639   3.954  14.289 -0.2792 -1.8507 -0.8176
 3742TIP3    H232642   2.519   4.045  14.293  1.1350  0.0086  0.0390
 3743TIP3   OH232643   4.456   2.785   2.041  0.3101 -0.2222  0.0705
 3743TIP3    H132644   4.451   2.873   2.080  0.3116 -1.4987  3.0847
 3743TIP3    H232645   4.366   2.766   2.014  0.1150  0.2759  0.3577
 3744TIP3   OH232646   1.194   6.722   4.249  0.3374 -0.2936  0.0261
 3744TIP3    H132647   1.136   6.793   4.279 -0.4723 -0.5298 -0.9649
 3744TIP3    H232648   1.264   6.720   4.315 -0.0909  0.8457  0.5458
 3745TIP3   OH232649   1.751   2.960   5.636  0.5020  0.2417  0.3613
 3745TIP3    H132650   1.820   2.948   5.571  1.0286 -1.2017  1.1818
 3745TIP3    H232651   1.680   3.002   5.586  1.0429 -0.4692 -1.0493
 3746TIP3   OH232652   2.625   3.254  12.576 -0.1699 -0.3788 -0.3294
 3746TIP3    H132653   2.532   3.262  12.596  0.0295  0.8483  0.1532
 3746TIP3    H232654   2.668   3.314  12.637  0.9692 -1.2146 -0.2972
 3747TIP3   OH232655   6.601   5.994   5.230  0.4372 -0.3668 -0.6164
 3747TIP3    H132656   6.517   6.033   5.251  0.8982 -0.9292  2.6064
 3747TIP3    H232657   6.661   6.069   5.221  0.0607 -0.0689 -0.6340
 3748TIP3   OH232658   0.399   4.756   6.474  0.0652 -0.1560 -0.0243
 3748TIP3    H132659   0.471   4.727   6.530  1.5049  2.0745 -0.6784
 3748TIP3    H232660   0.424   4.730   6.386 -0.4243 -0.2614 -0.1381
 3749TIP3   OH232661   4.864   5.526   1.751 -0.1446  0.0000  0.1990
 3749TIP3    H132662   4.922   5.601   1.733  0.0865 -0.3940 -0.7306
 3749TIP3    H232663   4.836   5.496   1.665 -3.0610  1.1951  0.6697
 3750TIP3   OH232664   4.170   3.729   2.905 -0.1633 -0.2520 -0.6400
 3750TIP3    H132665   4.263   3.742   2.890 -0.1067 -1.1403 -1.1368
 3750TIP3    H232666   4.141   3.678   2.829 -1.0497  0.0153 -0.4873
 3751TIP3   OH232667   4.114   1.038  12.131  0.0127 -0.0636  0.0329
 3751TIP3    H132668   4.168   1.114  12.109 -1.4844  1.5446  1.6784
 3751TIP3    H232669   4.053   1.030  12.058  0.6144 -0.1031 -0.4689
 3752TIP3   OH232670   3.053   1.653  14.033 -0.2811  0.0563  0.7192
 3752TIP3    H132671   3.004   1.732  14.058 -0.5192  0.5102 -1.1251
 3752TIP3    H232672   2.999   1.580  14.064 -1.6837  0.5690 -0.4758
 3753TIP3   OH232673   0.275   5.819  11.554  0.7611  0.3012 -0.0070
 3753TIP3    H132674   0.362   5.803  11.590  0.3316  0.7043  1.2601
 3753TIP3    H232675   0.215   5.777  11.616 -0.0384  1.7071  0.2168
 3754TIP3   OH232676   4.792   0.509   0.331  0.4500  0.2522  0.2244
 3754TIP3    H132677   4.872   0.500   0.281 -0.8602  0.2204 -1.9340
 3754TIP3    H232678   4.792   0.433   0.390  0.5831 -1.4058 -1.8530
 3755TIP3   OH232679   5.246   4.694  15.516 -0.0851 -0.5123  0.1247
 3755TIP3    H132680   5.293   4.764  15.471 -0.8470  1.2025  1.9181
 3755TIP3    H232681   5.188   4.658  15.449  1.6203 -0.6737 -1.3013
 3756TIP3   OH232682   1.832   4.593  16.698  0.0668  0.4844 -0.7902
 3756TIP3    H132683   1.895   4.521  16.686  0.1868  0.4451  0.0770
 3756TIP3    H232684   1.855   4.656  16.630  1.0344  0.4559 -0.5031
 3757TIP3   OH232685   4.395   4.118   2.749 -0.1474  0.4606  0.3794
 3757TIP3    H132686   4.381   4.093   2.658 -1.4458  1.5481  0.2652
 3757TIP3    H232687   4.472   4.068   2.776  0.0585 -0.1109 -1.2124
 3758TIP3   OH232688   4.061   3.970  15.605  0.7645  0.2053  0.5020
 3758TIP3    H132689   3.992   4.004  15.662 -0.0201 -0.0289 -0.2841
 3758TIP3    H232690   4.039   4.005  15.518  3.1747  2.3801  0.7016
 3759TIP3   OH232691   0.326   5.689   1.327  0.4415  0.2049 -0.0903
 3759TIP3    H132692   0.415   5.722   1.312  0.4595  0.4895  0.6548
 3759TIP3    H232693   0.334   5.631   1.402 -0.0123  0.2851  0.0177
 3760TIP3   OH232694   3.668   5.487   4.016 -0.1142  0.7173  0.3898
 3760TIP3    H132695   3.694   5.559   3.958 -1.2481  1.0968  0.3320
 3760TIP3    H232696   3.680   5.522   4.104  1.2078  0.2851  0.3952
 3761TIP3   OH232697   3.085   1.219   0.982  0.3637  0.4673  0.0637
 3761TIP3    H132698   3.024   1.278   0.938  0.7659  1.1192  0.3589
 3761TIP3    H232699   3.062   1.226   1.075  0.8324  0.6553  0.1666
 3762TIP3   OH232700   1.199   3.382  11.251 -0.0270 -0.0427  0.1071
 3762TIP3    H132701   1.293   3.376  11.265  0.1386  0.3544 -0.8339
 3762TIP3    H232702   1.188   3.455  11.190 -0.9456 -0.0562  0.2490
 3763TIP3   OH232703   3.478   5.871   6.010 -0.9022  0.5235 -0.2010
 3763TIP3    H132704   3.517   5.938   6.066 -0.4666  0.1455 -0.0490
 3763TIP3    H232705   3.386   5.895   6.006 -1.2286 -0.2508  1.8524
 3764TIP3   OH232706   5.580   1.759   6.235 -0.8217  0.3543  0.1995
 3764TIP3    H132707   5.667   1.766   6.196 -1.4788  0.1724 -1.3535
 3764TIP3    H232708   5.596   1.726   6.323  0.4678 -3.3509 -1.2953
 3765TIP3   OH232709   3.912   3.890  11.780 -0.5541 -0.8617  0.0903
 3765TIP3    H132710   3.978   3.834  11.821 -0.9528 -0.3568  1.4513
 3765TIP3    H232711   3.850   3.829  11.739 -0.3512 -1.3818  0.5561
 3766TIP3   OH232712   1.807   6.273   2.503  0.7352  0.7972  0.6486
 3766TIP3    H132713   1.793   6.179   2.496  0.5453  0.8498  0.3381
 3766TIP3    H232714   1.895   6.287   2.471  0.7048  0.7465  0.5441
 3767TIP3   OH232715   4.540   1.880  15.044  0.1383 -0.0219  0.5732
 3767TIP3    H132716   4.565   1.910  15.131  0.7973  0.5759  0.1824
 3767TIP3    H232717   4.500   1.956  15.002  1.4082  0.2135 -0.2577
 3768TIP3   OH232718   0.905   1.455   2.306 -0.3024  0.0525  0.3057
 3768TIP3    H132719   0.912   1.420   2.395  0.6525 -1.9676 -0.5346
 3768TIP3    H232720   0.812   1.450   2.285 -0.1037 -2.6873 -0.0440
 3769TIP3   OH232721   5.308   2.535  13.092  0.3441 -0.0013 -0.1095
 3769TIP3    H132722   5.312   2.584  13.174  0.4611 -2.0644  1.1474
 3769TIP3    H232723   5.265   2.594  13.031 -2.0761  0.6465  2.1300
 3770TIP3   OH232724   2.717   5.526  13.450 -0.0036 -0.0824  0.4692
 3770TIP3    H132725   2.627   5.502  13.471  0.0166 -0.9015 -0.3525
 3770TIP3    H232726   2.708   5.606  13.398 -0.2691 -0.2437  0.2622
 3771TIP3   OH232727   5.872   6.761   4.819  0.1288 -0.1865 -0.1092
 3771TIP3    H132728   5.779   6.743   4.805  0.2042  0.1124 -1.0073
 3771TIP3    H232729   5.884   6.750   4.913 -1.0556  0.8682  0.1837
 3772TIP3   OH232730   2.600   5.900  14.808  0.0428 -0.3872  0.5896
 3772TIP3    H132731   2.650   5.821  14.789  0.7101  0.2845 -0.5079
 3772TIP3    H232732   2.508   5.873  14.797  0.3069 -0.7036 -1.0581
 3773TIP3   OH232733   3.697   2.219  14.962 -0.3255 -0.2088 -0.0905
 3773TIP3    H132734   3.684   2.213  15.057 -1.3958 -1.7062 -0.3126
 3773TIP3    H232735   3.732   2.307  14.948 -0.3857  0.1107  1.6720
 3774TIP3   OH232736   2.025   5.518   2.933  0.2220 -0.4764  0.5024
 3774TIP3    H132737   2.069   5.534   3.017 -0.3552 -1.4078  0.9926
 3774TIP3    H232738   1.931   5.526   2.953  0.0640 -1.1668  0.0476
 3775TIP3   OH232739   3.092   2.446  17.007  0.3024  0.3222 -0.2093
 3775TIP3    H132740   3.077   2.522  17.063 -0.0096  0.2389 -0.1815
 3775TIP3    H232741   3.131   2.482  16.927 -0.0970  0.5453 -0.3066
 3776TIP3   OH232742   0.414   4.406  15.152  0.2264 -0.2031 -0.1503
 3776TIP3    H132743   0.360   4.401  15.073 -0.6136 -1.1373  0.4661
 3776TIP3    H232744   0.365   4.356  15.218 -0.6661  3.2003  1.8898
 3777TIP3   OH232745   3.710   2.707   5.136 -0.1008 -0.3072 -0.4085
 3777TIP3    H132746   3.663   2.786   5.108 -0.8989 -1.2973 -1.9648
 3777TIP3    H232747   3.746   2.672   5.055  0.4610 -1.4055  0.3133
 3778TIP3   OH232748   5.466   1.051  13.857  0.6984 -0.2186  0.3168
 3778TIP3    H132749   5.561   1.062  13.863  0.6237 -0.2648  1.7761
 3778TIP3    H232750   5.436   1.053  13.948 -0.7996  0.6277 -0.1815
 3779TIP3   OH232751   2.799   2.021  11.060 -0.2115 -0.6089 -0.8404
 3779TIP3    H132752   2.828   2.084  10.994  4.8228 -2.2699 -0.4104
 3779TIP3    H232753   2.785   1.940  11.011 -1.7301 -0.4807 -0.6350
 3780TIP3   OH232754   2.391   5.478  15.221 -0.0007 -0.5352 -0.5789
 3780TIP3    H132755   2.382   5.390  15.258  1.3074  0.0747  1.2180
 3780TIP3    H232756   2.429   5.464  15.134  0.0537 -1.7378 -0.3637
 3781TIP3   OH232757   5.101   3.340  12.564 -0.2154 -0.1256  0.3387
 3781TIP3    H132758   5.185   3.384  12.577  0.9582 -2.1526 -0.1661
 3781TIP3    H232759   5.050   3.401  12.510  2.6813 -0.8207 -3.3886
 3782TIP3   OH232760   4.124   3.192   0.562 -0.4892  0.1138  0.4787
 3782TIP3    H132761   4.117   3.213   0.655  0.7828  2.3304  0.1126
 3782TIP3    H232762   4.083   3.266   0.518  0.1297 -0.2755 -0.7640
 3783TIP3   OH232763   3.444   2.649   5.504 -0.3841  0.2187  0.0325
 3783TIP3    H132764   3.374   2.714   5.519  0.0567  0.8295 -0.5206
 3783TIP3    H232765   3.420   2.575   5.559 -2.9181 -0.6564 -2.1226
 3784TIP3   OH232766   4.857   1.048   0.611 -0.1194 -0.3504 -0.0107
 3784TIP3    H132767   4.847   1.138   0.643 -3.2570 -0.8902  0.6697
 3784TIP3    H232768   4.951   1.036   0.603  0.3475  3.3497 -1.1030
 3785TIP3   OH232769   5.919   0.153  11.618  0.0237 -0.0383  0.4289
 3785TIP3    H132770   5.856   0.082  11.627  0.7328 -0.4142  2.8185
 3785TIP3    H232771   5.998   0.110  11.584  0.3742 -0.3473  1.6345
 3786TIP3   OH232772   2.902   5.109   3.674 -0.3924  0.3424  0.1676
 3786TIP3    H132773   2.835   5.051   3.710 -0.2927  0.4879  0.5878
 3786TIP3    H232774   2.886   5.194   3.715  0.3403  0.2598  0.6386
 3787TIP3   OH232775   0.230   5.901  14.804 -0.1332 -0.1640 -0.5731
 3787TIP3    H132776   0.324   5.921  14.809 -0.2059 -0.1699  1.2278
 3787TIP3    H232777   0.189   5.962  14.866 -1.2209 -0.7100 -0.7430
 3788TIP3   OH232778   3.044   5.395   3.591  0.2256 -0.6560 -0.2924
 3788TIP3    H132779   3.023   5.408   3.683 -0.8131  1.0171 -0.7468
 3788TIP3    H232780   3.136   5.368   3.591  0.7789  1.1278  1.1152
 3789TIP3   OH232781   5.461   4.582   6.446 -0.0954  0.2466 -0.1462
 3789TIP3    H132782   5.505   4.653   6.493 -2.1694  1.3688  0.1594
 3789TIP3    H232783   5.531   4.519   6.427  1.0882  0.4692  3.0984
 3790TIP3   OH232784   0.802   2.024  14.431  0.5346  0.6088  0.2239
 3790TIP3    H132785   0.806   2.027  14.336 -0.4592 -1.0477  0.1061
 3790TIP3    H232786   0.880   1.976  14.457  0.3821  0.3408  0.1888
 3791TIP3   OH232787   0.759   3.081  17.035  0.6706  0.1747 -0.8150
 3791TIP3    H132788   0.792   3.106  16.948 -1.3481  1.3886 -1.2612
 3791TIP3    H232789   0.664   3.087  17.027  0.4787  0.6638  1.5918
 3792TIP3   OH232790   2.752   3.884  14.943 -0.6866 -0.1780  0.8450
 3792TIP3    H132791   2.750   3.860  15.036  0.2089 -3.4169  0.0947
 3792TIP3    H232792   2.829   3.838  14.908 -1.5241  0.2622 -1.6795
 3793TIP3   OH232793   3.683   2.045  14.621  0.1048 -0.2415 -0.2587
 3793TIP3    H132794   3.720   1.962  14.592 -2.0745 -1.3976  0.1288
 3793TIP3    H232795   3.633   2.023  14.699  0.1903  1.6051  0.3554
 3794TIP3   OH232796   4.740   4.758  16.171 -0.3909  0.4596 -0.0039
 3794TIP3    H132797   4.769   4.713  16.250 -1.9952  1.8844  1.4410
 3794TIP3    H232798   4.786   4.842  16.173 -0.5518  0.5597 -0.5192
 3795TIP3   OH232799   0.564   4.765  14.421 -0.4298 -0.1085  0.1811
 3795TIP3    H132800   0.491   4.730  14.370  1.0912 -1.1398 -1.3739
 3795TIP3    H232801   0.524   4.807  14.496 -2.5844 -1.1972 -0.3359
 3796TIP3   OH232802   3.423   6.562   5.788  0.0263  0.2187  0.4699
 3796TIP3    H132803   3.377   6.642   5.812  1.8133  1.2661  0.4369
 3796TIP3    H232804   3.514   6.589   5.776  0.2512 -1.3925 -1.6779
 3797TIP3   OH232805   5.742   5.148  14.118 -0.6665  0.5819  0.5088
 3797TIP3    H132806   5.804   5.209  14.159 -1.2699  1.6487 -0.1604
 3797TIP3    H232807   5.656   5.187  14.133 -0.8924  1.0657 -1.9020
 3798TIP3   OH232808   4.415   4.316  15.818 -0.4718  0.3172 -0.0300
 3798TIP3    H132809   4.460   4.368  15.752 -1.8820  0.4504 -0.9105
 3798TIP3    H232810   4.485   4.281  15.873  0.6028  1.6648 -0.5108
 3799TIP3   OH232811   4.672   0.508   2.114 -0.2533  0.1726  0.0441
 3799TIP3    H132812   4.717   0.464   2.186  0.3207 -0.2293 -0.5555
 3799TIP3    H232813   4.733   0.503   2.041 -0.0910  2.2009  0.0311
 3800TIP3   OH232814   2.069   3.351   2.819  0.1784 -0.6150  0.2624
 3800TIP3    H132815   1.980   3.379   2.839 -0.5579 -0.7063 -2.7237
 3800TIP3    H232816   2.092   3.291   2.890 -0.4062  2.8544  3.5323
 3801TIP3   OH232817   2.581   6.463  10.892 -0.4265  0.1079 -0.3276
 3801TIP3    H132818   2.637   6.419  10.828  0.7316  1.4795 -0.2633
 3801TIP3    H232819   2.566   6.550  10.856 -0.5389  0.5686  0.8138
 3802TIP3   OH232820   5.753   2.580  15.049 -0.4226  0.4330  0.3153
 3802TIP3    H132821   5.803   2.657  15.019  0.1056 -0.6261 -1.6380
 3802TIP3    H232822   5.662   2.606  15.040 -0.2444  0.9845  0.0635
 3803TIP3   OH232823   5.356   0.825   5.138  0.3337  0.5161  0.0346
 3803TIP3    H132824   5.313   0.887   5.079 -0.8355  0.5418  0.9010
 3803TIP3    H232825   5.439   0.867   5.160 -0.3498  1.6827  0.4415
 3804TIP3   OH232826   6.282   3.304   4.664 -0.4659  0.3185 -0.5523
 3804TIP3    H132827   6.261   3.396   4.682  0.9744  0.8862 -1.6796
 3804TIP3    H232828   6.372   3.294   4.693 -0.4047 -0.5877 -1.0334
 3805TIP3   OH232829   0.005   2.751   1.493  0.1642  0.1814  0.0655
 3805TIP3    H132830  -0.053   2.828   1.490 -0.3449 -0.1612  0.8648
 3805TIP3    H232831  -0.047   2.680   1.456  0.6854  0.2465 -0.8031
 3806TIP3   OH232832   3.185   6.486  13.173  0.5678  0.4609 -0.0905
 3806TIP3    H132833   3.225   6.421  13.115  0.3175 -0.5124  0.8095
 3806TIP3    H232834   3.091   6.474  13.160  0.5345  1.1443 -0.4663
 3807TIP3   OH232835   2.608   0.649  11.863  0.1861  0.1429 -0.0762
 3807TIP3    H132836   2.620   0.555  11.848 -0.1457  0.2721 -1.2113
 3807TIP3    H232837   2.513   0.660  11.871  0.2135  0.4098 -0.1168
 3808TIP3   OH232838   6.063   6.510   5.509 -0.7435  0.3134 -0.5589
 3808TIP3    H132839   6.062   6.475   5.598 -1.1367 -0.0492 -0.7002
 3808TIP3    H232840   5.971   6.508   5.482 -0.4596 -0.9303 -1.4905
 3809TIP3   OH232841   4.073   4.366  14.272  0.5253  0.3248 -0.0913
 3809TIP3    H132842   4.027   4.398  14.349  0.2447 -1.5090  0.5236
 3809TIP3    H232843   4.017   4.392  14.198 -0.4852 -0.1576  0.5025
 3810TIP3   OH232844   4.468   3.416   5.914  0.1905 -0.2065 -0.7443
 3810TIP3    H132845   4.551   3.369   5.907  1.9340  2.8437 -1.1891
 3810TIP3    H232846   4.492   3.506   5.934 -3.0379  0.6875 -0.5485
 3811TIP3   OH232847   2.148   0.276  14.575  0.2936  0.1961  0.1704
 3811TIP3    H132848   2.203   0.214  14.622  0.5795 -0.3839 -0.9233
 3811TIP3    H232849   2.210   0.341  14.541  0.3492 -0.6119 -1.3024
 3812TIP3   OH232850   3.578   5.194   0.330 -0.1245  0.2023 -0.0665
 3812TIP3    H132851   3.524   5.115   0.323  0.3726 -0.1144 -0.4320
 3812TIP3    H232852   3.663   5.162   0.361  0.3780  0.4525 -1.1313
 3813TIP3   OH232853   5.069   2.898  15.387 -0.0191  0.3724  0.4461
 3813TIP3    H132854   5.128   2.910  15.312 -1.3377  1.5490 -0.4291
 3813TIP3    H232855   5.054   2.987  15.419 -0.7739  0.0087  1.0933
 3814TIP3   OH232856   3.708   6.252   3.883 -0.1908  0.3725  0.6394
 3814TIP3    H132857   3.763   6.330   3.887 -0.5769  0.7358 -0.7924
 3814TIP3    H232858   3.622   6.283   3.912 -0.1595  0.3061  0.8007
 3815TIP3   OH232859   2.743   2.830   1.837 -0.1771  0.1710  0.3429
 3815TIP3    H132860   2.742   2.786   1.752  0.4964 -0.7442  0.7972
 3815TIP3    H232861   2.830   2.812   1.872 -0.8314 -0.4070  1.7036
 3816TIP3   OH232862   0.143   0.472   3.334 -0.2428  0.2594  0.0405
 3816TIP3    H132863   0.086   0.412   3.286  3.1412 -1.4648 -2.0761
 3816TIP3    H232864   0.217   0.486   3.275  2.0452  1.5182  3.0839
 3817TIP3   OH232865   3.071   0.316  16.154  0.0906  0.4298  0.3862
 3817TIP3    H132866   3.023   0.352  16.079 -1.5495 -3.4958 -0.5322
 3817TIP3    H232867   3.119   0.242  16.118  1.3878  0.1016  2.7430
 3818TIP3   OH232868   3.773   0.866   1.320  0.0795 -0.2862 -0.4299
 3818TIP3    H132869   3.842   0.871   1.387  0.3307 -0.4350 -0.6776
 3818TIP3    H232870   3.789   0.942   1.264  1.1661 -1.3272 -1.5664
 3819TIP3   OH232871   6.318   4.943   3.274  0.0081 -0.8563  0.0826
 3819TIP3    H132872   6.353   4.854   3.275  0.5049 -0.7047 -1.8021
 3819TIP3    H232873   6.372   4.991   3.337  0.0940 -1.7427  0.6946
 3820TIP3   OH232874   2.884   1.665  12.392  0.1643  0.2174 -0.2800
 3820TIP3    H132875   2.974   1.663  12.359  0.0160 -0.1288 -0.6629
 3820TIP3    H232876   2.844   1.739  12.346 -0.4161 -1.0644 -1.8558
 3821TIP3   OH232877   4.405   6.711   1.225 -0.4024 -0.3777  0.4960
 3821TIP3    H132878   4.466   6.639   1.242 -2.3517 -2.3081 -0.4638
 3821TIP3    H232879   4.386   6.706   1.132 -1.6652  0.5069  0.6924
 3822TIP3   OH232880   4.285   3.037  16.590 -0.0156  0.4794 -0.0485
 3822TIP3    H132881   4.376   3.060  16.608 -0.4001  1.4686  0.6857
 3822TIP3    H232882   4.254   3.107  16.533 -0.5789  0.6391  0.4531
 3823TIP3   OH232883   4.069   0.262   2.452  0.2769  0.5513 -0.2292
 3823TIP3    H132884   3.988   0.213   2.468  0.1349  1.1234  0.8507
 3823TIP3    H232885   4.109   0.218   2.378 -1.1270  0.3745 -0.9021
 3824TIP3   OH232886   0.306   4.879  15.327  0.0571  0.5213  0.0571
 3824TIP3    H132887   0.321   4.786  15.344 -1.2778  0.0946 -1.0194
 3824TIP3    H232888   0.284   4.884  15.235 -2.1864  1.6025  0.6107
 3825TIP3   OH232889   6.162   4.540  10.912 -0.2040  0.3495 -0.3812
 3825TIP3    H132890   6.072   4.562  10.939 -0.0328  0.7949 -0.1709
 3825TIP3    H232891   6.175   4.588  10.831  0.5652  1.9428  0.6633
 3826TIP3   OH232892   4.719   4.250   1.172  0.3805  0.1969 -0.2994
 3826TIP3    H132893   4.761   4.168   1.196 -0.5680 -0.5120 -1.0326
 3826TIP3    H232894   4.713   4.299   1.254  1.7504 -0.0807 -0.0155
 3827TIP3   OH232895   0.349   2.982   0.803  0.2819 -0.1117  0.1885
 3827TIP3    H132896   0.323   2.940   0.721  0.9863 -0.4072  0.1126
 3827TIP3    H232897   0.267   3.012   0.841 -0.1188 -0.5532 -0.3096
 3828TIP3   OH232898   0.664   0.462  11.051 -0.4791  0.4102  0.0367
 3828TIP3    H132899   0.703   0.429  11.132  2.7246  1.1163 -1.1624
 3828TIP3    H232900   0.698   0.551  11.042 -1.4147  0.6237 -1.7056
 3829TIP3   OH232901   6.186   1.314   3.070  0.2810 -0.0316  0.3812
 3829TIP3    H132902   6.106   1.361   3.093 -1.2353 -1.8839 -0.9798
 3829TIP3    H232903   6.229   1.296   3.154 -1.5664 -0.4888  1.2404
 3830TIP3   OH232904   2.111   1.396   5.598 -0.0946  0.3605  0.3677
 3830TIP3    H132905   2.171   1.466   5.572 -0.1712  0.1202 -0.4761
 3830TIP3    H232906   2.168   1.323   5.623 -0.0115 -0.6532 -2.5915
 3831TIP3   OH232907   1.740   1.304   2.745 -0.0799 -0.4314 -0.3516
 3831TIP3    H132908   1.772   1.218   2.717  2.5288  0.2386  0.4568
 3831TIP3    H232909   1.700   1.287   2.830 -2.4372 -1.3607 -1.5902
 3832TIP3   OH232910   1.882   0.865  14.646 -0.0052 -0.1570  0.2160
 3832TIP3    H132911   1.870   0.827  14.733  1.4758  1.2532  1.0555
 3832TIP3    H232912   1.919   0.951  14.662  0.0343  0.2310 -1.8112
 3833TIP3   OH232913   5.728   2.849  11.848 -0.7807  0.5591  0.3084
 3833TIP3    H132914   5.655   2.886  11.896 -0.9388  0.8664 -0.1640
 3833TIP3    H232915   5.785   2.810  11.915 -1.7411 -0.3369  0.6102
 3834TIP3   OH232916   5.602   2.544  13.056  0.4255 -0.0304 -0.0678
 3834TIP3    H132917   5.629   2.452  13.060  0.2486 -0.1208 -1.0032
 3834TIP3    H232918   5.508   2.542  13.040  0.4677  0.3134 -0.3796
 3835TIP3   OH232919   0.793   4.565  16.461  0.5720  0.6433 -0.0445
 3835TIP3    H132920   0.791   4.473  16.487 -4.3759  1.2410  2.4580
 3835TIP3    H232921   0.742   4.568  16.380 -0.0751  1.2486  0.3755
 3836TIP3   OH232922   1.305   1.894  12.821 -0.2798 -0.8389 -0.1540
 3836TIP3    H132923   1.294   1.799  12.817  1.9927 -1.1778  0.8948
 3836TIP3    H232924   1.331   1.911  12.912  0.3547  0.6832 -0.6095
 3837TIP3   OH232925   4.065   5.845   3.611  0.0074 -0.6558  0.0549
 3837TIP3    H132926   4.066   5.784   3.685  1.0199 -0.1885  0.4346
 3837TIP3    H232927   4.016   5.921   3.643 -0.7885 -1.0327 -0.2411
 3838TIP3   OH232928   5.275   1.216   4.369  0.4052 -0.1028 -0.5763
 3838TIP3    H132929   5.341   1.259   4.314  0.2161  0.2555 -0.5261
 3838TIP3    H232930   5.195   1.219   4.317 -0.5272  2.9374  0.8793
 3839TIP3   OH232931   4.515   4.222  16.238  0.0576  0.0332 -0.8274
 3839TIP3    H132932   4.435   4.267  16.265  1.4637  0.3407  3.0799
 3839TIP3    H232933   4.573   4.293  16.210  1.2436  0.4589  2.5763
 3840TIP3   OH232934   5.316   3.781  10.734 -0.6493 -0.0094 -0.1110
 3840TIP3    H132935   5.251   3.739  10.678 -1.6398  0.9453  0.3033
 3840TIP3    H232936   5.350   3.711  10.790 -0.7129 -0.6741 -0.9004
 3841TIP3   OH232937   6.452   4.777   0.930 -0.2602 -0.1657  0.1430
 3841TIP3    H132938   6.483   4.739   1.012 -1.0055 -0.2989  0.3637
 3841TIP3    H232939   6.490   4.864   0.928  0.3251 -0.4171  0.2971
 3842TIP3   OH232940   2.367   5.432  12.782  0.4188  0.9760  0.4081
 3842TIP3    H132941   2.436   5.408  12.721 -1.0330  0.4932 -1.0710
 3842TIP3    H232942   2.413   5.452  12.864  2.2797  0.5493 -0.5148
 3843TIP3   OH232943   2.739   6.452   4.860  0.0854 -0.4049  0.1269
 3843TIP3    H132944   2.805   6.470   4.793  1.4569 -0.1125  1.5266
 3843TIP3    H232945   2.763   6.366   4.895  0.0432 -0.0815  0.9764
 3844TIP3   OH232946   2.698   5.695   4.362  0.2651 -0.1836  0.1392
 3844TIP3    H132947   2.644   5.743   4.300 -1.6310 -1.3043  0.8856
 3844TIP3    H232948   2.769   5.756   4.384 -1.0067  1.5352 -0.4096
 3845TIP3   OH232949   2.361   6.283   2.509  0.6948  0.2282  0.7930
 3845TIP3    H132950   2.352   6.364   2.460 -1.0101  0.8033  1.9751
 3845TIP3    H232951   2.449   6.251   2.489  0.6268  1.2892 -1.2922
 3846TIP3   OH232952   5.874   3.749  11.739 -0.2234 -0.3454  0.1759
 3846TIP3    H132953   5.935   3.718  11.805  0.1529  1.2426  0.6093
 3846TIP3    H232954   5.924   3.814  11.688 -1.3358  0.5111  0.1374
 3847TIP3   OH232955   6.116   6.114   1.018  0.1870 -0.0470 -0.4713
 3847TIP3    H132956   6.128   6.188   1.077  0.8337  0.5801 -1.3820
 3847TIP3    H232957   6.023   6.092   1.026  0.4228 -0.4730  1.3455
 3848TIP3   OH232958   4.202   3.555  14.986  0.2263 -1.0021 -0.0533
 3848TIP3    H132959   4.287   3.598  14.991 -0.0190 -0.5387  0.2902
 3848TIP3    H232960   4.221   3.465  14.961  0.6697 -0.4163 -1.8638
 3849TIP3   OH232961   3.463   6.274   2.959 -0.1147  0.0203  0.4179
 3849TIP3    H132962   3.547   6.253   3.000 -0.4739 -0.4185  0.9463
 3849TIP3    H232963   3.438   6.194   2.913 -0.6713 -0.1558  1.0145
 3850TIP3   OH232964   1.063   5.162  13.051  0.3910  0.1658  0.2406
 3850TIP3    H132965   1.127   5.231  13.070  1.5826 -0.6040 -0.9062
 3850TIP3    H232966   1.091   5.088  13.105 -0.8169  0.5137  1.3800
 3851TIP3   OH232967   4.708   5.754   3.566 -0.4114 -0.4791 -0.4835
 3851TIP3    H132968   4.797   5.789   3.554  0.3154 -1.5756  1.4577
 3851TIP3    H232969   4.665   5.818   3.624  0.1185 -1.4822  1.0498
 3852TIP3   OH232970   4.894   1.273  13.020 -0.1124 -0.1012 -0.2443
 3852TIP3    H132971   4.862   1.231  12.940  0.8482 -1.4723  0.0613
 3852TIP3    H232972   4.831   1.245  13.087 -1.4718  1.8431 -0.6835
 3853TIP3   OH232973   0.238   5.791   5.690 -0.5348 -0.5748 -0.2590
 3853TIP3    H132974   0.321   5.777   5.644 -1.2499 -1.6125 -1.2601
 3853TIP3    H232975   0.173   5.749   5.634 -1.6123 -0.5749  0.9898
 3854TIP3   OH232976   1.684   5.099  13.865  0.6204 -0.6863  0.2101
 3854TIP3    H132977   1.693   5.030  13.930 -2.5744 -0.7106  0.7092
 3854TIP3    H232978   1.595   5.133  13.877  0.6310  0.6461 -2.8319
 3855TIP3   OH232979   2.704   3.593   5.314 -0.0433 -0.4922  0.1770
 3855TIP3    H132980   2.731   3.540   5.389 -0.2235 -0.4588  0.2646
 3855TIP3    H232981   2.706   3.532   5.240  1.0390 -0.3099  0.0402
 3856TIP3   OH232982   2.198   6.386   1.824 -0.4247  0.0180  0.1487
 3856TIP3    H132983   2.289   6.414   1.816 -0.4987  0.4435  0.7243
 3856TIP3    H232984   2.203   6.293   1.843  0.0008  0.5595  2.9369
 3857TIP3   OH232985   0.134   1.336  12.551  0.1273  0.6575  0.3047
 3857TIP3    H132986   0.133   1.362  12.459  2.3656 -1.0029 -0.2190
 3857TIP3    H232987   0.169   1.413  12.597  2.2048  0.3085 -0.6585
 3858TIP3   OH232988   6.306   6.385  10.901  0.3646 -0.2690  0.2897
 3858TIP3    H132989   6.245   6.453  10.872 -0.9219 -2.2999 -1.9491
 3858TIP3    H232990   6.390   6.410  10.862  0.2029  0.7311  0.5727
 3859TIP3   OH232991   0.709   1.590   4.928 -0.3664  0.1831  0.1661
 3859TIP3    H132992   0.760   1.571   5.007 -1.0145 -0.8317  0.3388
 3859TIP3    H232993   0.654   1.513   4.915 -0.4664  0.4590 -1.1257
 3860TIP3   OH232994   2.012   3.353  14.107 -0.1382 -0.5793 -0.2029
 3860TIP3    H132995   1.956   3.373  14.181 -0.6132 -0.8109 -0.4970
 3860TIP3    H232996   2.095   3.395  14.128 -0.2395 -0.7217  0.4983
 3861TIP3   OH232997   5.091   0.393   0.594  0.2596  0.4391 -0.0756
 3861TIP3    H132998   5.169   0.443   0.568  0.7058  0.7052  1.7113
 3861TIP3    H232999   5.017   0.451   0.573  0.4991  0.0404 -2.1124
 3862TIP3   OH233000   5.456   3.070  17.058 -0.3069 -0.3537 -0.4710
 3862TIP3    H133001   5.546   3.095  17.078 -0.8425 -0.1924  1.8130
 3862TIP3    H233002   5.442   2.989  17.107 -1.6658  0.0477 -0.1708
 3863TIP3   OH233003   4.694   3.936   5.139 -0.1543 -0.0009  0.0832
 3863TIP3    H133004   4.654   3.854   5.166 -0.2254  0.1928  0.5635
 3863TIP3    H233005   4.624   3.984   5.095 -0.7050  0.7223  1.7161
 3864TIP3   OH233006   5.187   2.937  11.796  0.2012  0.0963 -0.5543
 3864TIP3    H133007   5.220   2.908  11.881 -0.4852 -1.4497 -0.7934
 3864TIP3    H233008   5.216   2.870  11.735  0.5832  1.1417 -1.5247
 3865TIP3   OH233009   0.977   1.000   3.145 -0.1710 -0.0157  0.2866
 3865TIP3    H133010   1.052   0.960   3.189 -0.6501 -2.3568 -0.9745
 3865TIP3    H233011   0.904   0.942   3.164 -0.6808 -0.3051 -2.3893
 3866TIP3   OH233012   0.316   5.003   3.845 -0.2135 -0.0404  0.2432
 3866TIP3    H133013   0.372   4.937   3.885 -0.1756  1.6052  3.0443
 3866TIP3    H233014   0.372   5.049   3.783  0.3200 -1.2196 -0.1641
 3867TIP3   OH233015   2.697   5.675   4.985  1.0258  0.4601  0.1261
 3867TIP3    H133016   2.695   5.585   4.952 -0.0393  1.3772 -2.4228
 3867TIP3    H233017   2.790   5.697   4.990  1.4019 -1.4126  2.6930
 3868TIP3   OH233018   4.727   5.370   2.316 -0.1076  0.5392 -0.2132
 3868TIP3    H133019   4.811   5.406   2.287  0.3018 -0.6310 -0.5045
 3868TIP3    H233020   4.663   5.435   2.289  0.6364  1.1231 -0.6090
 3869TIP3   OH233021   2.689   6.523  15.512 -0.0121 -0.0497 -0.3284
 3869TIP3    H133022   2.778   6.488  15.507 -0.3175 -0.8226 -0.4216
 3869TIP3    H233023   2.637   6.467  15.454 -0.9640 -0.9035  1.3123
 3870TIP3   OH233024   1.363   5.722  11.240  0.0457 -0.8239  0.4323
 3870TIP3    H133025   1.289   5.745  11.297  0.7199  0.2724  0.8837
 3870TIP3    H233026   1.323   5.710  11.153 -0.4663  1.4254  0.3188
 3871TIP3   OH233027   3.696   4.730  11.569  0.0183  0.5407 -0.0369
 3871TIP3    H133028   3.727   4.639  11.571 -0.7270  0.2701 -0.4789
 3871TIP3    H233029   3.764   4.779  11.616  1.0981 -0.0305 -0.9688
 3872TIP3   OH233030   3.713   2.799   2.685  0.9630 -0.5433 -0.1807
 3872TIP3    H133031   3.702   2.872   2.624  0.6302 -0.4093  0.0385
 3872TIP3    H233032   3.758   2.731   2.634 -0.4149 -0.9037 -0.9423
 3873TIP3   OH233033   4.328   2.491  16.247 -0.3846 -0.3374  0.3583
 3873TIP3    H133034   4.266   2.454  16.185  0.7945 -0.6890 -0.6341
 3873TIP3    H233035   4.291   2.472  16.333 -1.2851 -1.1575 -0.2108
 3874TIP3   OH233036   1.830   5.606   0.379  0.3622  0.4439 -0.3871
 3874TIP3    H133037   1.801   5.572   0.463 -0.4088  1.6126 -0.1811
 3874TIP3    H233038   1.915   5.565   0.365 -0.0492 -0.7065  0.3805
 3875TIP3   OH233039   3.850   5.019   4.328  0.2582 -0.4940  0.2071
 3875TIP3    H133040   3.815   4.935   4.358  0.8072 -0.4508  0.9881
 3875TIP3    H233041   3.833   5.020   4.234 -2.8787  0.0281  0.7266
 3876TIP3   OH233042   2.398   6.161   3.649 -0.8331 -0.1816  0.3890
 3876TIP3    H133043   2.357   6.145   3.564  0.7796  0.5730 -0.5555
 3876TIP3    H233044   2.417   6.074   3.683 -1.4984 -0.4895 -0.0128
 3877TIP3   OH233045   1.211   1.951  11.325  0.0737 -0.2325  0.5421
 3877TIP3    H133046   1.163   1.892  11.384  1.5812 -1.2344  0.7888
 3877TIP3    H233047   1.175   2.038  11.344 -1.7649 -0.9720  0.5996
 3878TIP3   OH233048   5.671   5.212  14.835 -0.4511  0.6523  0.5917
 3878TIP3    H133049   5.680   5.164  14.752  0.1001 -0.5654  1.3383
 3878TIP3    H233050   5.606   5.163  14.884  2.8875 -1.6672  2.9423
 3879TIP3   OH233051   3.471   6.157   0.275  0.3053  0.3387  0.4678
 3879TIP3    H133052   3.454   6.099   0.349  1.2781 -1.0159 -0.3704
 3879TIP3    H233053   3.510   6.101   0.208 -0.3215  1.6031 -0.9861
 3880TIP3   OH233054   2.730   1.770  17.142 -0.2377 -0.2428  0.1533
 3880TIP3    H133055   2.652   1.721  17.169 -0.7116  0.6092  0.3310
 3880TIP3    H233056   2.757   1.729  17.060 -1.9925  0.7023 -0.9066
 3881TIP3   OH233057   3.977   1.168   0.472 -0.6104 -0.2443  0.1876
 3881TIP3    H133058   3.971   1.233   0.542 -0.9312 -0.4382  0.3422
 3881TIP3    H233059   4.060   1.124   0.487 -0.0486  0.6247 -0.3539
 3882TIP3   OH233060   1.565   3.288   0.034  0.0534  0.3473  0.0046
 3882TIP3    H133061   1.547   3.224  -0.036  3.1924  0.0110 -0.5401
 3882TIP3    H233062   1.560   3.373  -0.010  2.9712  0.0985 -0.9271
 3883TIP3   OH233063   1.010   3.989  12.318  0.2382 -0.0078  0.1613
 3883TIP3    H133064   1.052   3.903  12.320  1.0818  0.4101  0.8645
 3883TIP3    H233065   1.034   4.029  12.402  2.0209  1.9162 -1.2067
 3884TIP3   OH233066   3.707   1.728  12.655  0.0187  0.2724  0.1473
 3884TIP3    H133067   3.767   1.770  12.717  0.2264 -1.7473  1.3385
 3884TIP3    H233068   3.696   1.639  12.688 -0.9721 -0.4207 -1.9570
 3885TIP3   OH233069   5.237   1.387  12.885 -0.0148  0.0804 -0.1618
 3885TIP3    H133070   5.173   1.437  12.834  0.1511  1.9940  1.4328
 3885TIP3    H233071   5.320   1.402  12.840  0.1456  1.8322  0.6959
 3886TIP3   OH233072   0.125   2.718  11.767 -0.3851  0.1839 -0.7799
 3886TIP3    H133073   0.213   2.708  11.805 -0.7340  1.5918  0.4340
 3886TIP3    H233074   0.068   2.668  11.826 -0.7855  1.5595  0.0210
 3887TIP3   OH233075   3.870   4.698  10.820  0.6499  0.4861 -0.2012
 3887TIP3    H133076   3.845   4.611  10.790  0.3561  0.7043 -0.6013
 3887TIP3    H233077   3.839   4.757  10.751 -1.1695  1.1205  1.1411
 3888TIP3   OH233078   0.248   6.284  16.104  0.0103  0.2449  0.5848
 3888TIP3    H133079   0.258   6.190  16.096 -1.5648  0.0702  0.4621
 3888TIP3    H233080   0.335   6.320  16.087  0.2715 -1.0842 -0.9377
 3889TIP3   OH233081   5.988   1.039   1.106  0.3096  0.2379  0.1904
 3889TIP3    H133082   5.988   1.000   1.193 -0.1317 -0.6972 -0.2180
 3889TIP3    H233083   5.923   1.110   1.112  0.5369  0.4065  0.7152
 3890TIP3   OH233084   3.940   6.214  13.029  0.3673  0.3059 -0.7562
 3890TIP3    H133085   3.978   6.297  13.059  1.2726  0.0232 -1.1234
 3890TIP3    H233086   3.962   6.152  13.098 -2.0478  0.7809  0.5209
 3891TIP3   OH233087   0.238   5.188  13.769  0.6479 -0.4171  0.5183
 3891TIP3    H133088   0.179   5.246  13.722  0.3932 -2.2707 -1.5174
 3891TIP3    H233089   0.323   5.201  13.726  0.6667 -1.2617  0.2948
 3892TIP3   OH233090   4.678   5.728  11.261 -0.4017  0.0149  0.1257
 3892TIP3    H133091   4.673   5.636  11.238 -1.2522  0.5015 -1.7656
 3892TIP3    H233092   4.639   5.734  11.348 -3.2578 -0.9945 -1.0335
 3893TIP3   OH233093   4.114   0.584  16.389 -0.0466 -0.0444  0.2142
 3893TIP3    H133094   4.078   0.601  16.302  1.4431 -1.6600 -0.7447
 3893TIP3    H233095   4.041   0.545  16.438 -0.4832 -0.4331 -0.7413
 3894TIP3   OH233096   2.608   0.983   1.292  0.2197  0.2847  0.1184
 3894TIP3    H133097   2.533   0.924   1.287  0.7836 -0.4427  0.2181
 3894TIP3    H233098   2.615   1.020   1.204 -0.1076  0.1748  0.0445
 3895TIP3   OH233099   5.043   6.191   0.927 -0.2128  0.3734 -0.0656
 3895TIP3    H133100   5.116   6.158   0.978  0.4042  1.1740 -0.4217
 3895TIP3    H233101   4.973   6.206   0.991  0.4508  1.0871  0.4932
 3896TIP3   OH233102   6.401   4.044  11.231  0.3165 -0.6090  0.4762
 3896TIP3    H133103   6.307   4.029  11.221  0.5124 -0.9512 -0.8792
 3896TIP3    H233104   6.408   4.137  11.251 -0.3930 -0.8321  1.8688
 3897TIP3   OH233105   1.141   6.096  11.743 -0.0788  0.1654 -0.0777
 3897TIP3    H133106   1.059   6.137  11.714 -0.7451 -0.7562  0.4798
 3897TIP3    H233107   1.124   6.002  11.736  0.5375 -0.0424  1.1021
 3898TIP3   OH233108   1.960   2.320  16.191 -0.3444 -0.6819  0.6053
 3898TIP3    H133109   2.024   2.249  16.185  0.7520  0.1679  1.9274
 3898TIP3    H233110   1.945   2.331  16.285 -0.7207  0.6136  0.4094
 3899TIP3   OH233111   1.344   5.172   3.480  0.3737  0.2761  0.5918
 3899TIP3    H133112   1.364   5.115   3.406  0.7101 -0.9639  1.6224
 3899TIP3    H233113   1.366   5.260   3.449  0.3332 -0.2085 -0.8383
 3900TIP3   OH233114   3.034   3.142   1.779  0.3397 -0.0642  0.5019
 3900TIP3    H133115   3.116   3.145   1.828  0.2595  1.2291  0.5805
 3900TIP3    H233116   3.054   3.185   1.696  0.3455 -1.8208 -0.4372
 3901TIP3   OH233117   5.263   4.661   5.031  0.2489  0.2400  0.5417
 3901TIP3    H133118   5.296   4.650   4.942 -1.6338 -0.5206 -0.0968
 3901TIP3    H233119   5.273   4.754   5.049 -0.8626  0.7120 -1.1180
 3902TIP3   OH233120   6.622   0.844   2.622  0.0138 -0.0949  0.2414
 3902TIP3    H133121   6.563   0.902   2.574  0.8182  0.6421  0.1304
 3902TIP3    H233122   6.657   0.899   2.693  0.2282 -0.6520  0.5691
 3903TIP3   OH233123   6.068   4.910   1.432 -0.0869 -0.5876  0.1202
 3903TIP3    H133124   6.041   4.818   1.424  1.5007 -1.1490  1.0344
 3903TIP3    H233125   6.116   4.914   1.514  1.4276  0.6701 -0.8065
 3904TIP3   OH233126   5.795   3.862   5.069  0.3806  0.1609  0.4668
 3904TIP3    H133127   5.741   3.787   5.093  0.5164 -0.0401  0.1482
 3904TIP3    H233128   5.802   3.857   4.973  1.9573 -0.5110  0.5990
 3905TIP3   OH233129   2.036   5.789  12.144 -0.1419  0.0006 -0.0966
 3905TIP3    H133130   2.122   5.804  12.107 -0.3764  2.0173  0.1411
 3905TIP3    H233131   1.994   5.875  12.144 -1.0186 -0.3635  2.6328
 3906TIP3   OH233132   1.851   1.705  10.635 -0.8010 -0.1234  0.6492
 3906TIP3    H133133   1.884   1.781  10.587  1.6923 -0.9015  1.0198
 3906TIP3    H233134   1.775   1.675  10.585  0.2272  0.5986 -1.4024
 3907TIP3   OH233135   3.148   5.347   1.663 -0.6865  0.0684 -0.2002
 3907TIP3    H133136   3.182   5.290   1.594  1.1366 -0.1238  0.8171
 3907TIP3    H233137   3.133   5.288   1.737 -1.0132  0.5270  0.0983
 3908TIP3   OH233138   0.481   2.866  17.210 -0.2739  0.3472 -0.0429
 3908TIP3    H133139   0.512   2.805  17.277 -0.2080  1.2652  0.7698
 3908TIP3    H233140   0.431   2.811  17.149  0.0020 -0.5570  0.5363
 3909TIP3   OH233141   6.485   0.884  15.171 -0.3282 -0.2246  0.5678
 3909TIP3    H133142   6.486   0.873  15.266 -0.6622 -0.7432  0.5105
 3909TIP3    H233143   6.577   0.881  15.145 -0.1261  1.4204  1.0501
 3910TIP3   OH233144   1.036   0.568   3.071 -0.5064  0.2297  0.5671
 3910TIP3    H133145   1.077   0.488   3.103  0.0897  0.0868 -0.5255
 3910TIP3    H233146   1.107   0.632   3.070 -0.2371 -0.0659 -1.5102
 3911TIP3   OH233147   4.509   3.935  16.196 -0.3429  0.2385 -0.7674
 3911TIP3    H133148   4.421   3.919  16.163 -1.8163  1.6472  2.2997
 3911TIP3    H233149   4.523   4.029  16.185 -0.6832  0.6655  1.9852
 3912TIP3   OH233150   5.914   3.635   2.583 -0.3364 -0.0173 -0.2001
 3912TIP3    H133151   6.006   3.647   2.604  0.0318 -1.8346 -0.6988
 3912TIP3    H233152   5.871   3.621   2.668 -0.0458  0.1646 -0.0250
 3913TIP3   OH233153   1.499   4.380   4.552  0.5241 -0.0161 -0.6002
 3913TIP3    H133154   1.419   4.335   4.525  0.8226 -0.1292 -1.2962
 3913TIP3    H233155   1.524   4.338   4.635  1.3149 -1.7570 -1.6998
 3914TIP3   OH233156   6.603   2.568   2.322 -0.7753 -0.3342  0.4225
 3914TIP3    H133157   6.631   2.476   2.316  0.1108 -0.0451 -0.0195
 3914TIP3    H233158   6.643   2.599   2.404  1.7162  0.5699 -1.0875
 3915TIP3   OH233159   0.056   3.644  10.997  0.5372  0.2180  0.1517
 3915TIP3    H133160   0.109   3.702  10.942  1.5786 -0.9791 -0.1328
 3915TIP3    H233161   0.017   3.582  10.935  0.2722 -0.0362  0.5724
 3916TIP3   OH233162   1.862   5.698   1.385 -0.1194  0.0514 -0.3969
 3916TIP3    H133163   1.876   5.726   1.294  0.0153  0.7767 -0.1620
 3916TIP3    H233164   1.771   5.668   1.387 -0.6645  1.6436 -0.3893
 3917TIP3   OH233165   6.125   1.778   4.295  0.4047 -0.2559  0.2552
 3917TIP3    H133166   6.176   1.796   4.374 -0.6964 -1.0234  1.1578
 3917TIP3    H233167   6.161   1.837   4.229  0.2683  1.5719  1.7747
 3918TIP3   OH233168   0.405   6.183  11.300  0.0460  0.0567  0.1577
 3918TIP3    H133169   0.332   6.154  11.354 -0.7442  0.1144 -0.8604
 3918TIP3    H233170   0.441   6.101  11.264 -0.9582  0.1630 -1.1505
 3919TIP3   OH233171   1.338   5.867   5.600  0.0911 -1.2421  0.1933
 3919TIP3    H133172   1.283   5.837   5.528 -1.3439  0.0451  0.7303
 3919TIP3    H233173   1.352   5.790   5.654  0.3920 -2.0010 -0.9520
 3920TIP3   OH233174   1.015   0.134   4.424 -0.6895  0.1621  0.4487
 3920TIP3    H133175   1.020   0.165   4.334 -0.8236 -0.4190  0.2385
 3920TIP3    H233176   1.089   0.175   4.468 -1.9151  2.2278  0.6204
 3921TIP3   OH233177   3.195   5.566   4.857 -0.1500 -0.4003  0.5599
 3921TIP3    H133178   3.164   5.521   4.779  1.2737 -0.0590 -0.2275
 3921TIP3    H233179   3.246   5.499   4.904 -1.7263 -0.8514  1.6462
 3922TIP3   OH233180   2.277   0.579  17.065  0.0694  0.7561  0.2490
 3922TIP3    H133181   2.282   0.642  17.137 -1.0704 -0.4039  1.3776
 3922TIP3    H233182   2.215   0.617  17.003  1.2299  1.8705 -0.2525
 3923TIP3   OH233183   4.626   1.386  11.183  0.0185 -0.4030 -0.3137
 3923TIP3    H133184   4.662   1.396  11.094 -1.3894  1.2077 -0.7311
 3923TIP3    H233185   4.555   1.323  11.173 -0.5614  0.2660 -0.4725
 3924TIP3   OH233186   5.240   1.752   3.664  0.0990 -0.2690 -0.0277
 3924TIP3    H133187   5.298   1.715   3.730  0.0408 -1.5183 -0.6649
 3924TIP3    H233188   5.159   1.702   3.672  0.5757 -1.4255 -2.0089
 3925TIP3   OH233189   4.102   6.080   2.333 -0.0983 -0.5273  0.0846
 3925TIP3    H133190   4.036   6.011   2.334 -0.4294 -0.2175 -0.1739
 3925TIP3    H233191   4.140   6.075   2.245 -2.5968  1.9254 -1.2465
 3926TIP3   OH233192   5.635   5.910  11.379  0.1801 -0.3101  0.2409
 3926TIP3    H133193   5.675   5.993  11.405 -1.1563  0.8497 -1.2967
 3926TIP3    H233194   5.637   5.912  11.283 -2.9176 -0.5265  0.1268
 3927TIP3   OH233195   2.644   3.079   1.149 -0.5040 -0.0089 -0.1424
 3927TIP3    H133196   2.678   3.169   1.144  0.0099 -0.0232  2.4737
 3927TIP3    H233197   2.557   3.084   1.109  0.0783  1.3394 -1.2894
 3928TIP3   OH233198   5.385   2.626   3.619 -0.2899  0.0542  0.0259
 3928TIP3    H133199   5.303   2.602   3.662  0.6314  1.2092  2.4563
 3928TIP3    H233200   5.357   2.663   3.535 -2.3758  2.0116  1.5204
 3929TIP3   OH233201   2.720   6.585   4.082  0.2713 -0.1143 -0.7138
 3929TIP3    H133202   2.752   6.588   4.172  0.1360 -0.3950 -0.6565
 3929TIP3    H233203   2.627   6.564   4.090 -0.0492  1.2050 -0.8576
 3930TIP3   OH233204   6.652   0.121   2.034  0.7467  0.2630 -0.2226
 3930TIP3    H133205   6.641   0.125   1.939  0.4030 -1.3300 -0.2720
 3930TIP3    H233206   6.591   0.052   2.062  0.1674  1.3562  1.2637
 3931TIP3   OH233207   6.304   0.304   2.103 -0.0373 -0.7294 -0.5576
 3931TIP3    H133208   6.376   0.278   2.044  0.5290 -1.5387  0.4772
 3931TIP3    H233209   6.248   0.359   2.048 -0.2957 -2.6658 -2.3037
 3932TIP3   OH233210   0.877   2.423   0.638 -0.0389 -0.5859 -0.1821
 3932TIP3    H133211   0.824   2.399   0.561 -0.1271  0.4636 -0.4659
 3932TIP3    H233212   0.815   2.425   0.710 -0.0172 -1.2539 -0.1388
 3933TIP3   OH233213   0.730   5.820  14.387 -0.1162  0.5847 -0.3213
 3933TIP3    H133214   0.696   5.907  14.407  0.4509  1.3515 -2.5805
 3933TIP3    H233215   0.752   5.823  14.294  1.4464 -1.4689 -0.0601
 3934TIP3   OH233216   0.460   4.445   3.331  0.4852 -0.8121 -0.3430
 3934TIP3    H133217   0.532   4.479   3.384 -0.1136 -0.0108 -0.0383
 3934TIP3    H233218   0.453   4.353   3.356  1.9391 -1.1041 -0.9758
 3935TIP3   OH233219   5.302   2.568   2.821  0.0007 -0.0232  0.3392
 3935TIP3    H133220   5.252   2.543   2.743  0.4123 -2.7252  0.8795
 3935TIP3    H233221   5.251   2.533   2.894  0.6655  0.6904  1.1573
 3936TIP3   OH233222   5.271   0.618   1.746  0.1220 -0.0522 -0.1384
 3936TIP3    H133223   5.195   0.664   1.780 -1.0494 -1.5196 -0.7091
 3936TIP3    H233224   5.286   0.547   1.808 -1.6225 -2.3413 -2.2397
 3937TIP3   OH233225   6.097   4.434   5.234  0.0111 -0.0535  0.6597
 3937TIP3    H133226   6.059   4.477   5.311 -0.9672 -1.8717  1.2187
 3937TIP3    H233227   6.033   4.448   5.165  0.0243 -0.0143  0.6550
 3938TIP3   OH233228   6.623   6.190  14.959  0.3876 -0.5649  0.1549
 3938TIP3    H133229   6.669   6.114  14.995 -0.2804 -0.9490  0.2016
 3938TIP3    H233230   6.669   6.266  14.996  0.5834 -0.9500  0.7015
 3939TIP3   OH233231   0.790   0.150   0.209 -0.4756  0.1202  0.2632
 3939TIP3    H133232   0.800   0.230   0.260 -0.8090 -0.4879  1.2837
 3939TIP3    H233233   0.707   0.113   0.237  0.5253 -1.5228  1.1080
 3940TIP3   OH233234   4.088   0.665  17.170  0.1919 -0.3593 -0.0600
 3940TIP3    H133235   4.135   0.632  17.246 -0.1131  3.2306  1.7784
 3940TIP3    H233236   4.157   0.698  17.112  0.2201  0.4896  0.4505
 3941TIP3   OH233237   1.335   1.070   4.267  0.0227  0.2740  0.0888
 3941TIP3    H133238   1.421   1.079   4.310  0.3434 -0.6355 -0.3647
 3941TIP3    H233239   1.350   1.103   4.178 -0.3862  1.1720  0.3428
 3942TIP3   OH233240   4.617   4.471  12.029 -0.5628 -0.2336  0.3988
 3942TIP3    H133241   4.659   4.506  11.951  0.4133 -0.4432  0.8228
 3942TIP3    H233242   4.659   4.386  12.043 -1.8097 -0.8769  0.2800
 3943TIP3   OH233243   0.840   1.679   0.394 -0.1021 -0.4984 -0.2061
 3943TIP3    H133244   0.886   1.751   0.350 -1.9191 -0.3869 -2.0029
 3943TIP3    H233245   0.907   1.638   0.450  1.8631  0.3868 -1.8390
 3944TIP3   OH233246   3.027   5.538   5.800  0.6351  0.1395  0.4633
 3944TIP3    H133247   3.031   5.617   5.854  1.2010  2.1404 -2.3792
 3944TIP3    H233248   3.118   5.512   5.788  0.6886  1.0326 -1.3165
 3945TIP3   OH233249   4.967   3.141   4.812  0.1416 -0.0834 -0.3581
 3945TIP3    H133250   5.034   3.209   4.819 -0.7935  0.8776 -0.6311
 3945TIP3    H233251   4.994   3.074   4.875  1.6777  0.0082 -0.8911
 3946TIP3   OH233252   6.335   3.617   5.984  0.1742  0.3421  0.3634
 3946TIP3    H133253   6.295   3.549   6.038  1.8285  0.0640  1.2446
 3946TIP3    H233254   6.363   3.683   6.046 -1.6570  2.0022 -0.5039
 3947TIP3   OH233255   2.510   3.111   2.675 -0.0559  0.2741 -0.2382
 3947TIP3    H133256   2.520   3.068   2.590  2.0254 -0.8871  0.5540
 3947TIP3    H233257   2.600   3.123   2.707 -0.7665  1.7058  1.3003
 3948TIP3   OH233258   5.197   4.872   3.646  0.1350 -0.2822 -0.2046
 3948TIP3    H133259   5.137   4.917   3.705 -0.3856 -1.5090  0.2225
 3948TIP3    H233260   5.234   4.801   3.699  0.2031 -0.9559 -1.1457
 3949TIP3   OH233261   6.098   2.742  15.244  0.0418  0.0704  0.1714
 3949TIP3    H133262   6.161   2.721  15.175 -0.0653 -0.7211  0.3211
 3949TIP3    H233263   6.038   2.667  15.246 -0.7873  0.7203  0.1689
 3950TIP3   OH233264   5.189   4.824   5.584  0.1750 -0.1924 -0.5266
 3950TIP3    H133265   5.235   4.783   5.510  1.4238 -0.5298  0.4096
 3950TIP3    H233266   5.118   4.764   5.604  0.3528 -0.5373 -0.9106
 3951TIP3   OH233267   6.555   5.298  14.585 -0.1511 -0.0775  0.1573
 3951TIP3    H133268   6.555   5.374  14.643 -0.9352 -2.1371  2.9446
 3951TIP3    H233269   6.643   5.262  14.593  0.4913  0.9677 -1.8243
 3952TIP3   OH233270   5.378   1.836  10.737 -0.2755 -0.1258  0.6802
 3952TIP3    H133271   5.303   1.799  10.784 -0.7463  2.0848  1.7781
 3952TIP3    H233272   5.445   1.848  10.804  0.2509 -0.0220  0.1410
 3953TIP3   OH233273   1.333   5.046   0.205 -0.8363 -0.2635  0.3322
 3953TIP3    H133274   1.387   4.994   0.265  0.0054 -0.3640 -0.5056
 3953TIP3    H233275   1.262   4.987   0.180  0.0269 -0.9781 -0.4898
 3954TIP3   OH233276   6.073   6.103   5.576  0.0630 -0.1288 -0.0350
 3954TIP3    H133277   6.129   6.058   5.640 -0.2280 -0.4633 -0.0151
 3954TIP3    H233278   5.987   6.061   5.586  0.1323 -0.4805 -0.9626
 3955TIP3   OH233279   1.134   4.904  15.621  0.4148  0.4826  0.1836
 3955TIP3    H133280   1.130   4.844  15.696  0.9313  0.9907  0.6235
 3955TIP3    H233281   1.073   4.975  15.643 -1.6980 -0.8384 -1.2126
 3956TIP3   OH233282   5.700   0.264  13.998 -0.1998  0.3593 -0.1872
 3956TIP3    H133283   5.645   0.225  13.931  2.2283  1.4673 -2.9011
 3956TIP3    H233284   5.745   0.190  14.038 -2.1558 -0.3667  0.7461
 3957TIP3   OH233285   1.716   6.197   1.057 -0.1420  0.5390 -0.1578
 3957TIP3    H133286   1.715   6.277   1.005  1.3008  0.7129  0.0385
 3957TIP3    H233287   1.673   6.131   1.003 -0.4277  1.1994 -0.7358
 3958TIP3   OH233288   4.253   2.470  12.244  0.5535  0.0416  0.7010
 3958TIP3    H133289   4.219   2.515  12.321  2.1530 -0.5782  1.7904
 3958TIP3    H233290   4.257   2.378  12.269  0.1148 -0.3144 -0.4860
 3959TIP3   OH233291   3.636   2.278   2.369 -0.0016 -0.2066 -0.2823
 3959TIP3    H133292   3.585   2.309   2.294  0.9935  2.0023 -0.0912
 3959TIP3    H233293   3.679   2.198   2.337  0.0944  0.4837 -1.9536
 3960TIP3   OH233294   4.633   6.269  16.325  0.5246  0.2133  0.1312
 3960TIP3    H133295   4.675   6.328  16.388 -1.0521  2.1474 -0.5857
 3960TIP3    H233296   4.546   6.252  16.362 -0.4751  1.4881 -1.5723
 3961TIP3   OH233297   3.691   2.661   5.857 -0.0748  0.4274 -0.6567
 3961TIP3    H133298   3.745   2.712   5.917  1.4701  0.6473 -2.1638
 3961TIP3    H233299   3.741   2.581   5.843 -1.5634 -0.6629  0.1989
 3962TIP3   OH233300   5.179   1.696  15.953 -0.5410  0.2377  0.2900
 3962TIP3    H133301   5.096   1.733  15.982  0.0694  1.0506  1.0359
 3962TIP3    H233302   5.157   1.644  15.876 -1.5041  1.6855 -0.4296
 3963TIP3   OH233303   3.705   1.422   2.781 -0.0303 -0.1604 -0.2088
 3963TIP3    H133304   3.720   1.467   2.697 -0.0675 -0.7885 -0.5581
 3963TIP3    H233305   3.787   1.374   2.796 -0.3638 -0.7739 -0.3442
 3964TIP3   OH233306   0.871   1.739   3.263  0.3577  0.4649  0.5264
 3964TIP3    H133307   0.829   1.748   3.348  0.1616 -0.9029  0.5929
 3964TIP3    H233308   0.963   1.723   3.283  0.1667 -0.6876  0.5184
 3965TIP3   OH233309   5.152   1.014   5.033 -0.2628  0.1329 -0.1496
 3965TIP3    H133310   5.132   0.968   4.952 -1.1213  0.9779 -0.4252
 3965TIP3    H233311   5.102   0.968   5.100 -0.0062 -0.2081 -0.1914
 3966TIP3   OH233312   2.696   6.038   0.206 -0.4752 -0.3121 -0.0477
 3966TIP3    H133313   2.605   6.017   0.186 -0.6218  0.2767 -0.0004
 3966TIP3    H233314   2.725   6.091   0.132 -0.3305 -0.0519  0.1974
 3967TIP3   OH233315   0.183   0.253  10.562 -0.1254 -0.1257  0.2211
 3967TIP3    H133316   0.221   0.201  10.632 -1.1609  0.0386  0.9050
 3967TIP3    H233317   0.233   0.228  10.484  0.8585 -0.4871  0.9560
 3968TIP3   OH233318   4.203   4.742  15.437 -0.0713 -0.0884 -0.0213
 3968TIP3    H133319   4.165   4.825  15.468  0.9317  0.9672 -1.5129
 3968TIP3    H233320   4.239   4.701  15.515 -1.0297  0.6343  0.8259
 3969TIP3   OH233321   6.199   4.655  14.315  0.1902  0.2898 -0.7702
 3969TIP3    H133322   6.197   4.561  14.333  1.8240 -0.1301 -2.5797
 3969TIP3    H233323   6.134   4.667  14.245  0.5731  0.3589 -1.1164
 3970TIP3   OH233324   2.179   0.559  14.776  0.2158  0.3351  0.3611
 3970TIP3    H133325   2.161   0.538  14.684  0.6051  0.7687  0.1879
 3970TIP3    H233326   2.271   0.538  14.788 -0.0947 -0.7203  0.9374
 3971TIP3   OH233327   0.317   5.232  16.111  0.1478 -0.0355 -0.4517
 3971TIP3    H133328   0.285   5.204  16.197 -1.2741 -1.3662 -1.3873
 3971TIP3    H233329   0.289   5.163  16.051  0.7169  1.1000 -2.0741
 3972TIP3   OH233330   2.625   4.776  14.427  0.1024 -0.2159  0.4887
 3972TIP3    H133331   2.627   4.847  14.364  1.5676 -0.7126 -0.0470
 3972TIP3    H233332   2.532   4.762  14.445 -0.2863  0.4818 -0.9232
 3973TIP3   OH233333   1.367   6.030  12.213 -0.5291 -0.3846 -0.2606
 3973TIP3    H133334   1.327   6.067  12.135 -0.3507  3.8377  1.5018
 3973TIP3    H233335   1.296   5.983  12.256 -2.0236  1.6570 -0.3963
 3974TIP3   OH233336   3.107   2.300  12.018 -0.0228  0.0410 -0.7253
 3974TIP3    H133337   3.046   2.244  12.066 -0.1093 -0.6334 -1.6146
 3974TIP3    H233338   3.063   2.318  11.935  0.2255  1.0174 -0.6537
 3975TIP3   OH233339   0.227   1.079   0.187 -0.0092  0.3393 -0.2419
 3975TIP3    H133340   0.225   0.997   0.236 -0.4620  0.2851 -0.3519
 3975TIP3    H233341   0.136   1.095   0.163 -0.0744  1.4173  0.6728
 3976TIP3   OH233342   0.898   5.671  17.168 -0.1375 -0.4194 -0.3371
 3976TIP3    H133343   0.823   5.656  17.111 -1.1282 -2.2306  1.3679
 3976TIP3    H233344   0.928   5.583  17.192  1.7751  0.2964 -0.0300
 3977TIP3   OH233345   3.641   2.106   0.207 -0.3219  0.0736  0.2773
 3977TIP3    H133346   3.627   2.187   0.158  1.4993 -0.7731 -1.7411
 3977TIP3    H233347   3.713   2.127   0.267  0.5195 -0.1997 -0.6306
 3978TIP3   OH233348   1.169   5.519   4.699 -0.2032 -0.3582  0.1342
 3978TIP3    H133349   1.202   5.451   4.758  1.1606 -1.2696 -1.6270
 3978TIP3    H233350   1.244   5.543   4.645 -1.0438  1.5332 -0.2328
 3979TIP3   OH233351   2.839   3.375  14.184  0.2770 -0.0997  0.2462
 3979TIP3    H133352   2.810   3.414  14.102  0.0416 -1.2581 -0.2385
 3979TIP3    H233353   2.835   3.446  14.248 -1.8569  0.2234 -0.2198
 3980TIP3   OH233354   1.564   1.965   4.249  0.1961 -0.3163  0.9930
 3980TIP3    H133355   1.516   1.951   4.168  2.3231  1.8570 -0.7279
 3980TIP3    H233356   1.598   1.879   4.272  1.9057 -0.4938 -1.9947
 3981TIP3   OH233357   2.416   1.626   5.232 -0.1752 -0.5154  0.0928
 3981TIP3    H133358   2.466   1.546   5.249  1.9116  0.9712  1.0385
 3981TIP3    H233359   2.418   1.636   5.136  0.9753 -0.7098  0.0898
 3982TIP3   OH233360   0.468   6.690  11.471 -0.4685 -0.8272  0.2244
 3982TIP3    H133361   0.471   6.594  11.471  0.3573 -0.8239 -1.1875
 3982TIP3    H233362   0.377   6.712  11.491 -0.9345 -1.9286 -0.6534
 3983TIP3   OH233363   1.233   5.732   1.690  0.4590 -0.0938 -0.5404
 3983TIP3    H133364   1.181   5.674   1.745 -0.2207  1.1325  0.1318
 3983TIP3    H233365   1.313   5.683   1.673  0.6666 -0.5058  1.5029
 3984TIP3   OH233366   1.336   4.712   0.270 -0.0413  0.5864 -0.3618
 3984TIP3    H133367   1.412   4.738   0.217  0.0177  1.9787  0.4026
 3984TIP3    H233368   1.261   4.746   0.223 -0.1785 -0.3743 -0.8623
 3985TIP3   OH233369   6.323   2.231  14.055 -0.9235 -0.2322  0.2669
 3985TIP3    H133370   6.304   2.280  14.135  0.9117  0.8014  0.0862
 3985TIP3    H233371   6.292   2.287  13.984  0.5589  0.4034  0.0963
 3986TIP3   OH233372   5.291   1.422   0.925  0.1279  0.6215 -0.0546
 3986TIP3    H133373   5.358   1.359   0.954 -0.7248 -0.6433 -0.8095
 3986TIP3    H233374   5.215   1.404   0.980 -0.7423 -0.2659 -1.5279
 3987TIP3   OH233375   5.968   0.408  14.828 -0.2742  0.2962 -0.0081
 3987TIP3    H133376   5.962   0.316  14.852  1.5436 -0.8616 -3.5702
 3987TIP3    H233377   5.908   0.417  14.754  0.5687  1.6453 -0.5590
 3988TIP3   OH233378   2.166   4.359  13.724  0.1815 -0.1871 -0.0869
 3988TIP3    H133379   2.126   4.288  13.773  1.7277 -0.8446  0.2532
 3988TIP3    H233380   2.094   4.418  13.703 -0.6858 -0.5277  1.8987
 3989TIP3   OH233381   4.980   5.007  15.916 -0.0915 -0.8329  0.1321
 3989TIP3    H133382   4.953   4.946  15.848  2.6048 -1.8010 -0.1178
 3989TIP3    H233383   5.070   4.983  15.936  0.0392  1.1483  2.1702
 3990TIP3   OH233384   3.922   4.044   3.217 -0.3279  0.1029  0.3976
 3990TIP3    H133385   3.971   4.039   3.135  0.7797  0.6540  1.0135
 3990TIP3    H233386   3.896   3.954   3.235 -0.3084 -0.0674 -0.3884
 3991TIP3   OH233387   6.636   4.638  13.944  0.4034 -0.1751 -0.2999
 3991TIP3    H133388   6.595   4.722  13.960 -0.5448 -0.6633 -0.1038
 3991TIP3    H233389   6.680   4.648  13.859  0.3803  0.5385 -0.2254
 3992TIP3   OH233390   5.492   1.580  16.044  0.3059  0.2214  0.0580
 3992TIP3    H133391   5.436   1.611  16.115  0.7478 -1.3541  1.1144
 3992TIP3    H233392   5.459   1.494  16.022  0.9762  0.1671 -0.7786
 3993TIP3   OH233393   6.768   2.178   3.102  0.0625  0.2855 -0.4728
 3993TIP3    H133394   6.735   2.095   3.136 -0.0147 -0.0512 -1.3591
 3993TIP3    H233395   6.854   2.189   3.144  0.0285 -0.1892 -0.2802
 3994TIP3   OH233396   5.968   2.065  12.690 -0.2434 -0.2574  0.2178
 3994TIP3    H133397   5.991   2.158  12.691 -0.7609 -0.1120 -1.0867
 3994TIP3    H233398   5.896   2.057  12.753 -0.1313  0.1953  0.4030
 3995TIP3   OH233399   6.765   5.963   1.153  0.4075 -0.3175  0.2833
 3995TIP3    H133400   6.860   5.971   1.148  0.4256 -0.5180  0.3120
 3995TIP3    H233401   6.736   6.046   1.193  0.5062  0.0615 -0.4270
 3996TIP3   OH233402   1.846   3.464   3.213 -0.3105  0.5441  0.5117
 3996TIP3    H133403   1.915   3.513   3.168 -0.2602 -0.0542 -0.0747
 3996TIP3    H233404   1.849   3.496   3.303 -0.5248  1.8758  0.0567
 3997TIP3   OH233405   4.861   5.113   1.651 -0.2560 -0.1092 -0.4658
 3997TIP3    H133406   4.902   5.092   1.567 -0.1887 -0.5688 -0.3206
 3997TIP3    H233407   4.809   5.036   1.672 -1.2888  0.5144 -0.6937
 3998TIP3   OH233408   1.616   0.228   0.032 -0.7008  1.0538  0.6888
 3998TIP3    H133409   1.588   0.319   0.020  0.6751  1.3172 -0.7688
 3998TIP3    H233410   1.635   0.198  -0.057  2.1486  0.4470  1.4656
 3999TIP3   OH233411   3.726   1.914  13.744 -0.0969  0.1063 -0.2557
 3999TIP3    H133412   3.737   1.913  13.839 -0.4227  1.1484 -0.1993
 3999TIP3    H233413   3.645   1.866  13.729 -0.5503  0.7613  0.0736
 4000TIP3   OH233414   2.398   6.630   3.107 -0.5374  0.0489  0.5743
 4000TIP3    H133415   2.396   6.725   3.116 -2.7338  0.0203  0.5448
 4000TIP3    H233416   2.406   6.598   3.197  0.1868  0.2404  0.5849
 4001TIP3   OH233417   4.795   0.674   3.329 -0.0860  0.1954  0.2912
 4001TIP3    H133418   4.733   0.742   3.301  1.3852  1.2046 -0.5794
 4001TIP3    H233419   4.775   0.599   3.274 -0.8238  0.3594  0.3271
 4002TIP3   OH233420   3.914   4.116  12.988 -0.4224  0.2374 -0.2714
 4002TIP3    H133421   3.955   4.069  12.915 -1.2731 -1.2421  0.1662
 4002TIP3    H233422   3.859   4.182  12.947 -2.5852 -1.9863 -1.0991
 4003TIP3   OH233423   2.313   6.490   2.864 -0.2333 -0.2702  0.2833
 4003TIP3    H133424   2.295   6.571   2.816  3.7201 -0.5767 -1.8778
 4003TIP3    H233425   2.348   6.520   2.948  0.1583  0.2673 -0.0646
 4004TIP3   OH233426   5.626   0.669   4.651 -0.1315  0.1030 -0.1804
 4004TIP3    H133427   5.544   0.715   4.634  0.5650  0.3388 -3.0471
 4004TIP3    H233428   5.692   0.738   4.654  0.2539 -0.2753  0.2577
 4005TIP3   OH233429   3.754   1.927   2.183 -0.5349 -0.3810  0.1673
 4005TIP3    H133430   3.761   1.997   2.118 -1.7176  0.5972  1.0685
 4005TIP3    H233431   3.684   1.871   2.151  0.2754 -1.0669 -0.4488
 4006TIP3   OH233432   4.945   3.938  16.060  0.1999 -0.5851 -0.3074
 4006TIP3    H133433   4.930   3.903  16.148 -2.8188  2.8078  0.6701
 4006TIP3    H233434   4.867   3.912  16.010  0.8180 -0.5026 -1.3391
 4007TIP3   OH233435   4.407   1.914   3.801  0.0941  0.6222  0.7429
 4007TIP3    H133436   4.442   2.003   3.805  0.8623  0.3976 -0.5608
 4007TIP3    H233437   4.482   1.860   3.774 -0.1669 -0.5470  2.2610
 4008TIP3   OH233438   1.273   6.038   0.592 -0.3216 -0.2717  0.1181
 4008TIP3    H133439   1.299   6.036   0.684 -0.6032  0.2473  0.2147
 4008TIP3    H233440   1.178   6.053   0.595 -0.3854 -0.6258 -0.2482
 4009TIP3   OH233441   4.124   3.734  16.563  0.1385 -0.2525  0.1671
 4009TIP3    H133442   4.122   3.736  16.467 -1.0749  0.8011  0.2069
 4009TIP3    H233443   4.071   3.809  16.590 -0.2820 -1.0816  1.6782
 4010TIP3   OH233444   5.892   6.561   3.658 -0.1751  0.6925 -0.3050
 4010TIP3    H133445   5.939   6.595   3.735 -1.3791  0.3594  0.5795
 4010TIP3    H233446   5.908   6.467   3.660 -2.2613  0.3483  0.9556
 4011TIP3   OH233447   2.800   2.230  13.112 -0.1648  0.1258  0.5761
 4011TIP3    H133448   2.760   2.226  13.198 -0.8602  0.4703  0.2746
 4011TIP3    H233449   2.889   2.263  13.128 -0.4400  0.6121  1.1108
 4012TIP3   OH233450   3.873   1.660   4.322 -0.3247  0.5866  0.4341
 4012TIP3    H133451   3.963   1.691   4.332  0.1108  0.7627 -3.3439
 4012TIP3    H233452   3.871   1.576   4.367  2.0210  0.1109 -0.2862
 4013TIP3   OH233453   2.140   5.158  16.156 -0.0297 -0.0388  0.1726
 4013TIP3    H133454   2.208   5.153  16.089  0.8050  2.6586  0.7408
 4013TIP3    H233455   2.151   5.079  16.207  1.4035 -0.5922 -0.9532
 4014TIP3   OH233456   0.149   6.626  13.422  0.0301  0.2003 -0.0275
 4014TIP3    H133457   0.142   6.721  13.428  0.7653  0.2278  0.6384
 4014TIP3    H233458   0.242   6.610  13.403  0.7676 -0.4989  3.7587
 4015TIP3   OH233459   5.434   4.468   5.573 -0.7517 -0.3494 -0.4340
 4015TIP3    H133460   5.369   4.534   5.546  0.2868  1.3594  1.0973
 4015TIP3    H233461   5.518   4.508   5.554 -0.0549 -0.2437  2.6140
 4016TIP3   OH233462   4.123   0.812  13.635  0.4184  0.4881 -0.6681
 4016TIP3    H133463   4.140   0.877  13.567  1.2995  2.3097  1.2259
 4016TIP3    H233464   4.080   0.861  13.705  2.3585 -0.6055  1.3933
 4017TIP3   OH233465   4.746   6.100  11.768 -0.2059  0.1995  0.0902
 4017TIP3    H133466   4.811   6.122  11.835 -0.1984  0.1134  0.1108
 4017TIP3    H233467   4.720   6.010  11.787 -0.8688  0.4845  0.5136
 4018TIP3   OH233468   5.692   1.311  13.724  0.3154 -0.3739  0.8298
 4018TIP3    H133469   5.629   1.382  13.715  0.5654 -0.3188 -0.5428
 4018TIP3    H233470   5.751   1.321  13.649 -0.4040 -2.8006 -0.0929
 4019TIP3   OH233471   1.998   4.017   0.694  0.1851  0.4486  0.2284
 4019TIP3    H133472   1.970   4.081   0.629 -1.7109  2.4985  2.9908
 4019TIP3    H233473   1.929   3.951   0.695  0.9087 -0.3287 -0.8343
 4020TIP3   OH233474   6.019   6.362  11.028 -0.2800  0.7271  0.3393
 4020TIP3    H133475   5.936   6.369  10.980 -1.0555  2.4505  1.8543
 4020TIP3    H233476   6.050   6.274  11.009 -2.2967  0.1608 -0.5185
 4021TIP3   OH233477   2.387   2.029   4.979 -0.3906  0.1375 -0.6122
 4021TIP3    H133478   2.446   1.998   4.911 -0.8037 -1.6416 -0.1896
 4021TIP3    H233479   2.431   2.007   5.061  0.5350  3.0969 -0.2533
 4022TIP3   OH233480   3.745   4.119   3.996  0.1894  0.3364  0.0426
 4022TIP3    H133481   3.653   4.094   4.007  0.5396 -1.0935 -0.1228
 4022TIP3    H233482   3.744   4.185   3.927 -0.8559  1.3592  1.0053
 4023TIP3   OH233483   0.247   3.958  15.568 -0.0773 -0.2317 -0.3370
 4023TIP3    H133484   0.230   4.046  15.601 -0.5391  0.0373 -1.2900
 4023TIP3    H233485   0.283   3.971  15.480 -0.3114 -1.0045 -0.5547
 4024TIP3   OH233486   6.503   5.882  16.634  0.6788 -0.4470 -0.4191
 4024TIP3    H133487   6.529   5.803  16.587  2.3367  0.0883 -0.4360
 4024TIP3    H233488   6.483   5.945  16.565 -0.8849 -0.9173 -0.4057
 4025TIP3   OH233489   3.567   4.052   5.044 -0.3561  0.0903  0.2181
 4025TIP3    H133490   3.501   3.990   5.076  1.2909 -1.8504 -0.0628
 4025TIP3    H233491   3.634   4.053   5.111  0.0792  0.8773 -0.2175
 4026TIP3   OH233492   3.477   1.164  17.032  0.0454  0.2283 -0.3252
 4026TIP3    H133493   3.541   1.181  17.101 -0.2312 -0.8628  0.2102
 4026TIP3    H233494   3.419   1.241  17.033  0.3117  0.4239  0.3549
 4027TIP3   OH233495   3.299   0.226   4.238  0.7207 -0.2646 -0.1731
 4027TIP3    H133496   3.313   0.307   4.189  0.8792  0.0992  0.4663
 4027TIP3    H233497   3.214   0.237   4.279  0.6132 -0.5458 -0.3207
 4028TIP3   OH233498   3.447   2.949  15.063  0.9716  0.1278  0.6387
 4028TIP3    H133499   3.508   2.945  15.137  1.1482  0.2341  0.5001
 4028TIP3    H233500   3.503   2.948  14.985  0.7938  0.2014  0.5084
 4029TIP3   OH233501   0.248   1.927   1.746 -0.5656  0.3615 -0.4861
 4029TIP3    H133502   0.185   1.998   1.757  1.1729  1.6579  1.6206
 4029TIP3    H233503   0.207   1.851   1.787 -0.8834  1.1242  0.6187
 4030TIP3   OH233504   3.572   4.810  16.427 -0.0496  0.3752  0.1114
 4030TIP3    H133505   3.523   4.763  16.359  0.1159 -0.2882  0.4441
 4030TIP3    H233506   3.505   4.845  16.486 -0.1852  0.7987 -0.2958
 4031TIP3   OH233507   1.736   0.100   5.709  0.0479  0.0970 -0.5733
 4031TIP3    H133508   1.684   0.076   5.785 -0.5949  0.8610 -0.7621
 4031TIP3    H233509   1.749   0.018   5.661 -0.4431 -0.2005 -0.1925
 4032TIP3   OH233510   2.724   1.519   5.790  0.1092 -0.1328 -0.2801
 4032TIP3    H133511   2.744   1.579   5.861 -1.3507  0.3777 -0.2869
 4032TIP3    H233512   2.722   1.433   5.831  2.3928 -0.2326 -0.3030
 4033TIP3   OH233513   5.607   0.865   6.084 -0.2142 -0.3008 -0.3555
 4033TIP3    H133514   5.695   0.898   6.100  0.1761 -1.6534  0.3630
 4033TIP3    H233515   5.615   0.815   6.002 -0.8116  1.3579 -1.4649
 4034TIP3   OH233516   2.871   4.862  16.352  0.4689  0.3935  0.0268
 4034TIP3    H133517   2.889   4.769  16.341 -0.5878 -0.0299  1.6570
 4034TIP3    H233518   2.806   4.866  16.423 -0.1383  2.3116 -0.5889
 4035TIP3   OH233519   4.916   4.906   2.045  0.1503  0.6211  0.2383
 4035TIP3    H133520   4.983   4.971   2.026  0.1752  0.9293  1.3094
 4035TIP3    H233521   4.833   4.953   2.033  0.1764  1.0189  1.5455
 4036TIP3   OH233522   2.283   0.473   2.435  0.8608 -0.2581 -0.6593
 4036TIP3    H133523   2.294   0.426   2.518 -1.3526 -2.5447 -1.6080
 4036TIP3    H233524   2.333   0.422   2.372 -1.1297 -1.0929 -1.5954
 4037TIP3   OH233525   0.466   0.882   5.187 -0.1403 -0.3773 -0.0060
 4037TIP3    H133526   0.400   0.842   5.243  0.1959  0.0871  0.7431
 4037TIP3    H233527   0.440   0.974   5.182  2.4944  0.6854  3.4570
 4038TIP3   OH233528   0.197   1.506  14.833  0.5774 -0.1460  0.5417
 4038TIP3    H133529   0.123   1.510  14.894  1.3247  2.0603  1.3433
 4038TIP3    H233530   0.263   1.564  14.871  2.5265 -1.6622 -0.4514
 4039TIP3   OH233531   6.662   2.540  14.283  0.0540  0.4591 -0.0518
 4039TIP3    H133532   6.729   2.490  14.236 -1.2626 -2.2063  0.8184
 4039TIP3    H233533   6.605   2.574  14.215  0.6299  0.3071 -0.6176
 4040TIP3   OH233534   4.732   6.704   3.001 -0.0528  0.0086  0.2463
 4040TIP3    H133535   4.650   6.713   3.051  0.5015  1.5254  0.9316
 4040TIP3    H233536   4.705   6.714   2.910 -0.7202 -0.1005  0.4256
 4041TIP3   OH233537   2.055   1.056   4.897  0.3402  0.0565 -0.2557
 4041TIP3    H133538   1.962   1.075   4.909  0.5568  0.2111  1.2896
 4041TIP3    H233539   2.088   1.131   4.847  0.1523  1.2860  1.4279
 4042TIP3   OH233540   3.827   3.650   3.554  0.5670 -0.2973 -0.4222
 4042TIP3    H133541   3.915   3.657   3.591  0.1284  1.5389  0.2819
 4042TIP3    H233542   3.792   3.739   3.555 -0.8339 -0.7931 -1.8854
 4043TIP3   OH233543   6.611   1.300   4.961  0.3745 -0.2200 -0.4009
 4043TIP3    H133544   6.607   1.387   4.923  1.0245  1.8245  3.9554
 4043TIP3    H233545   6.520   1.269   4.959 -0.2106  1.4298 -0.0902
 4044TIP3   OH233546   0.840   1.505   1.669 -0.2213  0.6293  0.3264
 4044TIP3    H133547   0.766   1.454   1.703  0.7520 -0.1304  1.3523
 4044TIP3    H233548   0.822   1.595   1.697 -0.4673  0.3494  1.0930
 4045TIP3   OH233549   5.630   1.046  15.660  0.2459 -0.0217  0.5346
 4045TIP3    H133550   5.569   1.094  15.717  0.4818 -1.4270  1.9892
 4045TIP3    H233551   5.705   1.105  15.650 -0.6272  1.0392  0.0676
 4046TIP3   OH233552   3.326   4.138  15.095  0.3861 -0.0842 -0.3800
 4046TIP3    H133553   3.378   4.218  15.097 -1.1770  0.9722 -0.5708
 4046TIP3    H233554   3.337   4.103  15.007  2.8946 -1.3453  0.3946
 4047TIP3   OH233555   3.217   5.487  12.336 -0.7560 -0.2692 -0.4768
 4047TIP3    H133556   3.185   5.544  12.405 -1.2259 -0.2761 -0.6853
 4047TIP3    H233557   3.263   5.416  12.381  0.4937  0.6774 -0.2460
 4048TIP3   OH233558   4.235   0.815  16.682 -0.2253 -0.1692  0.3237
 4048TIP3    H133559   4.142   0.834  16.669 -0.3995 -1.6462 -0.7758
 4048TIP3    H233560   4.274   0.898  16.707 -1.7310  0.6059  0.1246
 4049TIP3   OH233561   4.423   5.948   4.454  0.7606  0.3290 -0.6057
 4049TIP3    H133562   4.333   5.961   4.485  0.2896 -0.3498 -1.6914
 4049TIP3    H233563   4.437   5.853   4.460  2.2532  0.6592  1.8908
 4050TIP3   OH233564   2.983   1.320  12.103 -0.2045  0.2714 -0.2492
 4050TIP3    H133565   2.989   1.224  12.103 -0.3918  0.2361 -1.6874
 4050TIP3    H233566   2.986   1.345  12.195  1.3675 -1.0210  0.0811
 4051TIP3   OH233567   5.325   4.004  10.229 -0.0534 -0.0193  1.1311
 4051TIP3    H133568   5.328   4.049  10.313 -0.2752  0.2084  1.0167
 4051TIP3    H233569   5.319   4.074  10.164  2.3314 -0.0883  0.7779
 4052TIP3   OH233570   5.190   6.618   3.819 -0.1848 -0.2981  0.2879
 4052TIP3    H133571   5.276   6.583   3.841  0.6503  1.5647  0.1005
 4052TIP3    H233572   5.128   6.563   3.867  0.9575 -3.0651 -1.3132
 4053TIP3   OH233573   0.326   3.913   4.712 -0.1610 -0.3175 -0.0827
 4053TIP3    H133574   0.294   3.859   4.784 -0.6712  0.2854  0.1485
 4053TIP3    H233575   0.400   3.962   4.750 -0.5972  0.1960  0.1069
 4054TIP3   OH233576   5.541   0.183   4.344 -0.4179  0.4373  0.1641
 4054TIP3    H133577   5.622   0.233   4.357 -1.1426  1.3707  1.1855
 4054TIP3    H233578   5.471   0.248   4.353 -1.4173 -0.9120  2.4369
 4055TIP3   OH233579   4.438   4.458  11.655 -0.7311  0.4596 -0.3397
 4055TIP3    H133580   4.392   4.482  11.575  0.7165  0.9215 -1.0572
 4055TIP3    H233581   4.412   4.525  11.718 -0.6540  1.0186 -0.8895
 4056TIP3   OH233582   3.892   5.049  11.484  0.3161  0.1186 -0.3286
 4056TIP3    H133583   3.811   5.090  11.514  0.2946 -0.6680  0.6795
 4056TIP3    H233584   3.863   4.977  11.428  0.2645 -1.3297  1.5173
 4057TIP3   OH233585   5.034   1.926  14.236  0.1266 -0.5778 -0.7556
 4057TIP3    H133586   5.096   1.941  14.307 -1.4267 -0.1775  0.5442
 4057TIP3    H233587   5.010   1.834  14.244 -2.0156  0.0740  0.9126
 4058TIP3   OH233588   6.624   1.706  14.857  0.2762 -0.3719 -0.2159
 4058TIP3    H133589   6.638   1.801  14.858 -1.3559 -0.1312  1.6628
 4058TIP3    H233590   6.697   1.671  14.908 -0.2008  0.0482  0.7746
 4059TIP3   OH233591   2.210   0.684   4.843 -0.0380 -0.6550 -0.2864
 4059TIP3    H133592   2.257   0.609   4.880  0.5132 -0.3871 -0.4345
 4059TIP3    H233593   2.252   0.760   4.884  0.2984 -0.3732 -1.1484
 4060TIP3   OH233594   2.326   0.001  11.050 -1.1923 -0.6777  0.3907
 4060TIP3    H133595   2.325  -0.094  11.051  0.0023 -0.7236 -1.1658
 4060TIP3    H233596   2.288   0.025  10.966  1.1720  0.1287 -0.4888
 4061TIP3   OH233597   6.236   0.861  16.833 -0.0476 -0.0177  0.0252
 4061TIP3    H133598   6.153   0.894  16.867  1.1472  0.7906  2.2179
 4061TIP3    H233599   6.303   0.905  16.886  1.7278 -2.0037 -0.5237
 4062TIP3   OH233600   3.704   5.651  14.979  0.0996 -0.0741  0.2576
 4062TIP3    H133601   3.640   5.704  15.028 -0.9684 -0.4169 -0.7535
 4062TIP3    H233602   3.788   5.695  14.994 -0.4365  0.6453  1.2187
 4063TIP3   OH233603   1.966   2.849  13.960 -0.1952  0.5314 -0.4950
 4063TIP3    H133604   2.006   2.903  14.027 -0.2405  1.2610 -1.0415
 4063TIP3    H233605   1.910   2.788  14.008  1.3625 -0.3342  0.2513
 4064TIP3   OH233606   2.250   6.350  15.937  0.3422 -0.1337  0.0593
 4064TIP3    H133607   2.217   6.439  15.924 -0.4414 -0.3596  0.4893
 4064TIP3    H233608   2.220   6.302  15.860 -1.3103 -0.6113  0.9686
 4065TIP3   OH233609   1.037   2.439   3.331 -0.3785  0.3571  1.2356
 4065TIP3    H133610   1.066   2.498   3.260  0.2405  1.3755  2.3128
 4065TIP3    H233611   1.015   2.357   3.287 -1.4906  1.4715 -0.3358
 4066TIP3   OH233612   2.655   5.077   3.032  0.5957 -0.2206 -0.6807
 4066TIP3    H133613   2.709   5.151   3.060  0.6315 -0.8159  0.8588
 4066TIP3    H233614   2.624   5.102   2.945 -0.0101  1.9582  0.1303
 4067TIP3   OH233615   1.149   2.734  12.484 -0.1690 -0.2317 -0.1366
 4067TIP3    H133616   1.172   2.826  12.479  1.0991 -0.3799  2.0009
 4067TIP3    H233617   1.058   2.729  12.457 -0.0670  1.5631 -0.8206
 4068TIP3   OH233618   6.319   4.239   1.073  0.4835  0.2296 -0.2444
 4068TIP3    H133619   6.276   4.194   1.001  0.6549 -0.1237 -0.1290
 4068TIP3    H233620   6.277   4.325   1.077 -3.0350 -1.4837  2.3919
 4069TIP3   OH233621   3.100   6.680   3.054  0.1226  0.2081  0.0454
 4069TIP3    H133622   3.123   6.650   3.142 -1.1005 -2.4207 -0.4881
 4069TIP3    H233623   3.004   6.680   3.053  0.1255 -0.3748 -1.4649
 4070TIP3   OH233624   3.441   3.595  16.887  0.0503  0.0130  0.3366
 4070TIP3    H133625   3.414   3.592  16.795 -0.2009 -2.6980  0.4768
 4070TIP3    H233626   3.363   3.627  16.932 -0.9397 -1.7919 -0.0288
 4071TIP3   OH233627   2.161   5.528   4.155 -0.2237 -0.7649 -0.7554
 4071TIP3    H133628   2.144   5.557   4.065  1.3163 -0.6732 -1.0259
 4071TIP3    H233629   2.082   5.552   4.203  0.5262  2.9309 -1.2055
 4072TIP3   OH233630   2.426   3.079   6.573 -0.3911  0.0237 -0.0584
 4072TIP3    H133631   2.480   3.004   6.549  1.5712  1.8324 -1.4380
 4072TIP3    H233632   2.338   3.042   6.583  0.5036 -2.4366 -0.7868
 4073TIP3   OH233633   1.686   6.640   0.600 -0.3659  0.3514  0.6360
 4073TIP3    H133634   1.755   6.629   0.665  0.2531  0.5727  0.0256
 4073TIP3    H233635   1.686   6.559   0.549  1.2161  1.3502 -1.0285
 4074TIP3   OH233636   2.076   5.612  14.693 -0.6116  0.2996  0.3803
 4074TIP3    H133637   2.065   5.652  14.780 -2.3735 -0.5962  0.5983
 4074TIP3    H233638   2.024   5.532  14.697 -2.0265  1.0440 -2.0276
 4075TIP3   OH233639   3.822   3.203  11.174 -0.5800 -0.5295  0.4241
 4075TIP3    H133640   3.786   3.257  11.104  0.5237  0.8806  0.9116
 4075TIP3    H233641   3.882   3.143  11.129  0.8507  1.0078  0.2276
 4076TIP3   OH233642   0.496   0.714  16.292  0.2694  0.1479 -0.5930
 4076TIP3    H133643   0.445   0.781  16.247  0.0254  1.0844  1.0413
 4076TIP3    H233644   0.586   0.730  16.264  0.3247  1.6898  0.4215
 4077TIP3   OH233645   0.308   0.495  14.203  0.5488  0.1255  0.1767
 4077TIP3    H133646   0.401   0.484  14.182  0.3328  0.0659 -0.7524
 4077TIP3    H233647   0.273   0.547  14.130 -0.2493 -0.2503  0.2889
 4078TIP3   OH233648   6.345   3.012   0.373 -0.0184 -0.6767  0.0222
 4078TIP3    H133649   6.313   3.081   0.315  0.3694 -0.7154 -0.2419
 4078TIP3    H233650   6.292   3.020   0.452  0.7512  0.6260  0.4331
 4079TIP3   OH233651   2.407   5.061  13.703 -0.1875 -0.1974  0.1518
 4079TIP3    H133652   2.482   5.050  13.645 -0.6190 -1.0819 -0.2525
 4079TIP3    H233653   2.351   5.125  13.658  0.1001  0.1156  0.2330
 4080TIP3   OH233654   4.103   1.105  15.306  0.6774  0.1487  0.8187
 4080TIP3    H133655   4.151   1.038  15.256  1.8770  0.3232  1.7219
 4080TIP3    H233656   4.147   1.187  15.284  1.9553  0.0943  3.0072
 4081TIP3   OH233657   1.836   6.602   5.592  0.4541  0.3433  0.0263
 4081TIP3    H133658   1.921   6.591   5.551  0.2181 -1.1606 -0.0635
 4081TIP3    H233659   1.783   6.647   5.526  0.1217 -1.9311 -1.2796
 4082TIP3   OH233660   2.027   5.870   5.856  0.3540  0.1078 -0.5730
 4082TIP3    H133661   2.086   5.812   5.904 -1.5803 -2.2512 -0.9764
 4082TIP3    H233662   2.043   5.850   5.764  0.3253  0.9097 -0.7584
 4083TIP3   OH233663   1.906   5.652  16.499  0.0918  0.1859  0.0647
 4083TIP3    H133664   1.873   5.563  16.486 -2.5392  1.0981  0.2437
 4083TIP3    H233665   1.862   5.704  16.433  1.3873  1.4352  0.1526
 4084TIP3   OH233666   1.017   0.828  12.481  0.3575 -0.1060  0.5118
 4084TIP3    H133667   1.012   0.749  12.535 -0.7506 -1.4468 -1.4744
 4084TIP3    H233668   1.110   0.843  12.469  0.5888 -1.7973 -0.0090
 4085TIP3   OH233669   1.113   1.938   6.460 -0.3455 -0.3657  0.3436
 4085TIP3    H133670   1.150   1.928   6.372  0.7208  2.4615  0.4381
 4085TIP3    H233671   1.087   1.849   6.485  1.5727 -1.5871 -1.8396
 4086TIP3   OH233672   1.470   6.449   0.715  0.1903  0.4462  0.1032
 4086TIP3    H133673   1.377   6.437   0.696  0.1537  1.6980 -0.5711
 4086TIP3    H233674   1.512   6.453   0.629  0.4693  2.8308  0.3197
 4087TIP3   OH233675   2.440   4.691   3.133  0.2492 -0.6501  0.1436
 4087TIP3    H133676   2.423   4.654   3.046 -0.4298 -3.9236  1.5719
 4087TIP3    H233677   2.533   4.671   3.149  0.0218 -1.2650  0.7063
 4088TIP3   OH233678   5.571   6.708  17.051  0.4534  0.4374 -0.2745
 4088TIP3    H133679   5.647   6.766  17.058  0.3578  0.5360 -0.0212
 4088TIP3    H233680   5.504   6.762  17.009  0.9894 -0.1149 -1.8615
 4089TIP3   OH233681   2.296   5.073  16.448  0.0137 -0.9171  0.4703
 4089TIP3    H133682   2.295   5.013  16.373 -1.4121  0.0867 -0.3287
 4089TIP3    H233683   2.207   5.070  16.482  0.2009 -0.0130  1.0429
 4090TIP3   OH233684   5.502   2.501  15.308  0.0086 -0.3621 -0.5276
 4090TIP3    H133685   5.498   2.570  15.374  0.7155  0.3049 -1.1716
 4090TIP3    H233686   5.485   2.546  15.225 -0.8117 -1.1784 -0.8207
 4091TIP3   OH233687   0.879   0.050  15.026  0.0034 -0.0638  0.5532
 4091TIP3    H133688   0.942   0.115  14.997 -0.8898  0.6641  0.2352
 4091TIP3    H233689   0.815   0.045  14.956 -0.8688 -0.0208  1.3309
 4092TIP3   OH233690   0.748   0.702  10.913 -0.0392 -0.3713 -0.2253
 4092TIP3    H133691   0.672   0.691  10.856  0.6878 -0.2616 -1.2166
 4092TIP3    H233692   0.720   0.768  10.977 -0.8696 -0.5206 -0.4271
 4093TIP3   OH233693   4.851   2.281   4.117 -0.3159 -0.3562  0.1646
 4093TIP3    H133694   4.811   2.338   4.183  1.7144 -0.0930  1.2246
 4093TIP3    H233695   4.904   2.341   4.064 -0.0290 -0.9213 -0.1882
 4094TIP3   OH233696   5.761   3.964   0.565  0.1085 -0.3078  0.2584
 4094TIP3    H133697   5.688   3.919   0.520 -1.9218  0.6830  2.4433
 4094TIP3    H233698   5.775   4.043   0.513  0.3193 -0.9877 -0.7450
 4095TIP3   OH233699   5.943   3.563   1.898 -0.3569 -0.3265  0.5143
 4095TIP3    H133700   5.944   3.507   1.820  0.2261 -0.8263  0.8741
 4095TIP3    H233701   5.851   3.586   1.911 -0.5100 -0.6305 -0.0444
 4096TIP3   OH233702   6.241   0.554   0.406  0.9212  0.1843 -0.0207
 4096TIP3    H133703   6.277   0.633   0.366  1.9605 -0.7626 -1.0041
 4096TIP3    H233704   6.287   0.546   0.489 -0.8558  1.8622  1.1763
 4097TIP3   OH233705   5.879   2.622   2.284  0.2918  0.4120  0.2283
 4097TIP3    H133706   5.812   2.633   2.352 -0.9324  1.3720 -1.0940
 4097TIP3    H233707   5.876   2.529   2.262  1.5178 -0.1458  2.2893
 4098TIP3   OH233708   1.719   6.054  16.318  0.4197 -0.0743 -0.5382
 4098TIP3    H133709   1.717   5.967  16.358 -2.0902  0.2801  0.1877
 4098TIP3    H233710   1.757   6.040  16.232  1.2831 -1.6571  0.0742
 4099TIP3   OH233711   4.806   5.148   2.165 -0.3261 -0.6395  0.5152
 4099TIP3    H133712   4.773   5.227   2.208 -1.2856 -0.8651  0.2076
 4099TIP3    H233713   4.853   5.100   2.234  3.4952  1.9643 -0.1349
 4100TIP3   OH233714   0.793   0.340  13.452  0.0397  0.4740  0.1671
 4100TIP3    H133715   0.820   0.432  13.444  0.2531  0.3547 -0.5372
 4100TIP3    H233716   0.706   0.337  13.412 -0.7704  0.7325  1.8703
 4101TIP3   OH233717   5.657   0.172  12.108 -0.4635 -0.3968 -0.3641
 4101TIP3    H133718   5.744   0.157  12.071 -0.7695 -0.8329 -0.9104
 4101TIP3    H233719   5.670   0.167  12.203  0.7093  2.7480 -0.2883
 4102TIP3   OH233720   2.158   3.661  12.560 -0.0975  0.3853  0.1482
 4102TIP3    H133721   2.117   3.739  12.521  0.8371  1.6427  1.6027
 4102TIP3    H233722   2.247   3.662  12.526  0.6499  1.3449  2.0542
 4103TIP3   OH233723   3.468   5.282  14.803  0.3171  0.4380  0.2065
 4103TIP3    H133724   3.400   5.220  14.776  0.8330 -1.2984  2.7495
 4103TIP3    H233725   3.547   5.249  14.761  0.0048  1.3099 -1.1143
 4104TIP3   OH233726   3.923   4.424  14.034  0.6430  0.2379 -0.3929
 4104TIP3    H133727   3.832   4.447  14.012  0.1650 -2.7543 -1.8405
 4104TIP3    H233728   3.969   4.427  13.950  1.6795  0.7465  0.1811
 4105TIP3   OH233729   2.162   4.352   5.705 -0.2586 -0.1323  0.3436
 4105TIP3    H133730   2.102   4.337   5.632 -2.1857 -4.7094  2.6309
 4105TIP3    H233731   2.107   4.388   5.775  0.5997  0.0179  0.9549
 4106TIP3   OH233732   0.436   0.070  13.852 -0.1492 -0.2470 -0.2977
 4106TIP3    H133733   0.465   0.047  13.764 -1.0479 -0.4654 -0.5435
 4106TIP3    H233734   0.441   0.165  13.855 -0.2938 -0.2282 -0.6516
 4107TIP3   OH233735   3.609   3.702  14.369 -0.1234 -1.0388 -0.2890
 4107TIP3    H133736   3.702   3.705  14.392 -0.4520  0.3553  0.9738
 4107TIP3    H233737   3.597   3.616  14.329  1.7614 -1.1281 -0.7082
 4108TIP3   OH233738   3.432   3.446   1.978  0.5086  0.4466  0.3150
 4108TIP3    H133739   3.404   3.465   2.068 -0.2720 -0.7576  0.3486
 4108TIP3    H233740   3.374   3.499   1.923  0.7510  0.9153  0.5076
 4109TIP3   OH233741   2.542   6.364   2.768  0.2099 -0.2721 -0.3263
 4109TIP3    H133742   2.452   6.382   2.795 -0.2494 -1.8353 -0.7260
 4109TIP3    H233743   2.552   6.410   2.684 -0.7906 -1.4710 -1.1270
 4110TIP3   OH233744   2.898   2.241   1.999 -0.3109 -0.2358 -0.3335
 4110TIP3    H133745   2.951   2.280   2.068  0.0076 -1.4157  0.0805
 4110TIP3    H233746   2.809   2.243   2.033 -0.3488  0.4209 -0.4507
 4111TIP3   OH233747   1.658   6.389  14.333 -0.0302 -0.4072 -0.5094
 4111TIP3    H133748   1.677   6.458  14.396  0.7576 -1.4048  0.3678
 4111TIP3    H233749   1.573   6.412  14.296  0.4191  1.2413 -0.5323
 4112TIP3   OH233750   3.780   5.163   6.132  0.6398  0.6059 -0.0711
 4112TIP3    H133751   3.873   5.149   6.112  0.9352  3.9540 -1.2562
 4112TIP3    H233752   3.778   5.243   6.185 -1.6456  1.0953 -0.8380
 4113TIP3   OH233753   5.330   1.812  14.081  0.0464  0.5136  0.5258
 4113TIP3    H133754   5.280   1.801  13.999  2.0082 -1.6589 -0.4382
 4113TIP3    H233755   5.345   1.906  14.086 -0.4497  0.7391 -1.4174
 4114TIP3   OH233756   6.484   3.901  16.928  0.3000  0.7063 -0.1147
 4114TIP3    H133757   6.437   3.879  17.008 -1.9585  1.1875 -1.2582
 4114TIP3    H233758   6.524   3.986  16.945  0.0926  0.6559  0.6153
 4115TIP3   OH233759   2.246   1.135   3.541  0.0558 -0.3839 -0.0361
 4115TIP3    H133760   2.154   1.114   3.559  0.6220 -2.5974  0.3958
 4115TIP3    H233761   2.278   1.059   3.492  1.2534  1.0723 -1.5508
 4116TIP3   OH233762   1.910   6.392  16.066  0.1898 -0.3510 -0.3365
 4116TIP3    H133763   1.877   6.346  15.989  1.5930 -1.0218 -0.5382
 4116TIP3    H233764   1.964   6.328  16.111  0.3317  0.4081  0.5840
 4117TIP3   OH233765   2.710   2.906  12.869  0.1459 -0.3246  0.4492
 4117TIP3    H133766   2.745   2.827  12.910  0.1467 -0.2358  0.6211
 4117TIP3    H233767   2.765   2.977  12.904  1.2354 -0.4286 -0.9853
 4118TIP3   OH233768   5.676   6.572   4.856  0.5031  0.1634  0.3614
 4118TIP3    H133769   5.721   6.503   4.904  0.4280  0.1619  0.4292
 4118TIP3    H233770   5.585   6.565   4.884  0.7890  1.3761  1.6692
 4119TIP3   OH233771   3.533   2.902   5.013 -0.0590  0.6267 -0.2851
 4119TIP3    H133772   3.471   2.874   4.946  0.7700 -2.0544  0.0009
 4119TIP3    H233773   3.479   2.927   5.087 -0.8907  1.3601 -1.1196
 4120TIP3   OH233774   4.669   2.317  12.559  0.1938  0.2050  0.0179
 4120TIP3    H133775   4.577   2.310  12.532  0.4543  0.0480 -0.8310
 4120TIP3    H233776   4.692   2.409  12.542  0.5715 -0.0740 -0.9720
 4121TIP3   OH233777   2.398   2.896   4.589  0.0275  0.0895  0.4453
 4121TIP3    H133778   2.461   2.849   4.535  0.7327 -0.2144  1.5230
 4121TIP3    H233779   2.369   2.833   4.654 -2.4490 -0.1936 -0.8637
 4122TIP3   OH233780   3.426   5.354   3.931 -0.0787 -0.0990 -0.2190
 4122TIP3    H133781   3.506   5.402   3.954 -1.2871  1.5177  0.7347
 4122TIP3    H233782   3.428   5.277   3.989  1.2008 -0.5271 -0.8071
 4123TIP3   OH233783   4.304   1.883  13.397  0.4706 -0.5950 -0.0198
 4123TIP3    H133784   4.216   1.848  13.385  0.2246  0.9892 -3.2324
 4123TIP3    H233785   4.305   1.965  13.348  4.2236 -1.4229 -1.5353
 4124TIP3   OH233786   0.125   1.443  11.895  0.0384 -0.4620  0.1169
 4124TIP3    H133787   0.041   1.455  11.850  0.1465  0.0260  0.0420
 4124TIP3    H233788   0.149   1.352  11.876  0.2183 -0.1884 -1.0595
 4125TIP3   OH233789   3.876   1.069   4.779  0.0367 -0.1883  0.4305
 4125TIP3    H133790   3.938   1.039   4.845  0.0546  1.2466  1.0720
 4125TIP3    H233791   3.888   1.008   4.706  0.8902 -1.0297  1.2622
 4126TIP3   OH233792   5.207   3.777  12.062 -0.3219 -0.0878 -0.4483
 4126TIP3    H133793   5.284   3.752  12.012 -0.4745 -0.7627 -0.3521
 4126TIP3    H233794   5.135   3.732  12.018 -0.8715  1.7094 -1.4341
 4127TIP3   OH233795   3.421   6.359   1.769  0.3563 -0.5704 -0.2510
 4127TIP3    H133796   3.394   6.377   1.679 -1.6503 -2.3793 -0.0394
 4127TIP3    H233797   3.359   6.408   1.823  1.8236  0.8703  0.1920
 4128TIP3   OH233798   5.621   5.225   0.047 -0.2799  0.0236  0.2699
 4128TIP3    H133799   5.563   5.153   0.023  0.0361 -0.4313  0.8469
 4128TIP3    H233800   5.622   5.283  -0.029  0.6302 -1.3393 -0.7757
 4129TIP3   OH233801   5.440   2.865   3.939  0.1298  0.9247  0.2399
 4129TIP3    H133802   5.402   2.944   3.899 -0.8344  0.0640 -0.5606
 4129TIP3    H233803   5.388   2.851   4.018 -1.1771 -0.1759 -0.7857
 4130TIP3   OH233804   0.030   3.022   1.256  0.2936  0.0437 -0.6441
 4130TIP3    H133805   0.025   2.945   1.199 -1.6178  0.3368 -0.9032
 4130TIP3    H233806   0.009   3.096   1.199  1.4545  0.6873 -0.2452
 4131TIP3   OH233807   5.798   4.061  14.891 -0.3051 -0.0699 -0.1581
 4131TIP3    H133808   5.868   4.000  14.872 -0.4577  0.1660 -1.4909
 4131TIP3    H233809   5.840   4.147  14.891 -0.5088  0.0316 -0.5359
 4132TIP3   OH233810   4.415   1.655   3.306 -0.2790  0.0311 -0.1406
 4132TIP3    H133811   4.350   1.630   3.371 -1.3835  0.4214 -1.0708
 4132TIP3    H233812   4.398   1.747   3.289 -0.0899 -0.0916 -1.0517
 4133TIP3   OH233813   0.492   3.812   5.340  0.0625  0.4132 -0.3167
 4133TIP3    H133814   0.559   3.837   5.403  0.6027 -0.1345 -0.6693
 4133TIP3    H233815   0.409   3.832   5.384  0.4607  3.1614 -0.7310
 4134TIP3   OH233816   0.925   6.125  16.844  0.0133  0.1611 -0.8082
 4134TIP3    H133817   0.829   6.123  16.844  0.0038 -0.4832  1.3160
 4134TIP3    H233818   0.951   6.034  16.859  0.9975  0.0914 -2.8005
 4135TIP3   OH233819   0.453   3.788   5.850  0.2595 -0.1485  0.2920
 4135TIP3    H133820   0.389   3.721   5.827  0.0904  0.6777 -1.7758
 4135TIP3    H233821   0.403   3.854   5.897 -0.6376  0.9155 -2.0804
 4136TIP3   OH233822   0.997   6.141  16.275  0.1774 -0.4257  0.8383
 4136TIP3    H133823   0.907   6.107  16.277  0.4476 -1.1095  1.3588
 4136TIP3    H233824   1.035   6.105  16.195 -0.2361  0.4443  0.2437
 4137TIP3   OH233825   5.130   2.221  13.256 -0.1616  0.3580 -0.1384
 4137TIP3    H133826   5.078   2.163  13.313 -0.1304  0.5000  0.0357
 4137TIP3    H233827   5.218   2.185  13.260 -0.1390  0.4251 -0.0195
 4138TIP3   OH233828   5.730   1.451  15.203 -0.3075  0.9180 -0.1067
 4138TIP3    H133829   5.766   1.505  15.133  0.3625 -0.9796 -1.2428
 4138TIP3    H233830   5.751   1.499  15.283  0.3755  2.2787 -1.0773
 4139TIP3   OH233831   0.241   3.309   5.615 -0.1172 -0.3879  0.0916
 4139TIP3    H133832   0.333   3.281   5.618  0.2265  0.5394 -1.3559
 4139TIP3    H233833   0.217   3.301   5.523 -1.9969 -2.1647  0.7057
 4140TIP3   OH233834   4.559   4.948   1.413  0.5647  0.1178  0.6595
 4140TIP3    H133835   4.635   5.007   1.408  0.1635  0.7474  1.8460
 4140TIP3    H233836   4.524   4.962   1.500  0.9606 -2.5136  1.2949
 4141TIP3   OH233837   4.619   2.540   2.647  0.2741  0.0586  0.2534
 4141TIP3    H133838   4.616   2.510   2.557  1.2684 -2.4565  1.0165
 4141TIP3    H233839   4.529   2.533   2.678 -0.1120  1.1518 -0.5920
 4142TIP3   OH233840   1.942   5.419  15.414  0.2163 -0.0239 -0.0228
 4142TIP3    H133841   1.882   5.494  15.415  0.2513  0.0187 -0.6573
 4142TIP3    H233842   1.929   5.377  15.499 -0.8393 -0.1098 -0.2152
 4143TIP3   OH233843   4.280   1.445   5.965 -0.2974  0.1251 -0.1388
 4143TIP3    H133844   4.193   1.420   5.998  0.2944  0.2993  1.6078
 4143TIP3    H233845   4.262   1.510   5.897 -1.4799  1.6396  1.5627
 4144TIP3   OH233846   5.933   4.405   4.097 -0.3743  0.0757  0.1632
 4144TIP3    H133847   5.903   4.321   4.131  1.7935 -1.3477 -1.3556
 4144TIP3    H233848   6.026   4.408   4.118  0.4710  0.2865 -3.2733
 4145TIP3   OH233849   2.648   0.980  16.974  0.1112 -0.4187  0.2793
 4145TIP3    H133850   2.602   0.977  17.057  1.4220  2.5391  1.1890
 4145TIP3    H233851   2.599   0.922  16.916  0.6477 -4.5973  3.7884
 4146TIP3   OH233852   0.354   5.230  10.680 -0.3682 -0.3440 -0.2264
 4146TIP3    H133853   0.397   5.144  10.673  0.2968  0.0983 -1.7723
 4146TIP3    H233854   0.417   5.292  10.644 -0.9673  0.7694  0.5963
 4147TIP3   OH233855   4.924   3.800   5.144  0.4189  0.2382 -0.8025
 4147TIP3    H133856   4.851   3.861   5.133  0.1087 -0.1461 -0.8632
 4147TIP3    H233857   4.962   3.825   5.228 -0.8612 -0.6908  0.0698
 4148TIP3   OH233858   0.500   0.909   0.214 -0.0287  0.0050 -0.1126
 4148TIP3    H133859   0.430   0.884   0.274 -0.0896 -0.1137 -0.2334
 4148TIP3    H233860   0.458   0.910   0.128  0.5271 -1.8203 -0.4345
 4149TIP3   OH233861   2.243   0.287   3.442  0.2829  0.0795  0.0807
 4149TIP3    H133862   2.289   0.334   3.372 -1.6986 -0.2470 -1.5009
 4149TIP3    H233863   2.174   0.346   3.470 -0.0369 -0.5002  0.5382
 4150TIP3   OH233864   1.009   1.213   2.203 -0.1826  0.1971 -0.2659
 4150TIP3    H133865   1.097   1.230   2.170 -0.4384  0.1763 -0.9597
 4150TIP3    H233866   0.973   1.299   2.223 -0.0187  0.2076 -0.0179
 4151TIP3   OH233867   1.075   4.158   0.020  0.7290 -0.2552  0.3456
 4151TIP3    H133868   1.109   4.187  -0.065  0.6965  1.8392  1.0061
 4151TIP3    H233869   1.120   4.076   0.037 -0.3350 -1.4480 -2.3578
 4152TIP3   OH233870   0.584   3.964  11.575 -0.0082  0.8289 -0.0220
 4152TIP3    H133871   0.550   3.915  11.650 -0.9131  0.6914 -0.5213
 4152TIP3    H233872   0.635   4.035  11.615  2.3882 -1.2430  0.7018
 4153TIP3   OH233873   3.530   1.212  16.484  0.3931 -0.1377  0.4499
 4153TIP3    H133874   3.473   1.288  16.497  0.0161 -0.0643 -1.4267
 4153TIP3    H233875   3.504   1.177  16.399  0.3619 -2.5750  1.4345
 4154TIP3   OH233876   5.364   0.555   5.935 -0.3110 -0.3626 -0.5880
 4154TIP3    H133877   5.453   0.555   5.900 -0.2402  1.4974 -0.4641
 4154TIP3    H233878   5.348   0.464   5.960  1.4862 -0.7565 -0.7843
 4155TIP3   OH233879   4.783   4.674   1.164  0.8128  0.3023 -0.0479
 4155TIP3    H133880   4.825   4.657   1.080  0.2219 -3.3791  0.3392
 4155TIP3    H233881   4.692   4.694   1.142  0.5231 -1.2199 -0.2748
 4156TIP3   OH233882   1.789   0.361  14.462  0.2489  0.1435 -0.5643
 4156TIP3    H133883   1.818   0.273  14.487  1.1490  0.3208 -0.9482
 4156TIP3    H233884   1.695   0.352  14.447  0.4168 -0.8700 -1.0850
 4157TIP3   OH233885   3.627   4.419   0.624  0.3118 -0.3269  0.0063
 4157TIP3    H133886   3.535   4.415   0.598 -0.0893 -1.9698  1.5628
 4157TIP3    H233887   3.659   4.499   0.584 -0.7393 -1.7068 -3.8154
 4158TIP3   OH233888   6.644   4.537   5.129 -0.3573 -0.9235 -0.3327
 4158TIP3    H133889   6.724   4.498   5.164 -0.3058 -0.3226  0.2296
 4158TIP3    H233890   6.669   4.571   5.043 -0.7072 -3.1997 -1.3708
 4159TIP3   OH233891   5.552   4.164   0.664 -0.1348 -0.1698  0.9919
 4159TIP3    H133892   5.637   4.170   0.707 -0.9576 -5.1975  3.7519
 4159TIP3    H233893   5.564   4.096   0.597 -1.1435  1.4301 -0.8539
 4160TIP3   OH233894   3.969   2.442  13.931 -0.1978 -0.1786 -0.2078
 4160TIP3    H133895   3.999   2.527  13.899  1.3568 -0.1245  1.3328
 4160TIP3    H233896   4.007   2.434  14.018 -1.6834 -1.7407  0.3318
 4161TIP3   OH233897   6.366   2.244   5.103 -0.0598 -0.1386  0.3951
 4161TIP3    H133898   6.417   2.325   5.108  0.6091 -0.6306  1.7971
 4161TIP3    H233899   6.277   2.270   5.128 -1.1414  1.1987 -4.3318
 4162TIP3   OH233900   2.275   6.371  14.060  0.8148  0.5692  0.0045
 4162TIP3    H133901   2.275   6.279  14.086  0.6721  0.4606 -0.3764
 4162TIP3    H233902   2.245   6.371  13.969  1.7392  0.8989 -0.3137
 4163TIP3   OH233903   3.435   5.384  12.557 -0.5699  0.0634 -0.2817
 4163TIP3    H133904   3.386   5.453  12.603  1.6525  1.3712  0.1941
 4163TIP3    H233905   3.411   5.303  12.602 -1.3496  0.8442  0.7204
 4164TIP3   OH233906   1.986   1.885   0.389  0.1739  0.0421  0.2685
 4164TIP3    H133907   1.976   1.967   0.342  0.4690 -1.4126 -2.4658
 4164TIP3    H233908   1.904   1.874   0.437  0.0818  1.8455  0.5328
 4165TIP3   OH233909   2.488   0.918   2.581 -0.1376 -0.5806  0.2077
 4165TIP3    H133910   2.467   0.825   2.574  0.0968 -0.8178  2.2257
 4165TIP3    H233911   2.407   0.960   2.610 -0.1154 -0.2382 -0.2241
 4166TIP3   OH233912   1.856   0.688   5.993 -0.4009 -0.5264  0.4947
 4166TIP3    H133913   1.791   0.660   5.928 -0.3896 -0.1929  0.3357
 4166TIP3    H233914   1.822   0.655   6.076 -2.3443  2.1325  0.8587
 4167TIP3   OH233915   2.057   0.690  13.883  0.0596 -0.3965  0.4647
 4167TIP3    H133916   2.120   0.617  13.882  1.5086  0.8170  0.7533
 4167TIP3    H233917   2.052   0.716  13.975  0.4472  0.6008  0.2125
 4168TIP3   OH233918   1.494   3.332   1.722 -0.4070 -0.0126 -0.1294
 4168TIP3    H133919   1.511   3.398   1.788 -0.2298 -2.1794  2.0668
 4168TIP3    H233920   1.581   3.305   1.692 -0.4763  0.6681 -0.9623
 4169TIP3   OH233921   3.401   0.866   0.749 -0.4270  0.2782 -0.0018
 4169TIP3    H133922   3.469   0.931   0.768  0.4676 -0.6092 -0.0991
 4169TIP3    H233923   3.332   0.916   0.706  0.8378  0.9386 -1.3532
 4170TIP3   OH233924   0.195   5.014   2.147  0.2132 -0.7363 -0.0746
 4170TIP3    H133925   0.289   5.031   2.142  0.6814 -2.9096  0.7697
 4170TIP3    H233926   0.170   5.045   2.234 -0.4857  2.5604 -1.3725
 4171TIP3   OH233927   3.576   1.992   5.856 -0.0584 -0.2029 -0.3138
 4171TIP3    H133928   3.536   1.922   5.907  0.9683 -0.4400  0.1713
 4171TIP3    H233929   3.636   1.946   5.797  3.3157  0.4735  2.4457
 4172TIP3   OH233930   0.587   0.408  16.100  0.1805 -0.2482 -0.3684
 4172TIP3    H133931   0.592   0.330  16.155 -0.3205  1.2769  1.9386
 4172TIP3    H233932   0.670   0.454  16.117 -0.6062  0.9635  0.2988
 4173TIP3   OH233933   1.583   2.129   2.672 -0.2099  0.0732 -0.2224
 4173TIP3    H133934   1.608   2.046   2.713 -1.7341  0.0690  0.7096
 4173TIP3    H233935   1.665   2.180   2.671  0.3237 -0.7371  0.8761
 4174TIP3   OH233936   4.495   2.064  15.775  0.4242 -0.0812  0.3827
 4174TIP3    H133937   4.420   2.006  15.776 -0.4929  1.1009  0.9105
 4174TIP3    H233938   4.549   2.035  15.848  0.6738 -1.1554 -0.2130
 4175TIP3   OH233939   4.403   0.603  16.755  0.0889 -0.0385  0.1394
 4175TIP3    H133940   4.374   0.682  16.709  1.1162  0.4732  0.3606
 4175TIP3    H233941   4.420   0.633  16.845 -0.5390 -0.7309  0.4916
 4176TIP3   OH233942   4.993   2.661   3.947  0.9609 -0.6946  0.5847
 4176TIP3    H133943   5.000   2.677   4.041 -0.0394 -0.2097  0.5882
 4176TIP3    H233944   5.000   2.747   3.907 -0.8253 -0.6155  0.3702
 4177TIP3   OH233945   5.837   2.478  11.821  0.5546 -0.4523 -0.3190
 4177TIP3    H133946   5.834   2.569  11.850 -0.5760  0.1873 -2.3475
 4177TIP3    H233947   5.890   2.434  11.887  0.3851  1.4891  1.1761
 4178TIP3   OH233948   4.539   3.327  14.631 -0.2453  0.1476 -0.1253
 4178TIP3    H133949   4.483   3.311  14.707  0.1803 -1.7389 -0.1985
 4178TIP3    H233950   4.561   3.420  14.638 -0.2543  0.0307  2.0316
 4179TIP3   OH233951   6.056   6.176  17.086  0.5123  0.0218  0.1362
 4179TIP3    H133952   5.989   6.238  17.055 -0.9571 -1.5991 -0.0006
 4179TIP3    H233953   6.073   6.120  17.010  0.8131 -0.6110  0.6733
 4180TIP3   OH233954   6.295   1.068  13.287 -0.1203 -0.4875  0.0176
 4180TIP3    H133955   6.215   1.096  13.332  0.7444  1.4888  0.3805
 4180TIP3    H233956   6.268   0.991  13.236 -2.6090  0.9570 -0.9550
 4181TIP3   OH233957   0.487   4.110  13.851 -0.0784  0.4822  0.2083
 4181TIP3    H133958   0.491   4.160  13.769  0.1907 -0.5046 -0.4008
 4181TIP3    H233959   0.398   4.076  13.853  0.8559 -2.2744 -1.4118
 4182TIP3   OH233960   5.918   4.405   6.086  0.0643  0.0404 -0.2217
 4182TIP3    H133961   5.953   4.474   6.030 -1.0131  0.5515 -0.2837
 4182TIP3    H233962   5.992   4.348   6.103  0.6117  0.3832 -1.4174
 4183TIP3   OH233963   2.786   1.067  14.605  0.1093 -0.0315 -0.2230
 4183TIP3    H133964   2.742   1.004  14.662 -0.3717  1.4915  1.0989
 4183TIP3    H233965   2.837   1.012  14.545 -0.4284 -1.6896  0.7882
 4184TIP3   OH233966   1.182   3.985   1.697  0.2722 -0.6070 -0.0988
 4184TIP3    H133967   1.138   3.900   1.684  0.6035 -0.7118 -0.5583
 4184TIP3    H233968   1.241   3.992   1.623  0.1580  0.0887 -0.1226
 4185TIP3   OH233969   3.221   2.316  16.058 -0.0770 -0.3196 -0.4089
 4185TIP3    H133970   3.210   2.361  15.974  1.0909 -2.0609 -1.5529
 4185TIP3    H233971   3.135   2.276  16.076  0.6226 -3.0699 -2.7304
 4186TIP3   OH233972   3.553   2.180  15.227 -0.5629  0.0052 -0.2828
 4186TIP3    H133973   3.550   2.273  15.250 -0.2556  0.1816 -0.9540
 4186TIP3    H233974   3.511   2.136  15.301  0.7243  0.5310  0.7824
 4187TIP3   OH233975   5.118   2.343  13.929  0.3811 -0.4179  0.0920
 4187TIP3    H133976   5.064   2.318  14.004  0.3479  2.5509  1.0846
 4187TIP3    H233977   5.056   2.361  13.859  0.2685 -0.4413  0.1857
 4188TIP3   OH233978   0.053   1.686   6.125  0.6056  0.1243 -0.6423
 4188TIP3    H133979  -0.010   1.759   6.122  1.7032  1.0474 -1.8620
 4188TIP3    H233980   0.115   1.711   6.193 -0.9561 -1.3372  1.3909
 4189TIP3   OH233981   1.132   2.786   3.431  0.5844 -0.0637 -0.0360
 4189TIP3    H133982   1.066   2.846   3.468 -0.8131 -1.1672 -0.7139
 4189TIP3    H233983   1.110   2.781   3.338  2.0927  0.1400 -0.4073
 4190TIP3   OH233984   5.765   5.528  11.340 -0.5638 -0.0597 -0.2577
 4190TIP3    H133985   5.708   5.579  11.282  0.3433  1.2692 -0.0099
 4190TIP3    H233986   5.811   5.468  11.281 -0.8808  0.1263 -0.6977
 4191TIP3   OH233987   2.448   1.679  13.153 -0.5867  0.1557 -0.0836
 4191TIP3    H133988   2.490   1.650  13.234 -0.4585 -0.1908 -0.2716
 4191TIP3    H233989   2.515   1.732  13.109  0.1243 -1.4551 -0.9971
 4192TIP3   OH233990   0.196   2.871  15.424 -0.1927  0.0050 -0.1199
 4192TIP3    H133991   0.205   2.824  15.340  1.5092 -0.3991  0.2709
 4192TIP3    H233992   0.269   2.840  15.476 -0.3132  1.4946  0.9432
 4193TIP3   OH233993   3.423   4.460   4.844  0.7579  0.1237  0.6541
 4193TIP3    H133994   3.391   4.428   4.929 -0.0593 -3.2716 -0.8352
 4193TIP3    H233995   3.507   4.417   4.832  0.4909 -0.0721 -0.6055
 4194TIP3   OH233996   0.659   0.274   0.552 -0.1688  0.1775  0.5844
 4194TIP3    H133997   0.617   0.287   0.638  1.7034  1.8978  1.2799
 4194TIP3    H233998   0.609   0.331   0.493 -0.0068  0.7870  1.0254
 4195TIP3   OH233999   6.611   6.638  11.169 -0.0115 -0.0834  0.3613
 4195TIP3    H134000   6.643   6.620  11.258  2.2582  0.4750 -0.3133
 4195TIP3    H234001   6.547   6.570  11.152  0.7071 -1.1496  1.8419
 4196TIP3   OH234002   4.541   5.532  14.966  0.2634  0.0171 -0.2890
 4196TIP3    H134003   4.538   5.515  15.061 -1.5508  0.3156 -0.2816
 4196TIP3    H234004   4.487   5.463  14.928  0.2711  0.4180 -1.0272
 4197TIP3   OH234005   2.315   4.915  11.450 -0.0744  0.0650  0.2283
 4197TIP3    H134006   2.247   4.931  11.515 -0.4972 -0.9785  0.0567
 4197TIP3    H234007   2.309   4.821  11.431  0.9593  0.0898 -0.2935
 4198TIP3   OH234008   4.613   5.833   3.208 -0.5929 -0.5906  0.1151
 4198TIP3    H134009   4.647   5.901   3.149 -0.3497  0.0658  0.9877
 4198TIP3    H234010   4.689   5.779   3.228 -0.6832 -0.8331 -0.2031
 4199TIP3   OH234011   3.038   1.910   2.138  0.4277 -0.0498  0.2763
 4199TIP3    H134012   3.066   1.995   2.171  1.0975 -0.0323 -0.3228
 4199TIP3    H234013   2.987   1.872   2.210 -0.5841  1.1988  0.2177
 4200TIP3   OH234014   4.647   2.349   3.340 -0.2336  0.0517 -0.6640
 4200TIP3    H134015   4.678   2.434   3.373 -0.6670 -0.8154  2.1332
 4200TIP3    H234016   4.552   2.353   3.348 -0.2298 -0.8351 -0.1238
 4201TIP3   OH234017   4.994   5.812   0.049 -0.4154  0.1191  0.3451
 4201TIP3    H134018   4.972   5.743   0.112 -1.1951 -0.3970 -0.4869
 4201TIP3    H234019   5.039   5.878   0.102 -2.0180  0.1977  1.6686
 4202TIP3   OH234020   4.672   4.478   0.416  0.1414  0.3432  0.4028
 4202TIP3    H134021   4.720   4.543   0.365 -0.8005  0.5697 -0.1959
 4202TIP3    H234022   4.680   4.397   0.366  4.0577 -0.8567  2.7110
 4203TIP3   OH234023   4.550   1.892  14.717  0.1900  0.2095  0.6645
 4203TIP3    H134024   4.609   1.880  14.643 -0.7801  0.0753 -0.0870
 4203TIP3    H234025   4.527   1.803  14.743  0.4006  0.2600  1.0365
 4204TIP3   OH234026   5.704   4.238   1.166 -0.1768 -0.4126 -0.5771
 4204TIP3    H134027   5.621   4.258   1.210 -0.3686 -1.7266 -0.3053
 4204TIP3    H234028   5.728   4.152   1.200 -0.3963 -1.5197 -3.1690
 4205TIP3   OH234029   3.234   5.378   0.488 -0.1878 -0.1225 -0.7449
 4205TIP3    H134030   3.166   5.416   0.432 -0.8139  0.1117  0.1729
 4205TIP3    H234031   3.311   5.433   0.473 -1.0616  1.4728  0.5078
 4206TIP3   OH234032   6.419   3.699   3.280 -0.7297 -0.3639 -0.0617
 4206TIP3    H134033   6.405   3.786   3.317 -2.9173 -0.6656 -0.1636
 4206TIP3    H234034   6.400   3.639   3.352  2.6637 -0.7587  0.6019
 4207TIP3   OH234035   4.199   2.362  16.491 -0.6913 -0.4540  0.2074
 4207TIP3    H134036   4.154   2.314  16.422 -2.1058  2.7553 -1.1955
 4207TIP3    H234037   4.133   2.374  16.559 -0.5077 -0.0739  0.3222
 4208TIP3   OH234038   4.344   2.742   1.169  0.4650 -0.3985 -0.3280
 4208TIP3    H134039   4.413   2.718   1.107  1.8166  0.5553  0.7857
 4208TIP3    H234040   4.294   2.661   1.181  1.4118 -1.1144 -1.1233
 4209TIP3   OH234041   2.275   3.328  15.344 -0.9364  0.0381  0.4507
 4209TIP3    H134042   2.277   3.364  15.255 -0.3047  0.9408  0.8230
 4209TIP3    H234043   2.203   3.374  15.387 -1.8614 -1.0892  0.1291
 4210TIP3   OH234044   0.906   0.824   4.257 -0.5042 -0.7426  0.4759
 4210TIP3    H134045   0.921   0.750   4.198  1.9770  0.3742 -0.3393
 4210TIP3    H234046   0.887   0.784   4.342 -1.9874 -2.3368 -0.5838
 4211TIP3   OH234047   5.165   1.505   4.517 -0.2693 -0.2248 -0.0894
 4211TIP3    H134048   5.253   1.516   4.554  0.1753  2.0792 -1.7292
 4211TIP3    H234049   5.146   1.412   4.526  2.7064 -0.9040 -0.5375
 4212TIP3   OH234050   4.529   2.745   0.936  0.0200 -0.3889  0.2630
 4212TIP3    H134051   4.573   2.801   0.873 -0.9690  1.3284  1.0670
 4212TIP3    H234052   4.436   2.769   0.930 -0.2060 -0.7671  1.7842
 4213TIP3   OH234053   0.097   1.697   2.479 -0.3475  0.9853 -0.4463
 4213TIP3    H134054   0.080   1.699   2.384 -1.8327  2.3712 -0.1756
 4213TIP3    H234055   0.035   1.631   2.512  0.3611  0.3020 -0.4546
 4214TIP3   OH234056   0.079   5.982   2.682 -0.1435 -0.0579 -0.3638
 4214TIP3    H134057  -0.014   5.961   2.686  0.1384 -1.2035  0.9673
 4214TIP3    H234058   0.122   5.905   2.719  1.2189  1.1881  0.7263
 4215TIP3   OH234059   4.782   4.666   0.244 -0.1930 -0.1753 -0.2450
 4215TIP3    H134060   4.742   4.665   0.157  1.1015  1.4738 -0.8667
 4215TIP3    H234061   4.868   4.627   0.232 -0.8616 -2.0404  0.7565
 4216TIP3   OH234062   5.762   3.211   3.616 -0.0953  0.1358  0.4758
 4216TIP3    H134063   5.764   3.125   3.657 -0.8172  0.0445  0.3282
 4216TIP3    H234064   5.817   3.202   3.538  0.3311 -0.0164  0.7906
 4217TIP3   OH234065   3.322   5.235  16.950 -0.3309  0.8680  0.1684
 4217TIP3    H134066   3.333   5.330  16.948  0.8785  0.7247 -0.5513
 4217TIP3    H234067   3.231   5.222  16.977 -0.8392  2.2522 -0.7865
 4218TIP3   OH234068   4.968   4.184  12.269  0.0657  0.5696  0.3877
 4218TIP3    H134069   5.044   4.152  12.317  0.3533  0.1741 -0.3122
 4218TIP3    H234070   4.933   4.255  12.322  0.0939 -0.1739  1.4171
 4219TIP3   OH234071   4.670   3.060  14.802  0.4995  0.4373  0.6743
 4219TIP3    H134072   4.715   2.975  14.796  0.9049  0.4039  3.4638
 4219TIP3    H234073   4.577   3.038  14.800  0.6020 -0.0751  1.1730
 4220TIP3   OH234074   4.575   3.867  12.045 -0.6400 -0.0357  1.0463
 4220TIP3    H134075   4.657   3.913  12.063 -0.3211  0.0660 -0.6055
 4220TIP3    H234076   4.512   3.905  12.107  0.2247  0.8287  1.4055
 4221TIP3   OH234077   4.783   2.457  15.773 -0.3932 -0.2873  0.4931
 4221TIP3    H134078   4.830   2.538  15.753 -1.5776  0.4629  0.7029
 4221TIP3    H234079   4.745   2.472  15.859 -1.7632 -0.5297 -0.0628
 4222TIP3   OH234080   2.830   6.153  12.176 -0.6396 -0.1578  0.0528
 4222TIP3    H134081   2.759   6.153  12.112  0.5006  1.0201 -1.2610
 4222TIP3    H234082   2.817   6.232  12.228 -0.8659 -0.4710  0.4735
 4223TIP3   OH234083   5.452   0.452   3.449  0.7501 -0.3415 -0.1659
 4223TIP3    H134084   5.471   0.417   3.362 -1.7363  0.2810 -0.9918
 4223TIP3    H234085   5.463   0.377   3.508 -0.7667 -1.6132 -1.4393
 4224TIP3   OH234086   4.545   4.913  13.228  0.3793 -0.5569 -0.1803
 4224TIP3    H134087   4.570   4.968  13.154 -0.2308 -1.3286 -0.9565
 4224TIP3    H234088   4.606   4.839  13.224  0.8021 -0.2558  0.5088
 4225TIP3   OH234089   5.227   2.537   4.280  0.2700  0.3283  0.4775
 4225TIP3    H134090   5.157   2.568   4.337  1.7285  1.8266  1.4778
 4225TIP3    H234091   5.245   2.448   4.310 -1.5884 -0.3130 -0.1918
 4226TIP3   OH234092   1.907   4.265   2.122  0.3130 -0.4458  0.2672
 4226TIP3    H134093   1.813   4.277   2.117  0.4585  0.9639  0.8539
 4226TIP3    H234094   1.919   4.196   2.188 -0.3051 -0.8521 -0.0353
 4227TIP3   OH234095   0.895   5.321  14.034  0.3966  0.1507 -0.2056
 4227TIP3    H134096   0.983   5.302  14.064  0.7202 -0.2034 -1.3496
 4227TIP3    H234097   0.898   5.412  14.005  0.5930 -0.0832 -0.9409
 4228TIP3   OH234098   0.135   5.753  11.302  0.1536  0.0365 -0.4615
 4228TIP3    H134099   0.181   5.757  11.386 -0.4352 -1.6873 -0.0228
 4228TIP3    H234100   0.107   5.843  11.285  1.0601  0.5585  0.7418
 4229TIP3   OH234101   0.978   1.651  10.507  0.5811  0.0644 -0.2258
 4229TIP3    H134102   0.988   1.731  10.558  0.0082  0.1673 -0.2664
 4229TIP3    H234103   0.979   1.580  10.571 -0.7903  0.2368  0.0116
 4230TIP3   OH234104   0.509   1.121  13.025  0.3631 -0.5520  0.3908
 4230TIP3    H134105   0.431   1.075  13.058  0.1914 -0.7164 -0.2353
 4230TIP3    H234106   0.500   1.210  13.059  0.9442 -1.0901  2.0189
 4231TIP3   OH234107   3.818   1.432  12.079  0.2321  0.9704 -0.3306
 4231TIP3    H134108   3.862   1.421  12.163 -0.2676  0.6408 -0.1056
 4231TIP3    H234109   3.887   1.458  12.019  0.5349  1.5182  0.2496
 4232TIP3   OH234110   0.648   0.485   5.757  0.0325  0.5323  0.1585
 4232TIP3    H134111   0.614   0.545   5.823 -2.0231 -2.8424  2.2891
 4232TIP3    H234112   0.583   0.489   5.686  0.7589  2.0052 -0.4472
 4233TIP3   OH234113   5.558   4.177  16.365  0.2622 -0.0142  0.0451
 4233TIP3    H134114   5.474   4.133  16.351  0.4675 -0.0374 -1.1828
 4233TIP3    H234115   5.621   4.106  16.376  0.0463  0.0054  1.4996
 4234TIP3   OH234116   4.116   2.515   4.432 -0.2850 -0.4364 -0.7690
 4234TIP3    H134117   4.092   2.424   4.418 -1.1163  0.0397 -2.5160
 4234TIP3    H234118   4.115   2.555   4.345 -0.1767  1.3034 -0.0062
 4235TIP3   OH234119   2.647   2.233   3.973 -0.4959 -0.1960 -0.3902
 4235TIP3    H134120   2.706   2.170   4.014 -2.9772 -1.5097  1.2664
 4235TIP3    H234121   2.674   2.318   4.008 -0.6560 -0.9776  1.6730
 4236TIP3   OH234122   3.674   0.457  15.066 -0.7065 -0.1471  0.6936
 4236TIP3    H134123   3.693   0.429  15.155  2.2835  0.4827  0.3017
 4236TIP3    H234124   3.656   0.376  15.018  1.7163 -0.9062  0.9805
 4237TIP3   OH234125   4.702   1.938  16.739 -0.0862 -0.6839 -0.0344
 4237TIP3    H134126   4.679   1.859  16.690 -0.6461 -0.3274 -0.3431
 4237TIP3    H234127   4.642   2.005  16.707 -0.6311 -0.5152  1.3079
 4238TIP3   OH234128   2.241   5.722   1.505 -0.0897  0.5091 -0.4613
 4238TIP3    H134129   2.227   5.631   1.533  1.0628  0.4589 -0.0172
 4238TIP3    H234130   2.303   5.715   1.432  0.1239  0.9564 -0.3215
 4239TIP3   OH234131   0.543   4.184   0.040 -0.2253 -0.3607 -0.9005
 4239TIP3    H134132   0.541   4.126   0.116 -1.3886  0.0142 -0.6320
 4239TIP3    H234133   0.633   4.217   0.037  0.6026 -2.6085 -1.4048
 4240TIP3   OH234134   0.792   4.845  15.757  0.9430  0.0560  0.2807
 4240TIP3    H134135   0.885   4.825  15.766  1.0991  0.4606 -0.4361
 4240TIP3    H234136   0.789   4.936  15.727  0.3284 -0.0306  0.0681
 4241TIP3   OH234137   2.830   6.214   0.022  0.8330 -0.0972 -0.3261
 4241TIP3    H134138   2.748   6.235  -0.023 -0.9807  2.1869  3.7408
 4241TIP3    H234139   2.897   6.260  -0.028 -0.8967  1.2360 -1.4946
 4242TIP3   OH234140   2.141   4.526  14.766  0.0125  1.0886  0.3067
 4242TIP3    H134141   2.143   4.621  14.753 -1.4934  0.8135 -2.3995
 4242TIP3    H234142   2.059   4.510  14.812  0.2257  1.1025  0.6883
 4243TIP3   OH234143   3.209   5.859   6.377 -0.1629 -0.5144  0.6457
 4243TIP3    H134144   3.296   5.829   6.351  0.3997  1.1921  0.5293
 4243TIP3    H234145   3.156   5.853   6.298  0.4466  0.6200  0.1468
 4244TIP3   OH234146   3.108   1.398   4.250 -0.0546 -0.1188 -0.1688
 4244TIP3    H134147   3.071   1.415   4.337  0.3712  1.1793 -0.2327
 4244TIP3    H234148   3.035   1.412   4.190  0.0262  0.4895 -0.1323
 4245TIP3   OH234149   0.631   4.721  16.244 -0.3779 -0.2384 -0.3034
 4245TIP3    H134150   0.638   4.686  16.155  1.0419  0.3314 -0.4251
 4245TIP3    H234151   0.596   4.810  16.232  1.4366  0.4668 -0.4283
 4246TIP3   OH234152   3.566   3.916  14.527  0.5759  0.5594  0.1081
 4246TIP3    H134153   3.632   3.897  14.593 -1.7159  1.0113  2.5879
 4246TIP3    H234154   3.575   3.846  14.462  1.3099 -1.2120  2.0935
 4247TIP3   OH234155   5.331   5.042   4.514  0.4088  0.0529 -0.1853
 4247TIP3    H134156   5.344   5.024   4.607  0.8450  2.4213  0.2277
 4247TIP3    H234157   5.362   4.963   4.470 -0.0542 -1.2044  1.6774
 4248TIP3   OH234158   5.028   0.489   6.253  0.0103 -0.3580 -0.5463
 4248TIP3    H134159   5.076   0.568   6.230  0.3826  0.2812  2.2931
 4248TIP3    H234160   5.084   0.444   6.317 -2.5410 -0.2094  1.8940
 4249TIP3   OH234161   0.172   6.290   0.122 -0.0126  0.2965  0.3949
 4249TIP3    H134162   0.150   6.289   0.215  0.3931  0.5779  0.4978
 4249TIP3    H234163   0.124   6.216   0.085  0.2708 -0.1672  0.9359
 4250TIP3   OH234164   2.531   4.711  11.726  0.2552 -0.1761 -0.2024
 4250TIP3    H134165   2.545   4.622  11.693  0.4159 -0.7494  1.3693
 4250TIP3    H234166   2.455   4.743  11.678 -1.2783 -2.0552  0.9150
 4251TIP3   OH234167   3.566   4.353  15.857 -0.7501  0.9461 -0.0330
 4251TIP3    H134168   3.616   4.373  15.778 -0.5266 -2.0752 -0.7052
 4251TIP3    H234169   3.475   4.350  15.828 -0.7479  0.6908 -0.0188
 4252TIP3   OH234170   0.802   6.349   2.705  0.2084  0.1381  0.4151
 4252TIP3    H134171   0.827   6.281   2.642 -0.7296  1.2684 -1.2169
 4252TIP3    H234172   0.885   6.382   2.738  0.6845 -1.7578  1.2175
 4253TIP3   OH234173   0.411   2.396   3.950  0.1042 -0.3987 -0.0985
 4253TIP3    H134174   0.448   2.387   3.862 -0.6301 -0.3010 -0.4161
 4253TIP3    H234175   0.474   2.452   3.996  1.9502 -2.6944  0.2930
 4254TIP3   OH234176   1.127   5.500   5.640 -0.4631 -0.1353 -0.6858
 4254TIP3    H134177   1.093   5.579   5.682  1.2734 -0.3010  1.0862
 4254TIP3    H234178   1.220   5.499   5.662 -0.1579 -1.8932 -1.9455
 4255TIP3   OH234179   3.173   6.338  12.008 -0.0333 -0.2217  0.0322
 4255TIP3    H134180   3.131   6.365  11.926 -0.0800 -2.1578 -0.6230
 4255TIP3    H234181   3.266   6.336  11.987 -0.0733 -1.0650 -0.1048
 4256TIP3   OH234182   0.170   3.982   2.639  0.4682  0.0648 -0.1577
 4256TIP3    H134183   0.161   3.914   2.572  0.9369  2.6796 -3.0113
 4256TIP3    H234184   0.149   4.064   2.592 -1.9033  1.7274  3.5678
 4257TIP3   OH234185   2.572   3.443  16.924  0.2706  0.1413  0.4377
 4257TIP3    H134186   2.624   3.363  16.917 -0.9195 -0.4949 -1.3377
 4257TIP3    H234187   2.484   3.412  16.944 -0.1163  1.0335  0.1235
 4258TIP3   OH234188   0.900   1.668  11.137  0.2219 -0.0827  0.4597
 4258TIP3    H134189   0.875   1.717  11.059  1.6562 -0.8727 -0.5340
 4258TIP3    H234190   0.823   1.616  11.158 -0.4782  0.7834  0.0937
 4259TIP3   OH234191   2.890   4.114  15.416 -0.2491 -0.5233 -0.0468
 4259TIP3    H134192   2.928   4.054  15.480  0.4284 -0.3417 -0.2686
 4259TIP3    H234193   2.965   4.142  15.362 -0.2880  1.7033  1.0118
 4260TIP3   OH234194   6.488   2.710  13.299 -0.3087  0.3256  0.5432
 4260TIP3    H134195   6.450   2.711  13.211  1.8384 -1.2470 -0.4432
 4260TIP3    H234196   6.579   2.682  13.286 -0.0342 -0.2110  3.2938
 4261TIP3   OH234197   3.379   5.695   3.514  0.2659  0.1199  0.2085
 4261TIP3    H134198   3.297   5.704   3.564  0.5294  1.4202  0.4303
 4261TIP3    H234199   3.404   5.785   3.494  1.2253 -0.3154 -0.5528
 4262TIP3   OH234200   4.633   4.874   0.815 -0.2144 -0.2425  0.2647
 4262TIP3    H134201   4.620   4.883   0.721  1.9283  0.8759  0.0443
 4262TIP3    H234202   4.689   4.797   0.825  0.8751  0.5596  0.4856
 4263TIP3   OH234203   1.265   3.072  10.985  0.3135  0.0492 -0.1834
 4263TIP3    H134204   1.348   3.116  10.965 -1.9418  3.3022 -2.6197
 4263TIP3    H234205   1.248   3.016  10.909  0.6144 -1.2138  0.6587
 4264TIP3   OH234206   3.826   1.861  12.884 -0.0907 -1.0211  0.1034
 4264TIP3    H134207   3.855   1.814  12.962  0.9722 -0.1066  0.2589
 4264TIP3    H234208   3.904   1.904  12.850 -0.6684 -0.8844 -1.1131
 4265TIP3   OH234209   3.465   1.665  17.237  0.7009  0.1389  0.0720
 4265TIP3    H134210   3.474   1.759  17.221 -2.8169  0.8571  1.9034
 4265TIP3    H234211   3.411   1.633  17.164 -1.2091  0.2756  1.3923
 4266TIP3   OH234212   2.294   5.255  15.348 -0.5570 -0.3762 -0.2896
 4266TIP3    H134213   2.367   5.194  15.354 -0.2547  0.0940  0.8944
 4266TIP3    H234214   2.221   5.208  15.388  0.3476  1.0441  3.1697
 4267TIP3   OH234215   3.685   6.426  15.308 -0.3524  0.1693  0.1657
 4267TIP3    H134216   3.725   6.461  15.388  0.6374  1.7942 -0.9885
 4267TIP3    H234217   3.741   6.353  15.283 -1.1327 -0.8582  1.3886
 4268TIP3   OH234218   3.717   6.026  14.999  0.2050  0.1617  0.0482
 4268TIP3    H134219   3.680   5.967  15.064  0.2309 -0.6524 -0.6688
 4268TIP3    H234220   3.659   6.103  15.000 -0.8456 -0.6169 -0.2613
 4269TIP3   OH234221   1.323   4.257  15.698  0.1570  0.2898  0.3814
 4269TIP3    H134222   1.344   4.167  15.672  0.3083  0.8224 -1.4739
 4269TIP3    H234223   1.351   4.263  15.789 -0.4441 -1.7242  0.7203
 4270TIP3   OH234224   6.142   5.881   0.119  0.3974 -0.1501 -0.7732
 4270TIP3    H134225   6.231   5.864   0.151  0.1359  2.0780  1.2630
 4270TIP3    H234226   6.143   5.973   0.094 -0.9962 -0.4517 -1.9831
 4271TIP3   OH234227   1.790   4.250   0.254  0.9231  0.9792 -0.1610
 4271TIP3    H134228   1.771   4.332   0.207 -1.4755  0.2821 -0.4874
 4271TIP3    H234229   1.852   4.204   0.197 -0.2644  1.1170 -1.5903
 4272TIP3   OH234230   3.231   0.731  15.383 -0.1098 -0.2590 -0.0954
 4272TIP3    H134231   3.182   0.803  15.344 -0.0727 -0.4792 -0.5569
 4272TIP3    H234232   3.286   0.772  15.450 -1.0063 -0.0237  0.5015
 4273TIP3   OH234233   5.274   5.962  14.486  0.3705 -0.0259  0.1526
 4273TIP3    H134234   5.315   5.886  14.529  1.1772 -0.9541 -2.1923
 4273TIP3    H234235   5.347   6.010  14.447 -0.0952  2.2358  1.9460
 4274TIP3   OH234236   2.328   2.174   2.178 -0.5204  0.3377  0.1697
 4274TIP3    H134237   2.338   2.252   2.232 -0.4098  0.2784  0.2358
 4274TIP3    H234238   2.334   2.101   2.240  1.1194  0.2183 -0.1302
 4275TIP3   OH234239   0.606   3.769   2.335  0.0603  0.1790  0.1471
 4275TIP3    H134240   0.696   3.766   2.367 -0.1417  0.2979  0.7473
 4275TIP3    H234241   0.614   3.783   2.241  0.6746 -0.3284  0.1218
 4276TIP3   OH234242   4.336   3.582   1.056 -0.2283 -0.3410 -0.5530
 4276TIP3    H134243   4.244   3.603   1.038 -0.6396 -1.7632 -0.1775
 4276TIP3    H234244   4.354   3.620   1.142 -0.8734 -1.2872 -0.0036
 4277TIP3   OH234245   6.661   5.986  11.897  0.0189 -0.7177 -1.0510
 4277TIP3    H134246   6.642   5.997  11.990  1.2140  2.7545 -1.1324
 4277TIP3    H234247   6.669   5.891  11.885 -1.5635 -1.3076  2.0578
 4278TIP3   OH234248   2.045   4.812  13.380 -0.2679  0.8001 -0.5368
 4278TIP3    H134249   2.039   4.819  13.476 -0.7684  1.2661 -0.5933
 4278TIP3    H234250   2.081   4.896  13.352 -3.1553  1.9476 -0.9935
 4279TIP3   OH234251   0.287   0.301   0.404  0.1353  0.3675 -0.3993
 4279TIP3    H134252   0.373   0.336   0.426 -0.0134  0.3901  0.1602
 4279TIP3    H234253   0.247   0.279   0.488 -0.5759  0.7749 -0.6192
 4280TIP3   OH234254   2.021   0.614  15.213 -0.5809 -0.0642  0.1473
 4280TIP3    H134255   1.955   0.642  15.150  0.0506  0.3237 -0.3554
 4280TIP3    H234256   2.025   0.685  15.277 -0.8166 -0.1930  0.3033
 4281TIP3   OH234257   4.682   1.059  11.877 -0.3114  0.1242  0.0932
 4281TIP3    H134258   4.660   1.098  11.792 -1.6807  2.1974  1.3278
 4281TIP3    H234259   4.769   1.093  11.897 -0.6637  0.9558  0.2444
 4282TIP3   OH234260   2.056   3.003   5.719  0.0099 -0.1955  0.0817
 4282TIP3    H134261   2.039   3.084   5.671 -1.0672 -0.5291 -0.1223
 4282TIP3    H234262   2.004   3.012   5.799 -2.1319 -1.7490 -1.0878
 4283TIP3   OH234263   5.544   4.918   0.171  0.0377  0.9403  0.0663
 4283TIP3    H134264   5.601   4.947   0.243  0.4974  0.5636 -0.1444
 4283TIP3    H234265   5.584   4.837   0.141 -2.5488 -1.2030  2.1736
 4284TIP3   OH234266   3.985   1.087  15.888 -0.2548  0.3868 -0.3590
 4284TIP3    H134267   4.017   1.014  15.941  0.6049  0.5382 -0.6685
 4284TIP3    H234268   3.895   1.099  15.917  0.4989  1.1189  1.8147
 4285TIP3   OH234269   3.834   0.366  14.220  0.2681  0.5543  0.0088
 4285TIP3    H134270   3.812   0.412  14.302  0.1577  0.8331 -0.1772
 4285TIP3    H234271   3.857   0.277  14.248  0.6180  0.7631  0.3825
 4286TIP3   OH234272   1.073   4.696   0.816  0.4650 -0.1549 -0.3180
 4286TIP3    H134273   1.027   4.777   0.794  2.3272  0.5443 -1.7884
 4286TIP3    H234274   1.154   4.724   0.858  0.6452 -1.2885  0.1177
 4287TIP3   OH234275   6.312   5.952   4.903 -0.2277  0.1748  0.2925
 4287TIP3    H134276   6.402   5.926   4.880 -0.5473 -1.1708  0.5518
 4287TIP3    H234277   6.262   5.871   4.900 -0.7499  0.3339  3.4658
 4288TIP3   OH234278   6.670   3.622   1.809  0.4310  0.2863  0.1904
 4288TIP3    H134279   6.671   3.568   1.888  0.5244 -0.1505 -0.1084
 4288TIP3    H234280   6.760   3.621   1.778 -0.1767 -2.0921 -1.6473
 4289TIP3   OH234281   0.142   6.063   1.974  0.5985 -0.2597 -0.0875
 4289TIP3    H134282   0.204   5.990   1.967  3.9174  2.3364  0.6136
 4289TIP3    H234283   0.174   6.128   1.911 -1.9892  0.8054 -0.3596
 4290TIP3   OH234284   2.077   1.320   1.016 -0.1892 -0.0187  0.1205
 4290TIP3    H134285   2.142   1.253   0.997  0.6326  0.4008  1.3444
 4290TIP3    H234286   2.122   1.381   1.074 -1.3517  0.8514  0.1327
 4291TIP3   OH234287   3.769   6.082  12.876  0.2706 -0.1974  0.6429
 4291TIP3    H134288   3.827   6.130  12.935  1.3666 -2.2012  1.2340
 4291TIP3    H234289   3.825   6.016  12.835 -1.3313 -1.4000  0.3330
 4292TIP3   OH234290   2.773   0.079   0.997  0.1018  0.4993  0.8665
 4292TIP3    H134291   2.760   0.150   1.060  0.4466  0.0651  1.4321
 4292TIP3    H234292   2.866   0.082   0.976 -0.0721  0.8417  0.1346
 4293TIP3   OH234293   5.472   6.225   2.748  0.3273 -0.0088  0.0969
 4293TIP3    H134294   5.424   6.292   2.699  1.2485  0.1548 -0.5780
 4293TIP3    H234295   5.557   6.219   2.705  0.0743 -1.9835 -0.1882
 4294TIP3   OH234296   0.518   5.841  10.243 -0.3097  0.2536  0.2192
 4294TIP3    H134297   0.470   5.853  10.325  0.4341 -0.4138  0.7620
 4294TIP3    H234298   0.462   5.880  10.176 -1.9351 -1.1209  0.7421
 4295TIP3   OH234299   0.444   0.335  13.075 -0.6437 -0.0273 -0.1144
 4295TIP3    H134300   0.349   0.329  13.087 -0.7500  2.0693  0.2173
 4295TIP3    H234301   0.455   0.393  13.000  0.3752 -0.2213 -0.1127
 4296TIP3   OH234302   5.222   5.456  13.715  0.0335 -0.1901  0.2979
 4296TIP3    H134303   5.285   5.518  13.678 -0.4478  1.2363  1.8264
 4296TIP3    H234304   5.250   5.371  13.681  1.8648  0.6101 -0.2764
 4297TIP3   OH234305   1.619   3.333   3.866  1.1121  0.2624  0.1176
 4297TIP3    H134306   1.608   3.238   3.861 -1.0115  0.3732  1.9158
 4297TIP3    H234307   1.663   3.348   3.949  1.6537  0.8304 -0.2715
 4298TIP3   OH234308   3.952   0.706   4.327  0.3928  0.7275  0.5713
 4298TIP3    H134309   4.008   0.685   4.402 -1.5944 -1.8146  1.3768
 4298TIP3    H234310   3.959   0.629   4.270  0.8211  2.0792 -1.2437
 4299TIP3   OH234311   2.678   3.418   4.125  0.0661 -0.1029  0.5868
 4299TIP3    H134312   2.683   3.498   4.178 -0.7545  0.1670  0.2666
 4299TIP3    H234313   2.639   3.353   4.184 -0.9070  0.2149  0.3061
 4300TIP3   OH234314   4.426   4.891  12.246  0.1164  0.2263 -0.1589
 4300TIP3    H134315   4.445   4.798  12.261  0.3218  0.2943  0.0177
 4300TIP3    H234316   4.333   4.894  12.227  0.0015  0.0464  0.3766
 4301TIP3   OH234317   0.529   3.550  13.855 -0.4565 -0.4289  0.2631
 4301TIP3    H134318   0.623   3.537  13.865 -0.6709 -1.3972  1.0706
 4301TIP3    H234319   0.501   3.589  13.938 -0.8923 -0.8691  0.3269
 4302TIP3   OH234320   3.574   4.884  10.546  0.0417 -0.2120  0.1124
 4302TIP3    H134321   3.604   4.892  10.456 -0.6071 -0.2831 -0.1144
 4302TIP3    H234322   3.497   4.940  10.551  0.6907  0.6167  0.9123
 4303TIP3   OH234323   0.865   1.722   1.017 -0.3338  0.2098  0.3151
 4303TIP3    H134324   0.922   1.720   1.094 -1.4434  1.7314  1.1899
 4303TIP3    H234325   0.819   1.805   1.023 -1.9245 -0.5573 -0.9272
 4304TIP3   OH234326   0.524   4.395   0.401  1.0176  0.6878 -0.3408
 4304TIP3    H134327   0.526   4.417   0.494  2.5075  1.1662 -0.4745
 4304TIP3    H234328   0.458   4.326   0.394 -1.2022  2.6788  0.6120
 4305TIP3   OH234329   6.543   4.319   1.227  0.6108 -0.3715  0.0158
 4305TIP3    H134330   6.485   4.294   1.156 -0.7282  0.4893  0.7953
 4305TIP3    H234331   6.623   4.351   1.184  0.1061 -0.5737 -1.0681
 4306TIP3   OH234332   4.831   3.946   4.802 -0.3245  0.2520 -0.0665
 4306TIP3    H134333   4.756   3.888   4.813  0.0731 -0.2872 -0.2080
 4306TIP3    H234334   4.907   3.889   4.809  0.0389  0.5496 -1.4704
 4307TIP3   OH234335   0.581   3.647  15.117  0.0517  0.3834  0.5368
 4307TIP3    H134336   0.518   3.674  15.050  0.1339  0.0668  0.3339
 4307TIP3    H234337   0.663   3.634  15.069  0.2950  0.8603  0.8110
 4308TIP3   OH234338   2.377   1.861  16.774 -0.6507 -0.2699  0.7876
 4308TIP3    H134339   2.326   1.780  16.764  2.4368 -2.4567  2.0718
 4308TIP3    H234340   2.353   1.892  16.861 -2.5039  0.7230 -0.0476
 4309TIP3   OH234341   0.284   1.647   1.812 -0.3904 -0.5341 -0.5208
 4309TIP3    H134342   0.265   1.621   1.902 -0.7394 -0.5471 -0.5947
 4309TIP3    H234343   0.230   1.588   1.759 -2.4869  1.3986 -0.6299
 4310TIP3   OH234344   0.316   3.333   2.686 -0.8175 -0.6335 -0.5291
 4310TIP3    H134345   0.349   3.261   2.633 -1.0618 -0.7661 -0.5004
 4310TIP3    H234346   0.391   3.392   2.696 -0.1284 -1.7150  0.8531
 4311TIP3   OH234347   0.197   2.707  13.950 -0.3284  0.4521  0.0765
 4311TIP3    H134348   0.270   2.691  13.891 -1.3692  0.9197 -1.3827
 4311TIP3    H234349   0.201   2.636  14.014 -1.3949 -2.3170 -2.7923
 4312TIP3   OH234350   1.067   2.202   4.837  0.5185 -0.1362  0.4680
 4312TIP3    H134351   1.080   2.185   4.744  1.1576  1.7076  0.2001
 4312TIP3    H234352   1.127   2.273   4.857 -0.3513  0.1805  2.0563
 4313TIP3   OH234353   1.375   2.799   0.686 -0.9768  0.2500 -0.2223
 4313TIP3    H134354   1.405   2.889   0.698  1.2476 -0.3054 -1.3433
 4313TIP3    H234355   1.314   2.804   0.613 -0.7383  0.8414 -0.3856
 4314TIP3   OH234356   4.456   6.052  11.679 -0.5329 -0.3216 -0.4617
 4314TIP3    H134357   4.424   5.978  11.627 -0.6254 -0.6639  0.0787
 4314TIP3    H234358   4.422   6.036  11.767 -0.3092  0.2139 -0.2778
 4315TIP3   OH234359   2.302   4.200   0.379  0.1358 -0.1097  0.4777
 4315TIP3    H134360   2.231   4.136   0.378 -1.1369  1.2470  1.5046
 4315TIP3    H234361   2.328   4.205   0.471  1.2990 -0.3096  0.1628
 4316TIP3   OH234362   4.885   1.562  16.102  0.6774 -0.1871 -0.0829
 4316TIP3    H134363   4.921   1.488  16.054  0.5852 -0.0635 -0.3448
 4316TIP3    H234364   4.917   1.639  16.055  3.5621  0.0509  2.1268
 4317TIP3   OH234365   3.174   0.152  14.533 -0.5003 -0.1600 -0.4683
 4317TIP3    H134366   3.203   0.178  14.446  0.5827  0.0471 -0.0510
 4317TIP3    H234367   3.079   0.143  14.525 -0.3938 -0.2257 -1.6856
 4318TIP3   OH234368   3.270   2.838  13.656  0.2073 -0.2344 -0.2595
 4318TIP3    H134369   3.345   2.814  13.602 -0.3659  1.2055 -1.7830
 4318TIP3    H234370   3.215   2.892  13.597 -2.3458 -1.8236  0.5860
 4319TIP3   OH234371   2.398   1.760   6.516  0.6330 -0.0914 -0.1257
 4319TIP3    H134372   2.385   1.855   6.507  1.3502 -0.1517 -2.0799
 4319TIP3    H234373   2.394   1.744   6.610  0.1952  1.8429  0.2042
 4320TIP3   OH234374   2.690   0.252  15.417 -0.4761 -0.3088 -0.1184
 4320TIP3    H134375   2.640   0.329  15.390  0.1299  0.6506  1.3970
 4320TIP3    H234376   2.730   0.219  15.337  0.9029  2.1718 -0.4971
 4321TIP3   OH234377   4.516   4.765  11.702  0.5102 -0.3695  0.1492
 4321TIP3    H134378   4.584   4.824  11.734 -1.7341  1.3105  2.0258
 4321TIP3    H234379   4.448   4.824  11.668 -1.7701 -1.7881  2.0651
 4322TIP3   OH234380   5.780   5.587   0.593 -0.0884  0.2346 -0.3626
 4322TIP3    H134381   5.782   5.550   0.505  0.5585  0.1667 -0.3248
 4322TIP3    H234382   5.736   5.671   0.584 -1.0867 -0.2917 -0.5470
 4323TIP3   OH234383   6.722   3.083   1.545  0.0766 -0.1095  0.2786
 4323TIP3    H134384   6.724   3.069   1.450 -2.7393 -0.6175  0.2477
 4323TIP3    H234385   6.729   3.177   1.556 -1.1537  0.0838 -0.5236
 4324TIP3   OH234386   0.957   1.712  12.783  0.0335  0.8743 -0.5028
 4324TIP3    H134387   0.957   1.622  12.752  0.9781  0.8392 -0.3896
 4324TIP3    H234388   0.989   1.706  12.873  3.2757  1.7024 -1.5561
 4325TIP3   OH234389   0.009   1.097   2.499 -0.1649  0.1974  0.7282
 4325TIP3    H134390  -0.057   1.158   2.531 -0.2157  0.4662  0.1165
 4325TIP3    H234391   0.089   1.123   2.545 -0.0221  1.1927 -0.0656
 4326TIP3   OH234392   0.515   6.326   3.543 -0.3132 -0.5428 -0.2122
 4326TIP3    H134393   0.571   6.249   3.536  0.8756  0.2512  0.4514
 4326TIP3    H234394   0.571   6.399   3.517 -1.4675  0.0877 -0.9615
 4327TIP3   OH234395   0.028   4.104  14.239  0.2393  0.3112  0.5578
 4327TIP3    H134396  -0.004   4.173  14.181 -3.0292 -0.9426  0.7850
 4327TIP3    H234397   0.027   4.144  14.326  3.3860  1.5843  0.1189
 4328TIP3   OH234398   2.458   0.879  12.030  0.1194  0.3051 -0.2727
 4328TIP3    H134399   2.496   0.910  12.113 -2.0969  2.4052  0.0283
 4328TIP3    H234400   2.478   0.949  11.967 -2.0665  0.8600 -0.4008
 4329TIP3   OH234401   0.973   4.940   0.723 -0.5389  0.2987  0.1707
 4329TIP3    H134402   0.902   5.003   0.735  0.7041  1.4081  1.8382
 4329TIP3    H234403   1.006   4.959   0.635 -0.6381  1.5387  0.3832
 4330TIP3   OH234404   4.054   0.335   5.881  0.1422 -0.2020 -0.4046
 4330TIP3    H134405   3.976   0.383   5.851 -0.0373 -1.8606 -2.7076
 4330TIP3    H234406   4.021   0.277   5.949 -0.0566  1.2230  0.7505
 4331TIP3   OH234407   3.585   0.695   4.691  0.0165 -0.0533  0.2894
 4331TIP3    H134408   3.554   0.689   4.601  1.5846  0.1465 -0.2730
 4331TIP3    H234409   3.676   0.666   4.688  0.2335  0.4195  1.7241
 4332TIP3   OH234410   5.514   2.937   0.343 -0.8806  0.0332  0.0964
 4332TIP3    H134411   5.455   2.874   0.384 -0.1079 -0.0008  1.1900
 4332TIP3    H234412   5.473   2.958   0.259 -1.6818 -1.1182  0.1880
 4333TIP3   OH234413   4.711   5.468  14.399  0.1274  0.6455  0.0897
 4333TIP3    H134414   4.729   5.509  14.484 -0.0469 -0.0351  0.4686
 4333TIP3    H234415   4.733   5.534  14.334  1.5239  0.7171  0.6312
 4334TIP3   OH234416   2.452   4.861   4.105 -0.3162  0.0263 -0.5634
 4334TIP3    H134417   2.381   4.809   4.069 -1.0460  0.2540  0.5308
 4334TIP3    H234418   2.532   4.822   4.067 -1.1117  1.1761 -3.5575
 4335TIP3   OH234419   4.456   5.354   4.322 -0.0759 -0.1309 -0.7756
 4335TIP3    H134420   4.522   5.372   4.388  0.8044  1.9074 -2.1707
 4335TIP3    H234421   4.403   5.283   4.359  1.1126  0.1867  1.5751
 4336TIP3   OH234422   5.838   2.465   3.698 -0.1686 -0.3075  0.3811
 4336TIP3    H134423   5.746   2.441   3.709 -0.2620 -0.8173 -1.4181
 4336TIP3    H234424   5.863   2.502   3.782 -1.7406 -1.1003  1.2226
 4337TIP3   OH234425   1.136   3.759   4.627  0.0678  0.4822 -0.1331
 4337TIP3    H134426   1.174   3.753   4.715 -1.5575  1.0521  0.6102
 4337TIP3    H234427   1.064   3.821   4.635 -0.4315  0.1505 -1.7663
 4338TIP3   OH234428   2.411   2.581  11.317  0.0930  0.0097 -0.4995
 4338TIP3    H134429   2.427   2.503  11.263 -1.1393  0.6833 -1.8548
 4338TIP3    H234430   2.407   2.653  11.255 -4.1370  0.4454  0.1482
 4339TIP3   OH234431   4.869   1.318  16.877  0.1585  0.0242 -0.3186
 4339TIP3    H134432   4.861   1.389  16.942  1.5533  1.5811 -1.7952
 4339TIP3    H234433   4.932   1.257  16.916  1.6535  1.3863 -0.5405
 4340TIP3   OH234434   5.474   4.828  11.095 -0.6696  0.3808  0.4518
 4340TIP3    H134435   5.409   4.768  11.132 -0.5764 -0.1631 -0.2570
 4340TIP3    H234436   5.428   4.873  11.024  0.3106 -1.5852 -1.5141
 4341TIP3   OH234437   4.989   1.360  13.277  0.1604 -0.4354 -0.2701
 4341TIP3    H134438   5.049   1.418  13.230  0.7636 -1.7436 -1.1503
 4341TIP3    H234439   4.967   1.292  13.213 -0.2748 -1.3613  0.8485
 4342TIP3   OH234440   4.323   2.377  14.889  0.7013  0.2937  0.3775
 4342TIP3    H134441   4.260   2.422  14.945 -0.2340 -1.4480  0.7507
 4342TIP3    H234442   4.271   2.317  14.836  1.8689  0.0157 -0.4810
 4343TIP3   OH234443   4.025   6.674   1.824 -0.0589  0.4229 -0.1719
 4343TIP3    H134444   3.952   6.736   1.817 -1.2517 -0.7082  1.9057
 4343TIP3    H234445   3.983   6.589   1.832  1.4885 -0.2330  1.2352
 4344TIP3   OH234446   4.335   0.627  15.423 -0.8216  0.0717  0.2713
 4344TIP3    H134447   4.260   0.659  15.374 -1.7889 -1.1369  0.9596
 4344TIP3    H234448   4.333   0.676  15.505 -1.1857 -0.3682  0.5252
 4345TIP3   OH234449   0.041   0.372   4.811 -0.1915 -0.3570  0.2089
 4345TIP3    H134450  -0.000   0.448   4.771 -0.2953 -0.2242  0.5681
 4345TIP3    H234451   0.011   0.298   4.758  0.4712 -0.0721 -0.5659
 4346TIP3   OH234452   4.032   3.541  11.086 -0.5224  0.3038 -0.0668
 4346TIP3    H134453   4.059   3.452  11.064  0.1786  0.2304  1.0656
 4346TIP3    H234454   4.029   3.542  11.182 -1.1393  1.3225 -0.0907
 4347TIP3   OH234455   4.197   1.449   6.266 -0.0552 -0.0528 -0.3462
 4347TIP3    H134456   4.148   1.530   6.282  1.8590  1.3826 -1.4708
 4347TIP3    H234457   4.140   1.396   6.212 -1.4078  0.4622  0.5583
 4348TIP3   OH234458   0.464   4.920   6.121 -0.1868 -0.0357 -0.4926
 4348TIP3    H134459   0.506   4.965   6.048 -1.3833  0.5671 -0.8145
 4348TIP3    H234460   0.523   4.847   6.141  1.2368  1.0568 -0.6375
 4349TIP3   OH234461   1.820   4.567  13.877 -0.1819  0.1306 -0.2515
 4349TIP3    H134462   1.760   4.512  13.827  0.8060  0.4856 -1.8691
 4349TIP3    H234463   1.767   4.643  13.903 -1.7427 -1.8129  2.5878
 4350TIP3   OH234464   3.158   1.260   2.478 -0.4912 -0.9417  0.1760
 4350TIP3    H134465   3.226   1.313   2.519  0.2950 -1.2342 -0.7598
 4350TIP3    H234466   3.117   1.213   2.551  1.3301 -1.9580  0.5688
 4351TIP3   OH234467   2.111   1.680  15.887 -0.4545 -0.2012 -0.2784
 4351TIP3    H134468   2.172   1.613  15.917  0.4402  0.0483 -1.5359
 4351TIP3    H234469   2.024   1.643  15.905  0.0417 -1.3662 -0.2694
 4352TIP3   OH234470   2.386   1.964   1.213  0.2629 -0.3326 -0.4006
 4352TIP3    H134471   2.466   2.015   1.198  0.0902 -0.6805 -2.6053
 4352TIP3    H234472   2.349   2.001   1.293  0.7048  2.3059 -1.3707
 4353TIP3   OH234473   0.107   3.239  12.353  0.3080 -0.2050 -0.0597
 4353TIP3    H134474   0.025   3.211  12.394  0.5864 -1.3169 -0.2554
 4353TIP3    H234475   0.167   3.166  12.367  1.4699  0.8672  0.6432
 4354TIP3   OH234476   3.494   0.024   2.716 -0.2465 -0.7615  0.7243
 4354TIP3    H134477   3.589   0.021   2.725 -0.2341  0.6558  1.1281
 4354TIP3    H234478   3.468   0.105   2.759 -1.6300 -1.0643  0.4906
 4355TIP3   OH234479   3.357   1.796   2.272  0.2380  0.1143  0.1038
 4355TIP3    H134480   3.287   1.735   2.252  0.5659 -0.2263 -0.0085
 4355TIP3    H234481   3.330   1.838   2.353 -0.1447  0.0610  0.0056
 4356TIP3   OH234482   5.466   6.773  12.455  0.1996  0.2227 -0.1656
 4356TIP3    H134483   5.520   6.694  12.463 -0.0798  0.1454  1.0782
 4356TIP3    H234484   5.385   6.743  12.414  1.3169  0.4479 -2.6322
 4357TIP3   OH234485   1.266   3.001  11.802  0.2344  0.1241  0.5447
 4357TIP3    H134486   1.277   2.942  11.876  1.4460  1.2191  1.2644
 4357TIP3    H234487   1.290   3.087  11.836 -2.0324  1.1482 -0.3266
 4358TIP3   OH234488   6.210   0.526   3.626 -0.5419  0.5905  0.1332
 4358TIP3    H134489   6.261   0.605   3.646 -0.5250  0.9784 -1.3615
 4358TIP3    H234490   6.254   0.456   3.674 -1.0314  1.6031  2.1428
 4359TIP3   OH234491   6.781   5.143   6.512 -0.2547 -0.8346 -0.6323
 4359TIP3    H134492   6.869   5.180   6.509 -0.9354  0.7381 -1.9124
 4359TIP3    H234493   6.733   5.200   6.572 -1.0507 -0.2170 -1.8418
 4360TIP3   OH234494   3.043   6.505  12.404 -0.1640 -0.0087  0.1305
 4360TIP3    H134495   3.074   6.559  12.332  0.7550  1.4322  1.5785
 4360TIP3    H234496   2.969   6.456  12.367  1.5888 -0.9007 -2.3823
 4361TIP3   OH234497   4.321   5.905   3.593  0.2656 -0.2219 -0.1751
 4361TIP3    H134498   4.233   5.869   3.602 -0.1992  0.8773 -0.1973
 4361TIP3    H234499   4.327   5.932   3.502 -0.0666  1.4337  0.2773
 4362TIP3   OH234500   0.827   3.253  13.970  0.6401 -0.1907 -0.2291
 4362TIP3    H134501   0.905   3.253  14.026  1.1824 -1.3241 -0.9673
 4362TIP3    H234502   0.780   3.173  13.995 -0.2235  0.4061  0.1074
 4363TIP3   OH234503   4.311   5.057  13.360 -0.6169 -0.1198 -0.5276
 4363TIP3    H134504   4.254   5.049  13.436 -0.8125 -1.6078 -0.8171
 4363TIP3    H234505   4.367   4.979  13.363  0.8034  0.8777 -0.7336
 4364TIP3   OH234506   2.023   0.402  12.624 -0.3832  0.2710 -0.2258
 4364TIP3    H134507   2.050   0.435  12.538 -2.1775 -0.9384 -1.2775
 4364TIP3    H234508   1.996   0.481  12.671 -0.9160  0.7755 -1.3434
 4365TIP3   OH234509   5.293   2.450   3.292  0.0376  0.3122 -0.1366
 4365TIP3    H134510   5.336   2.531   3.318 -0.5567  0.2772  0.9646
 4365TIP3    H234511   5.337   2.382   3.343 -0.5002  0.1353  0.1022
 4366TIP3   OH234512   4.267   5.380  10.682  0.2186  0.1899 -0.0238
 4366TIP3    H134513   4.257   5.364  10.588  1.2014  1.1118 -0.2967
 4366TIP3    H234514   4.361   5.396  10.694 -0.0040  0.7789  0.9952
 4367TIP3   OH234515   4.007   4.868  10.118  0.3783 -0.0215 -0.3466
 4367TIP3    H134516   4.101   4.872  10.100  0.3516  0.9699 -0.2923
 4367TIP3    H234517   3.996   4.792  10.174  1.2509  0.2880  0.2510
 4368TIP3   OH234518   3.319   1.134  12.029  0.1810 -0.0808  0.0856
 4368TIP3    H134519   3.340   1.054  11.982 -1.6613 -0.5742  0.0653
 4368TIP3    H234520   3.240   1.168  11.986  0.8754  1.6926  0.1515
 4369TIP3   OH234521   2.986   1.977  13.237  0.3393  0.3119  0.0097
 4369TIP3    H134522   2.970   1.917  13.164  2.3932 -0.8214  0.4586
 4369TIP3    H234523   3.035   2.049  13.198 -1.4365  1.3448 -0.3679
 4370TIP3   OH234524   4.447   5.433   5.571  0.3386  0.2222  0.5041
 4370TIP3    H134525   4.504   5.376   5.624  1.6467  2.8723  2.0784
 4370TIP3    H234526   4.367   5.441   5.622  0.4797  0.4735  0.6862
 4371TIP3   OH234527   2.000   6.040  13.470 -0.8545 -0.1142  0.3848
 4371TIP3    H134528   1.933   5.978  13.443 -1.1415  0.3481  0.0403
 4371TIP3    H234529   2.053   6.054  13.392 -2.7725  2.6203 -0.4929
 4372TIP3   OH234530   1.626   6.676  16.461  0.0324 -0.2156 -0.0916
 4372TIP3    H134531   1.559   6.738  16.431  0.8436  0.0361 -1.4338
 4372TIP3    H234532   1.708   6.725  16.454  0.9048 -1.9389 -2.8224
 4373TIP3   OH234533   1.061   1.844  16.527 -0.4344 -0.5178  0.5540
 4373TIP3    H134534   1.051   1.915  16.463  0.1668  0.3276  1.3868
 4373TIP3    H234535   1.036   1.883  16.610 -0.8874 -1.5232  0.8962
 4374TIP3   OH234536   6.668   3.803  14.175  0.0174 -0.1183 -0.0233
 4374TIP3    H134537   6.691   3.780  14.265  1.9738  0.7111 -0.2932
 4374TIP3    H234538   6.608   3.877  14.184 -1.1492 -1.1226  0.6360
 4375TIP3   OH234539   0.605   3.957  12.407 -0.0011  0.2759 -0.0775
 4375TIP3    H134540   0.691   3.944  12.367 -0.7934  0.8822 -2.0478
 4375TIP3    H234541   0.598   4.052  12.417 -0.6977  0.2760 -0.5398
 4376TIP3   OH234542   2.179   2.478   6.166 -0.3331 -0.0311  0.5626
 4376TIP3    H134543   2.256   2.534   6.179 -0.3793  0.0695  0.4031
 4376TIP3    H234544   2.212   2.389   6.177 -0.3357  0.0442  1.2100
 4377TIP3   OH234545   1.694   1.659  11.551 -0.2710  0.2305 -0.1113
 4377TIP3    H134546   1.600   1.639  11.554 -0.0501 -0.9290 -0.9900
 4377TIP3    H234547   1.725   1.620  11.470  0.9884  0.5940  0.1817
 4378TIP3   OH234548   3.576   0.501   5.062 -0.5777 -0.1189  0.1663
 4378TIP3    H134549   3.636   0.575   5.058  0.1000 -0.6600  0.3132
 4378TIP3    H234550   3.547   0.498   5.153  0.5430 -0.9390  0.5055
 4379TIP3   OH234551   0.086   3.284  15.225  0.1101 -0.1406  0.3780
 4379TIP3    H134552   0.166   3.333  15.208  0.3503 -0.1819  1.3741
 4379TIP3    H234553   0.109   3.223  15.295 -1.2506  1.0330  1.8826
 4380TIP3   OH234554   5.019   6.621   4.973 -0.1035  0.1504  0.0345
 4380TIP3    H134555   5.067   6.689   4.926 -1.7700  1.1824 -0.2094
 4380TIP3    H234556   5.041   6.540   4.927  1.9050  0.4971  0.3371
 4381TIP3   OH234557   0.022   2.222  12.856  0.0799  0.5651 -0.0591
 4381TIP3    H134558   0.079   2.245  12.783  0.4631  0.3629  0.1747
 4381TIP3    H234559  -0.056   2.276  12.843  1.0203  2.0956  0.5605
 4382TIP3   OH234560   6.275   6.226   1.379  0.3104  0.2946  0.4422
 4382TIP3    H134561   6.197   6.194   1.335 -0.4140  0.6983  1.3977
 4382TIP3    H234562   6.267   6.322   1.375  0.4905  0.3373  0.9783
 4383TIP3   OH234563   1.931   1.127  14.726  0.3871  0.3210 -0.1910
 4383TIP3    H134564   1.945   1.165  14.813  2.7020 -0.9002  0.0124
 4383TIP3    H234565   1.992   1.174  14.669  0.5815 -0.5055 -0.6762
 4384TIP3   OH234566   3.094   0.314   4.394  0.2833 -0.3327 -0.0829
 4384TIP3    H134567   3.149   0.320   4.471  0.5483 -1.8632 -0.1343
 4384TIP3    H234568   3.043   0.395   4.394  0.8068  0.0045  1.2799
 4385TIP3   OH234569   1.522   0.053  13.369  0.6999 -0.1559  0.0870
 4385TIP3    H134570   1.589   0.021  13.310  0.0005 -1.4583 -0.0281
 4385TIP3    H234571   1.450  -0.009  13.360  1.0699 -1.1725  3.2521
 4386TIP3   OH234572   4.392   3.876   4.081  0.2489  0.5082  0.0096
 4386TIP3    H134573   4.362   3.907   3.996 -0.0030  0.5485  0.1129
 4386TIP3    H234574   4.323   3.818   4.112 -0.1526  1.3227  0.6581
 4387TIP3   OH234575   0.085   2.531  16.958  0.6471 -0.0882  0.2731
 4387TIP3    H134576   0.040   2.553  16.877  0.9666 -0.6014 -0.0424
 4387TIP3    H234577   0.037   2.578  17.026 -0.1395 -0.3538 -0.1015
 4388TIP3   OH234578   4.430   5.727  14.275 -0.3200 -0.2061  0.1069
 4388TIP3    H134579   4.469   5.804  14.234 -0.9067 -0.0990 -0.2581
 4388TIP3    H234580   4.424   5.662  14.205  1.4720 -1.0897  0.7396
 4389TIP3   OH234581   0.167   2.871  14.928  0.3603  0.5477 -0.2544
 4389TIP3    H134582   0.124   2.880  14.843 -2.0374 -0.2445  0.8363
 4389TIP3    H234583   0.096   2.851  14.989  2.1491  0.2947  1.8031
 4390TIP3   OH234584   5.090   2.328  17.131  0.6619  0.1628  0.2223
 4390TIP3    H134585   5.091   2.241  17.092 -1.5117  0.8934 -1.5771
 4390TIP3    H234586   5.001   2.360  17.117  0.2543  1.1645  4.3213
 4391TIP3   OH234587   1.071   5.861  13.814 -0.3841 -0.0683  0.3906
 4391TIP3    H134588   0.986   5.854  13.858 -0.0436  1.8513  1.3804
 4391TIP3    H234589   1.131   5.889  13.882  1.0445 -1.2818 -0.3435
 4392TIP3   OH234590   2.645   6.453   1.134 -0.4306  0.0740 -0.0723
 4392TIP3    H134591   2.644   6.360   1.109 -1.2504 -0.3205  1.3964
 4392TIP3    H234592   2.553   6.476   1.144 -0.2419  1.1591 -0.8241
 4393TIP3   OH234593   5.859   2.991  14.009 -0.0510  0.2399  0.5772
 4393TIP3    H134594   5.875   3.069  13.956 -0.3435 -1.1309 -1.6119
 4393TIP3    H234595   5.940   2.978  14.058  0.9475  0.4615 -0.9797
 4394TIP3   OH234596   6.482   1.818   0.345  0.4167 -0.2224 -0.8094
 4394TIP3    H134597   6.408   1.760   0.326 -0.8078  1.2993 -0.8048
 4394TIP3    H234598   6.462   1.854   0.431  1.7405 -0.6375 -0.3059
 4395TIP3   OH234599   1.490   5.118   3.705  0.2327 -0.3801 -0.4347
 4395TIP3    H134600   1.536   5.188   3.752  1.4879 -1.3637 -0.1528
 4395TIP3    H234601   1.432   5.163   3.645 -0.0459  0.9070  0.7762
 4396TIP3   OH234602   6.010   1.495  14.107  0.7111 -0.3501  0.2263
 4396TIP3    H134603   5.922   1.517  14.076 -0.3296 -2.0659  1.8458
 4396TIP3    H234604   6.054   1.579  14.118 -1.4492  0.6612  1.4430
 4397TIP3   OH234605   0.475   0.749   0.892 -0.0735  0.0510 -0.0248
 4397TIP3    H134606   0.559   0.785   0.920 -0.1194  0.6616 -0.6594
 4397TIP3    H234607   0.431   0.724   0.973 -0.0136  1.3726  0.4160
 4398TIP3   OH234608   0.659   5.253  14.149  0.0441  0.3333 -0.8049
 4398TIP3    H134609   0.736   5.273  14.094  0.1868 -0.2203 -0.8098
 4398TIP3    H234610   0.674   5.164  14.179  0.0673  0.7091  0.3140
 4399TIP3   OH234611   1.290   0.829  12.449  0.4075 -0.1568  0.0168
 4399TIP3    H134612   1.362   0.892  12.447  0.3960 -0.1584 -0.6148
 4399TIP3    H234613   1.330   0.748  12.480  0.5824 -0.0410  0.0959
 4400TIP3   OH234614   2.573   5.947  11.590 -0.5966  0.6318  0.0487
 4400TIP3    H134615   2.655   5.907  11.560 -1.3160 -0.5146 -0.4463
 4400TIP3    H234616   2.527   5.969  11.510 -0.8905  1.0178  0.3266
 4401TIP3   OH234617   4.321   3.932   0.518  0.0230  0.3621  0.4369
 4401TIP3    H134618   4.342   3.839   0.519  0.3239  0.4352  0.8506
 4401TIP3    H234619   4.310   3.955   0.610 -1.4627  0.4150  0.2580
 4402TIP3   OH234620   5.308   1.773   2.636 -0.2653 -0.6620  0.3305
 4402TIP3    H134621   5.327   1.867   2.643  0.9234 -1.0149  2.1275
 4402TIP3    H234622   5.241   1.757   2.702  0.7978 -1.3832  1.2684
 4403TIP3   OH234623   0.436   5.785   4.587  0.1939 -0.0037  0.0549
 4403TIP3    H134624   0.523   5.766   4.623  0.2291 -2.1409 -1.0699
 4403TIP3    H234625   0.448   5.781   4.492 -0.7594  1.5580 -0.1403
 4404TIP3   OH234626   2.860   5.295   2.005  0.0668  0.2422 -0.5330
 4404TIP3    H134627   2.948   5.261   1.989 -0.4366 -1.3952  0.0236
 4404TIP3    H234628   2.854   5.373   1.951  1.0999 -0.8374 -2.2592
 4405TIP3   OH234629   3.436   6.161   3.823  0.5017  0.1057  0.0196
 4405TIP3    H134630   3.495   6.115   3.764  3.8374  0.4264  2.9642
 4405TIP3    H234631   3.444   6.253   3.797  0.8580  0.0857  0.0604
 4406TIP3   OH234632   2.879   5.973   2.148 -0.2811 -0.4039 -0.6090
 4406TIP3    H134633   2.884   5.878   2.133  0.7340 -0.7166  1.4881
 4406TIP3    H234634   2.868   5.981   2.242 -1.7274  1.5554 -0.9254
 4407TIP3   OH234635   4.172   2.630   2.597  0.1109  0.0307  0.1058
 4407TIP3    H134636   4.231   2.695   2.558 -0.7517 -0.4822 -2.1230
 4407TIP3    H234637   4.164   2.561   2.530 -1.3572 -0.9040  1.2141
 4408TIP3   OH234638   4.778   6.748  15.405  0.0397  0.2343  0.1305
 4408TIP3    H134639   4.762   6.773  15.314 -0.4728 -0.6335 -0.0216
 4408TIP3    H234640   4.751   6.656  15.410  2.1388 -0.3913  0.6148
 4409TIP3   OH234641   6.351   2.215  15.571 -0.6902  0.3260 -0.1434
 4409TIP3    H134642   6.295   2.275  15.521 -2.2768 -1.5091 -0.6318
 4409TIP3    H234643   6.300   2.195  15.649 -0.1854 -0.4050 -0.0053
 4410TIP3   OH234644   0.626   1.641   4.213 -0.7411 -0.1325 -0.3739
 4410TIP3    H134645   0.707   1.590   4.218 -0.5521  0.2821  1.1331
 4410TIP3    H234646   0.599   1.651   4.304 -1.1239  1.8791 -0.6883
 4411TIP3   OH234647   3.092   4.806   1.444  0.4653 -0.5617 -0.5159
 4411TIP3    H134648   3.176   4.841   1.473 -0.2328 -0.1747  1.1100
 4411TIP3    H234649   3.040   4.883   1.422 -0.3413 -0.6478  1.0065
 4412TIP3   OH234650   4.863   3.264  15.275  0.0046 -0.1452 -0.6039
 4412TIP3    H134651   4.906   3.248  15.360  0.0011  0.1963 -0.5389
 4412TIP3    H234652   4.932   3.297  15.219 -0.2256  0.6125 -0.4388
 4413TIP3   OH234653   4.304   5.377  13.491 -0.3737  0.4963  0.2302
 4413TIP3    H134654   4.346   5.326  13.560 -0.9119  0.5095  0.5744
 4413TIP3    H234655   4.335   5.466  13.505 -0.4799  0.4992  0.4535
 4414TIP3   OH234656   4.492   1.675  12.406 -0.3246 -0.3014 -0.0567
 4414TIP3    H134657   4.467   1.756  12.451  0.9701  0.6360 -0.9767
 4414TIP3    H234658   4.570   1.645  12.453  0.6929  0.3712 -1.2835
 4415TIP3   OH234659   0.662   5.152  16.406 -0.4510 -0.3737  0.1065
 4415TIP3    H134660   0.674   5.228  16.463 -2.5438 -1.7924  2.5384
 4415TIP3    H234661   0.683   5.184  16.318  2.7376  1.9054  1.5940
 4416TIP3   OH234662   2.161   5.355   4.773  0.5667 -0.4092  0.4827
 4416TIP3    H134663   2.233   5.418   4.783  1.5391 -1.4185 -0.1460
 4416TIP3    H234664   2.082   5.408   4.785  1.4114  0.5610  2.0155
 4417TIP3   OH234665   1.709   4.901  13.563 -0.0025  0.6985 -0.1012
 4417TIP3    H134666   1.727   4.866  13.476 -0.0137  0.3451  0.0351
 4417TIP3    H234667   1.775   4.969  13.576  1.1420 -0.4806  0.3397
 4418TIP3   OH234668   5.876   3.610  11.498 -0.3135  0.2695 -0.2638
 4418TIP3    H134669   5.953   3.557  11.515 -1.1580 -0.7443  0.4602
 4418TIP3    H234670   5.854   3.649  11.582 -1.0734 -0.1069 -0.2830
 4419TIP3   OH234671   0.154   5.284   1.016  0.6306 -0.8298  0.0609
 4419TIP3    H134672   0.105   5.202   1.019 -1.3178  0.3236  1.9611
 4419TIP3    H234673   0.091   5.348   0.982  1.0818  0.4974  1.6378
 4420TIP3   OH234674   0.354   3.496  12.052  0.8309 -0.1945  0.5096
 4420TIP3    H134675   0.358   3.462  11.962  1.6841 -0.4272  0.6280
 4420TIP3    H234676   0.442   3.530  12.068 -0.1449  2.6583  0.1874
 4421TIP3   OH234677   3.711   4.138   6.024 -0.0068 -0.2344 -0.0376
 4421TIP3    H134678   3.702   4.232   6.012  0.0497 -0.0897  1.0237
 4421TIP3    H234679   3.805   4.121   6.015  0.2669  0.1335  1.9633
 4422TIP3   OH234680   4.156   5.297  14.267  0.1452 -0.2425  0.6885
 4422TIP3    H134681   4.064   5.314  14.249  0.5572  0.1731 -1.1283
 4422TIP3    H234682   4.186   5.374  14.314 -0.5949 -0.7013  1.9411
 4423TIP3   OH234683   2.755   0.326  11.213  0.3216  0.1239 -0.0252
 4423TIP3    H134684   2.713   0.263  11.270 -1.0637 -0.4680 -1.6530
 4423TIP3    H234685   2.690   0.395  11.200  1.2189  1.0792  0.4200
 4424TIP3   OH234686   5.726   1.728   4.485 -0.7473 -0.5251  0.0463
 4424TIP3    H134687   5.772   1.801   4.444 -1.4853  0.4080  0.8695
 4424TIP3    H234688   5.753   1.652   4.434 -1.0454  0.4948 -1.6853
 4425TIP3   OH234689   5.579   4.507  17.091 -0.1927 -0.3689 -0.6823
 4425TIP3    H134690   5.645   4.441  17.070  0.4626  0.5687 -1.5992
 4425TIP3    H234691   5.560   4.550  17.007 -3.0455 -1.5836 -0.7363
 4426TIP3   OH234692   0.980   1.975  13.823 -0.3225  0.2741  0.2932
 4426TIP3    H134693   0.986   2.065  13.791  1.0470  0.2821  0.5447
 4426TIP3    H234694   0.984   1.921  13.745 -1.2113  0.4152  0.1360
 4427TIP3   OH234695   0.568   5.278   5.529  0.4967 -0.0059  0.0210
 4427TIP3    H134696   0.592   5.349   5.588  0.5959 -0.3224  0.3672
 4427TIP3    H234697   0.544   5.206   5.587  0.5895 -0.3177 -0.3238
 4428TIP3   OH234698   2.159   6.546  11.843 -0.2012  0.0948  0.6376
 4428TIP3    H134699   2.142   6.544  11.749  0.9343  0.0313  0.4263
 4428TIP3    H234700   2.078   6.514  11.882 -1.0336  1.0616 -0.2610
 4429TIP3   OH234701   4.576   3.672   5.178 -0.5896  0.3605  0.1906
 4429TIP3    H134702   4.648   3.639   5.125 -0.9649  1.2922 -0.9239
 4429TIP3    H234703   4.501   3.616   5.154 -0.0588 -1.1388  1.9547
 4430TIP3   OH234704   3.042   0.875   6.166 -0.1646  0.2838  0.2048
 4430TIP3    H134705   3.092   0.955   6.182 -2.4531  1.5452  1.1457
 4430TIP3    H234706   3.018   0.880   6.074  0.0183  0.4710  0.1654
 4431TIP3   OH234707   4.670   3.481   2.925  0.6536  0.2136  0.1885
 4431TIP3    H134708   4.737   3.413   2.914  0.3333 -0.0158 -0.3370
 4431TIP3    H234709   4.719   3.563   2.923  1.1454 -0.0415  1.7153
 4432TIP3   OH234710   2.470   0.541  14.781 -0.3215 -0.2556  0.6078
 4432TIP3    H134711   2.469   0.629  14.819  1.5778 -0.4596  1.1527
 4432TIP3    H234712   2.534   0.545  14.710 -1.0990 -0.8928 -0.1441
 4433TIP3   OH234713   4.346   2.798  13.892 -0.2348 -0.2313  0.6716
 4433TIP3    H134714   4.255   2.786  13.865 -0.4039  1.0724  0.6536
 4433TIP3    H234715   4.354   2.748  13.973 -0.3746 -2.1525 -0.4769
 4434TIP3   OH234716   0.562   1.587   3.946 -0.2612 -0.1547  0.4114
 4434TIP3    H134717   0.497   1.657   3.942 -0.0335  0.0587  0.4210
 4434TIP3    H234718   0.608   1.602   4.028  1.6828  1.3940 -0.8880
 4435TIP3   OH234719   1.917   1.659  14.109  0.5197 -0.3368  0.5508
 4435TIP3    H134720   1.988   1.599  14.086  1.3300  0.2609  1.4083
 4435TIP3    H234721   1.956   1.746  14.102  0.1403 -0.0408  1.8881
 4436TIP3   OH234722   0.492   5.397   4.380 -0.2236 -0.3739  0.5296
 4436TIP3    H134723   0.513   5.442   4.462  0.5879 -1.5037  0.9419
 4436TIP3    H234724   0.403   5.426   4.359  0.3903  1.6378  0.6425
 4437TIP3   OH234725   2.133   6.037   4.191 -0.4413  0.4636 -0.0624
 4437TIP3    H134726   2.080   6.024   4.113 -0.2109  0.5910 -0.2395
 4437TIP3    H234727   2.176   5.953   4.206  1.0603  1.0065 -1.2146
 4438TIP3   OH234728   0.467   4.888  14.661  0.0659  0.1729 -0.7241
 4438TIP3    H134729   0.477   4.983  14.670  0.9524 -0.0920  1.4624
 4438TIP3    H234730   0.383   4.870  14.702  0.2678 -0.0619 -0.4091
 4439TIP3   OH234731   3.564   5.610  13.739 -0.1071 -0.2154 -0.1488
 4439TIP3    H134732   3.647   5.627  13.693  0.1885 -0.0459  0.4467
 4439TIP3    H234733   3.496   5.633  13.675  0.3018  0.5543 -0.3119
 4440TIP3   OH234734   5.058   2.873   4.175  0.3001 -0.4724  0.0371
 4440TIP3    H134735   5.075   2.866   4.269  0.7327 -0.7577 -0.0622
 4440TIP3    H234736   4.975   2.920   4.170  1.1326  1.0971  0.5222
 4441TIP3   OH234737   3.878   2.884  16.904  0.3181  0.1165 -0.4413
 4441TIP3    H134738   3.963   2.919  16.877  0.7421 -0.4439  0.1367
 4441TIP3    H234739   3.816   2.921  16.842  1.3064 -1.3612 -2.4006
 4442TIP3   OH234740   4.328   0.155   0.534  0.2483  0.2432  0.0326
 4442TIP3    H134741   4.332   0.227   0.471  0.0448 -1.6187 -2.1894
 4442TIP3    H234742   4.419   0.127   0.544  0.0912 -0.6149 -0.8455
 4443TIP3   OH234743   4.421   5.485   3.046  0.3013  0.5393 -0.1911
 4443TIP3    H134744   4.385   5.410   2.999 -0.4657 -0.0271  1.2570
 4443TIP3    H234745   4.388   5.475   3.135  2.2840  1.2044  0.6467
 4444TIP3   OH234746   0.741   1.540   5.946  0.3167  0.0630 -0.4938
 4444TIP3    H134747   0.761   1.479   5.875 -0.4244 -2.0310  1.0327
 4444TIP3    H234748   0.812   1.529   6.009  0.8510  1.7291 -0.7898
 4445TIP3   OH234749   1.524   0.319  14.406 -0.5118 -0.2041  0.5841
 4445TIP3    H134750   1.480   0.234  14.411 -1.6857  0.2226 -1.8053
 4445TIP3    H234751   1.482   0.372  14.474 -1.9307 -0.6063  0.0360
 4446TIP3   OH234752   0.033   5.334  15.435  0.0420  0.0978 -0.2499
 4446TIP3    H134753   0.095   5.306  15.367 -0.4112  1.2951 -1.1571
 4446TIP3    H234754   0.073   5.412  15.473 -0.8066  0.7597 -0.7028
 4447TIP3   OH234755   2.383   5.941   1.964  0.3495 -0.6089 -0.6284
 4447TIP3    H134756   2.340   5.968   1.882  2.4776  0.0774 -1.5466
 4447TIP3    H234757   2.358   5.849   1.974 -3.4956  0.4313  0.2900
 4448TIP3   OH234758   5.711   6.069  14.876 -0.3900 -0.2221 -0.6335
 4448TIP3    H134759   5.796   6.027  14.864  0.0926  0.6558 -0.2810
 4448TIP3    H234760   5.674   6.073  14.788 -0.0256 -0.4980 -0.8029
 4449TIP3   OH234761   2.805   1.320  12.331 -0.2691  0.1383  0.3120
 4449TIP3    H134762   2.772   1.271  12.406  0.9786 -1.9784 -0.4874
 4449TIP3    H234763   2.865   1.385  12.369 -1.8070  0.9791  1.3582
 4450TIP3   OH234764   4.184   6.510  16.133  0.2620  0.2800  0.1499
 4450TIP3    H134765   4.193   6.603  16.115 -1.6275  0.5345  0.3816
 4450TIP3    H234766   4.188   6.504  16.229  0.3980  0.1178  0.1344
 4451TIP3   OH234767   1.880   3.957  13.205 -0.1670  0.4640  0.6225
 4451TIP3    H134768   1.916   3.872  13.180 -1.0512  0.7830 -1.8842
 4451TIP3    H234769   1.785   3.948  13.191 -0.3966  1.5281  1.3676
 4452TIP3   OH234770   2.915   0.155   4.622 -0.1441 -0.2409  0.1330
 4452TIP3    H134771   2.992   0.211   4.630 -0.5350  0.1985  0.8000
 4452TIP3    H234772   2.845   0.213   4.591 -0.5129 -0.3859  0.6923
 4453TIP3   OH234773   6.621   5.286   2.832  0.7208  0.7704  0.5254
 4453TIP3    H134774   6.658   5.345   2.767  0.2651  0.8617  0.3469
 4453TIP3    H234775   6.593   5.343   2.903 -0.4189  0.8595  0.0251
 4454TIP3   OH234776   5.977   5.718   0.268  0.0094 -0.1346  0.7059
 4454TIP3    H134777   6.017   5.631   0.269  1.5313  0.5267 -0.4864
 4454TIP3    H234778   6.051   5.778   0.255 -1.0919  1.2963  0.9470
 4455TIP3   OH234779   0.557   5.775   2.357 -0.0755 -0.0450  0.0078
 4455TIP3    H134780   0.577   5.867   2.371  2.0587 -0.8899  3.1643
 4455TIP3    H234781   0.633   5.741   2.310  0.3487 -0.7039  1.1443
 4456TIP3   OH234782   2.439   3.988   5.334 -0.9020  0.4552 -0.0202
 4456TIP3    H134783   2.439   3.989   5.239  2.5564  0.6816 -0.0936
 4456TIP3    H234784   2.462   4.078   5.359  0.9115 -0.2611  0.9516
 4457TIP3   OH234785   1.594   4.356   5.029  0.6629  0.4702 -0.5032
 4457TIP3    H134786   1.587   4.310   5.113 -0.0150 -0.6614 -1.1581
 4457TIP3    H234787   1.581   4.287   4.963 -0.1459  1.5632 -1.5166
 4458TIP3   OH234788   0.189   3.084  13.478  0.0298  0.0588  0.2369
 4458TIP3    H134789   0.157   3.033  13.403  1.8555  0.2134 -0.6650
 4458TIP3    H234790   0.148   3.170  13.467  0.0811  0.0028 -0.4277
 4459TIP3   OH234791   5.969   3.281   1.251 -0.5724 -0.5289  0.2170
 4459TIP3    H134792   5.919   3.359   1.227  0.5770  0.1934  0.1138
 4459TIP3    H234793   5.973   3.230   1.170 -2.2271 -1.2244  0.5473
 4460TIP3   OH234794   6.010   6.319   2.184  0.5647 -0.0517  0.5527
 4460TIP3    H134795   5.992   6.246   2.242  0.2236 -0.2473  0.2081
 4460TIP3    H234796   6.011   6.281   2.096 -1.0927  0.5915  0.2381
 4461TIP3   OH234797   5.470   1.746   4.992  0.0785 -0.2332 -0.4719
 4461TIP3    H134798   5.458   1.758   5.087 -0.6472  1.6044 -0.7794
 4461TIP3    H234799   5.451   1.653   4.978 -0.3792 -0.4029  1.1082
 4462TIP3   OH234800   5.912   4.032  13.779  0.3603 -0.4618 -0.1038
 4462TIP3    H134801   5.906   3.980  13.700 -0.7674  0.4452 -0.6220
 4462TIP3    H234802   5.831   4.082  13.782  1.9225  2.1779 -0.2665
 4463TIP3   OH234803   3.770   5.589  10.514 -0.2070 -0.1802  0.2859
 4463TIP3    H134804   3.702   5.532  10.478 -0.2302 -0.1083  0.2165
 4463TIP3    H234805   3.796   5.645  10.441 -2.4347  2.0601  1.1420
 4464TIP3   OH234806   4.660   1.830   5.705 -0.2856  0.0481  0.2652
 4464TIP3    H134807   4.701   1.821   5.791  0.1468 -0.6080 -0.0057
 4464TIP3    H234808   4.721   1.884   5.654 -1.0944  1.4230  0.7219
 4465TIP3   OH234809   5.216   5.365   6.111  0.0593 -0.3050 -0.9050
 4465TIP3    H134810   5.174   5.450   6.125  0.9113  0.2898 -1.8896
 4465TIP3    H234811   5.302   5.375   6.152  0.1626 -0.6908 -1.0282
 4466TIP3   OH234812   1.793   0.575   4.413  0.0033 -0.1057  0.0650
 4466TIP3    H134813   1.826   0.651   4.366  0.6339  0.7351  1.8341
 4466TIP3    H234814   1.755   0.610   4.493 -0.5012 -1.5809  0.5016
 4467TIP3   OH234815   1.042   5.814   2.320  0.2544  0.3561 -0.2893
 4467TIP3    H134816   1.009   5.898   2.290  0.2260  0.8986  1.2156
 4467TIP3    H234817   1.120   5.835   2.370  0.6200 -0.5741 -0.4469
 4468TIP3   OH234818   3.315   2.825   1.142 -0.4506  0.2476  0.2979
 4468TIP3    H134819   3.237   2.852   1.190  0.3139  1.7640  0.6973
 4468TIP3    H234820   3.293   2.842   1.050 -0.5858  0.6723  0.4083
 4469TIP3   OH234821   6.370   3.435   2.108  0.4336  0.1771 -0.3093
 4469TIP3    H134822   6.327   3.437   2.193  0.4242  2.5824 -0.3378
 4469TIP3    H234823   6.330   3.507   2.059  0.9846 -0.6814 -2.0767
 4470TIP3   OH234824   2.661   5.012   0.096  0.3189  0.6373 -0.3678
 4470TIP3    H134825   2.735   4.951   0.094 -1.3363 -1.3803 -1.3129
 4470TIP3    H234826   2.695   5.092   0.055  1.2802 -1.1119 -3.1154
 4471TIP3   OH234827   0.771   5.056  13.417  0.4267 -0.0988 -0.2397
 4471TIP3    H134828   0.726   4.978  13.447  1.5423 -0.7239 -0.1799
 4471TIP3    H234829   0.854   5.056  13.463 -0.2867  2.0896  1.1228
 4472TIP3   OH234830   3.730   6.574  15.088 -0.6840  0.4578 -0.0382
 4472TIP3    H134831   3.713   6.500  15.146 -1.6679  0.2388 -0.6002
 4472TIP3    H234832   3.785   6.538  15.018 -0.6551  0.4000  0.0140
 4473TIP3   OH234833   2.155   3.235   6.524 -0.1501  0.4277 -0.2407
 4473TIP3    H134834   2.228   3.291   6.496 -0.7045  1.5026  0.4389
 4473TIP3    H234835   2.196   3.150   6.543  0.8703  0.9185 -0.2260
 4474TIP3   OH234836   5.021   0.423  16.902 -0.2196 -0.3597  0.5390
 4474TIP3    H134837   4.982   0.480  16.968 -2.9297 -0.8140 -0.5873
 4474TIP3    H234838   4.954   0.416  16.834  2.0301 -0.8868 -1.6846
 4475TIP3   OH234839   2.801   6.549  16.789 -0.1601 -0.2591 -0.4331
 4475TIP3    H134840   2.869   6.490  16.757 -0.7792 -0.7407 -0.8736
 4475TIP3    H234841   2.803   6.623  16.728  1.2295  0.6145  0.6458
 4476TIP3   OH234842   6.388   0.700   6.117  0.5541 -0.1516 -0.2276
 4476TIP3    H134843   6.387   0.653   6.200 -0.5337  0.4753  0.1156
 4476TIP3    H234844   6.349   0.785   6.137  0.1746 -0.0448 -1.4109
 4477TIP3   OH234845   6.126   3.416  12.969  0.0973  0.0132 -0.0409
 4477TIP3    H134846   6.148   3.493  12.917  0.9746 -1.0660 -1.3101
 4477TIP3    H234847   6.039   3.389  12.937 -0.6565  1.0335  1.0979
 4478TIP3   OH234848   1.116   4.662  13.612  0.1261 -0.5133  0.6319
 4478TIP3    H134849   1.148   4.679  13.701 -0.5584 -0.9857  0.9762
 4478TIP3    H234850   1.180   4.603  13.574 -0.5056 -1.7359  1.4373
 4479TIP3   OH234851   6.650   2.172   0.631 -0.1396 -0.0608 -0.3335
 4479TIP3    H134852   6.641   2.103   0.566  1.3274 -0.8082  0.2344
 4479TIP3    H234853   6.742   2.200   0.624  0.5834 -1.4108  2.6173
 4480TIP3   OH234854   0.954   3.591   1.105  0.5588  0.2166 -0.1016
 4480TIP3    H134855   0.913   3.671   1.071  0.6674  0.9729  1.5262
 4480TIP3    H234856   0.994   3.551   1.028 -2.0083  0.1900 -1.4898
 4481TIP3   OH234857   5.382   4.456  16.274 -0.4226 -0.2054  0.8479
 4481TIP3    H134858   5.396   4.375  16.323  0.3867 -0.5310  0.1014
 4481TIP3    H234859   5.311   4.436  16.214  1.0072 -0.9661 -0.6274
 4482TIP3   OH234860   0.319   5.573   0.936 -0.2815  0.5767 -0.3589
 4482TIP3    H134861   0.254   5.549   1.003  0.1364 -0.6760 -0.3856
 4482TIP3    H234862   0.272   5.632   0.877 -0.6096  1.8505  1.1266
 4483TIP3   OH234863   6.548   6.117   1.530 -0.1288 -0.2154 -0.3403
 4483TIP3    H134864   6.560   6.027   1.558  1.8506  0.4301  0.9832
 4483TIP3    H234865   6.497   6.158   1.600  0.2690  0.0503 -0.1986
 4484TIP3   OH234866   5.021   6.100  17.010 -0.3341  0.0512 -0.5954
 4484TIP3    H134867   5.052   6.023  16.964  1.6684  0.8147 -0.5697
 4484TIP3    H234868   5.062   6.095  17.096  0.5257  1.5780 -0.8952
 4485TIP3   OH234869   0.672   6.129  11.934 -0.4290 -0.6166  0.4028
 4485TIP3    H134870   0.660   6.222  11.952  1.3199 -0.1654 -0.6795
 4485TIP3    H234871   0.631   6.115  11.849  2.8351  0.0509 -1.3412
 4486TIP3   OH234872   6.053   2.236  16.886  0.0441  0.0246  0.0583
 4486TIP3    H134873   6.087   2.239  16.975  1.5972 -0.8548 -0.4740
 4486TIP3    H234874   6.100   2.306  16.840 -0.9523  0.6583 -0.0070
 4487TIP3   OH234875   2.099   6.362  12.413 -0.0800 -0.1465 -0.2049
 4487TIP3    H134876   2.180   6.311  12.416 -0.0297 -0.0515  0.0462
 4487TIP3    H234877   2.035   6.302  12.375 -0.4344 -0.9617  1.6268
 4488TIP3   OH234878   1.081   3.324  12.141  0.4659 -0.6865  0.3159
 4488TIP3    H134879   1.147   3.304  12.074 -0.5827 -0.2432 -0.8876
 4488TIP3    H234880   1.129   3.369  12.210  1.2834  0.4374 -0.9614
 4489TIP3   OH234881   3.744   6.083   4.101 -0.3374 -0.5826 -0.6548
 4489TIP3    H134882   3.703   5.997   4.090  0.1826 -0.7638 -1.1734
 4489TIP3    H234883   3.724   6.130   4.020 -1.3057  0.0748 -0.0466
 4490TIP3   OH234884   1.288   4.454  12.398 -0.3335 -0.4388  0.5862
 4490TIP3    H134885   1.353   4.408  12.452 -0.0298 -0.7777 -0.0715
 4490TIP3    H234886   1.232   4.385  12.364  0.3999 -0.3744 -0.7739
 4491TIP3   OH234887   5.981   0.617  16.992 -0.4688  0.2661  0.7046
 4491TIP3    H134888   5.988   0.701  16.947  1.6097  0.1618  0.7931
 4491TIP3    H234889   6.005   0.637  17.083  0.1337 -0.4419  0.7005
 4492TIP3   OH234890   2.651   4.059   0.440 -0.3831 -0.0645  0.0994
 4492TIP3    H134891   2.634   4.093   0.353 -0.3499 -0.6986 -0.1606
 4492TIP3    H234892   2.565   4.031   0.472 -0.2983 -0.4202  0.0166
 4493TIP3   OH234893   4.092   0.575  11.229  1.0039  0.0393 -0.0066
 4493TIP3    H134894   4.141   0.591  11.309  1.4909 -1.8284  0.0931
 4493TIP3    H234895   4.139   0.503  11.186 -1.2714 -1.3796 -0.2132
 4494TIP3   OH234896   2.610   1.865   0.976 -0.8460 -0.2961 -0.0791
 4494TIP3    H134897   2.565   1.906   0.902 -1.6129  1.4332  1.3118
 4494TIP3    H234898   2.577   1.911   1.053 -1.6376 -3.4703  1.5463
 4495TIP3   OH234899   5.159   1.156  16.250  0.4582  0.6265  0.1916
 4495TIP3    H134900   5.216   1.222  16.290 -1.0144  1.8231  0.3823
 4495TIP3    H234901   5.108   1.121  16.324  1.0363 -0.5260  0.0492
 4496TIP3   OH234902   2.416   3.974  13.428 -0.1731 -0.0883  0.0556
 4496TIP3    H134903   2.353   3.945  13.494 -0.5450 -0.8496 -0.6119
 4496TIP3    H234904   2.445   4.060  13.458 -0.6909 -0.2220  0.9574
 4497TIP3   OH234905   4.984   0.387   4.601  0.0796 -0.1081 -0.1888
 4497TIP3    H134906   5.038   0.339   4.538  1.1345  0.2085  0.4612
 4497TIP3    H234907   4.982   0.476   4.568  1.0364  0.1706  0.4494
 4498TIP3   OH234908   6.435   1.733   2.002 -0.6250 -0.5541  0.5997
 4498TIP3    H134909   6.360   1.708   1.949 -0.3752  1.0395 -0.5248
 4498TIP3    H234910   6.397   1.767   2.083 -1.1076 -0.2248  0.2388
 4499TIP3   OH234911   1.912   0.716  11.342  0.4963 -0.0601 -0.2862
 4499TIP3    H134912   1.931   0.642  11.400 -0.2910 -2.2996 -2.7444
 4499TIP3    H234913   1.994   0.731  11.295  0.1971 -0.4970 -0.9627
 4500TIP3   OH234914   4.607   5.998   2.881  0.2911 -0.1722 -0.3208
 4500TIP3    H134915   4.684   6.037   2.840  1.6575 -1.2270  1.1630
 4500TIP3    H234916   4.611   5.906   2.855 -1.4191  0.0937 -1.6060
 4501TIP3   OH234917   1.949   6.023   1.793 -0.7566  0.5332 -0.2716
 4501TIP3    H134918   1.857   6.050   1.788 -0.4854  1.3840 -0.7422
 4501TIP3    H234919   1.960   5.961   1.722 -1.2822 -0.5207  0.5591
 4502TIP3   OH234920   3.356   6.010  15.150  0.1822  0.2602  0.1799
 4502TIP3    H134921   3.268   6.044  15.132 -0.1997  0.0394  1.6254
 4502TIP3    H234922   3.392   6.068  15.216  1.1953  0.4264 -0.5011
 4503TIP3   OH234923   6.333   2.808   3.538  0.2872 -0.5162 -0.1487
 4503TIP3    H134924   6.354   2.724   3.579 -0.3648 -0.0426  1.1956
 4503TIP3    H234925   6.244   2.796   3.503  0.5926 -0.7100 -0.8704
 4504TIP3   OH234926   0.329   3.535   0.835 -0.7164 -0.5375 -0.0884
 4504TIP3    H134927   0.365   3.526   0.923 -0.3401  0.4646 -0.1379
 4504TIP3    H234928   0.315   3.445   0.806  0.0303 -0.8932  0.6359
 4505TIP3   OH234929   6.450   0.771   5.570 -0.7297  0.1800 -0.1824
 4505TIP3    H134930   6.391   0.714   5.521 -5.0020  1.9499  2.6724
 4505TIP3    H234931   6.456   0.731   5.657  0.3438  1.3379  0.3025
 4506TIP3   OH234932   5.387   4.125   4.461 -0.0767 -0.3182  0.0080
 4506TIP3    H134933   5.295   4.118   4.434 -0.6430 -0.9625  1.9662
 4506TIP3    H234934   5.432   4.057   4.411 -0.8344 -0.5520 -0.3629
 4507TIP3   OH234935   6.161   1.737  14.162  0.3797  0.1469  0.5901
 4507TIP3    H134936   6.202   1.804  14.108 -0.3648  1.4243  1.5546
 4507TIP3    H234937   6.083   1.780  14.198  0.0040 -1.1687  1.4002
 4508TIP3   OH234938   6.761   1.977  12.971 -0.3924 -0.2530  0.0459
 4508TIP3    H134939   6.756   2.061  12.925 -1.4895 -0.8179 -0.8999
 4508TIP3    H234940   6.812   1.995  13.050 -1.0749  1.4209  0.1167
 4509TIP3   OH234941   1.121   1.789   4.779 -0.1847 -0.0481 -0.1612
 4509TIP3    H134942   1.030   1.785   4.811 -0.1398 -0.9911 -0.1357
 4509TIP3    H234943   1.162   1.709   4.813  0.5468  0.1721 -0.5115
 4510TIP3   OH234944   0.876   3.948  15.362 -0.0240  0.4484 -0.3726
 4510TIP3    H134945   0.969   3.966  15.372  0.1243 -0.4205 -0.1537
 4510TIP3    H234946   0.868   3.915  15.273  0.0446 -0.5143 -0.0244
 4511TIP3   OH234947   2.660   4.517   3.741 -0.1082 -0.7129 -0.3477
 4511TIP3    H134948   2.701   4.457   3.678 -0.3946  1.9176 -3.1244
 4511TIP3    H234949   2.573   4.533   3.705  1.0355  3.7775 -1.4349
 4512TIP3   OH234950   5.310   1.412  15.891 -0.0047  0.2292  0.5009
 4512TIP3    H134951   5.311   1.328  15.844  3.7294  0.1175  0.6890
 4512TIP3    H234952   5.312   1.478  15.821  2.1511  0.0902  0.4075
 4513TIP3   OH234953   0.077   2.904  17.225 -0.2784  0.0876 -0.4669
 4513TIP3    H134954   0.158   2.938  17.264  1.0409 -1.8132 -1.4810
 4513TIP3    H234955   0.012   2.910  17.296  1.0157  0.5985  0.6988
 4514TIP3   OH234956   1.660   0.702  11.824  0.3554 -0.2037  0.7623
 4514TIP3    H134957   1.704   0.754  11.757  1.1117 -2.7116 -0.7308
 4514TIP3    H234958   1.716   0.710  11.902 -0.2922  2.3424  1.0161
 4515TIP3   OH234959   5.029   4.967   3.825  0.1364  0.1432 -0.6409
 4515TIP3    H134960   4.936   4.945   3.820  0.1575 -0.5575  1.5739
 4515TIP3    H234961   5.060   4.925   3.906  2.4214  0.1885 -1.4382
 4516TIP3   OH234962   4.176   6.141  11.954 -0.0987 -0.2296  0.0274
 4516TIP3    H134963   4.198   6.106  12.040 -0.9812 -0.7621  0.0433
 4516TIP3    H234964   4.094   6.189  11.969  1.8010  3.0613  0.3151
 4517TIP3   OH234965   4.855   5.643  16.630  0.0853  0.8794  0.5232
 4517TIP3    H134966   4.896   5.646  16.544  0.8470 -0.3472  0.8352
 4517TIP3    H234967   4.833   5.734  16.649  0.5092  1.2373 -0.6838
 4518TIP3   OH234968   1.766   4.892   4.074 -0.1872  0.0504  0.1218
 4518TIP3    H134969   1.854   4.909   4.106  0.0727 -1.4496  0.2327
 4518TIP3    H234970   1.739   4.974   4.032  1.0858  0.6451  0.4525
 4519TIP3   OH234971   2.248   1.434   1.179  0.4589  0.3665  0.3032
 4519TIP3    H134972   2.322   1.475   1.134  0.0340  1.8004  0.8978
 4519TIP3    H234973   2.200   1.506   1.219 -0.9661 -0.5964  0.3918
 4520TIP3   OH234974   4.970   3.990  16.964  0.4329  0.5622 -0.0331
 4520TIP3    H134975   4.916   4.065  16.987 -0.7117  0.1368 -1.2674
 4520TIP3    H234976   4.973   3.937  17.044  0.9889  1.7564  0.7447
 4521TIP3   OH234977   6.031   5.670   3.048 -0.2551 -0.2250 -0.1121
 4521TIP3    H134978   6.068   5.646   2.963  1.8809 -1.9818  1.2561
 4521TIP3    H234979   6.091   5.737   3.082 -1.2142  0.6216 -0.0651
 4522TIP3   OH234980   1.627   4.502   5.757  0.0514 -0.6184  0.2174
 4522TIP3    H134981   1.713   4.464   5.774 -0.0405  0.5563  3.7003
 4522TIP3    H234982   1.570   4.462   5.823 -1.3575  1.0275  0.0296
 4523TIP3   OH234983   3.523   0.520   5.329 -0.2892  0.0899 -0.4669
 4523TIP3    H134984   3.568   0.596   5.366 -0.1400 -0.0536 -0.3480
 4523TIP3    H234985   3.485   0.475   5.405 -1.9319  1.0335 -0.7153
 4524TIP3   OH234986   3.549   6.158  16.904 -0.0409  0.4333 -0.2649
 4524TIP3    H134987   3.631   6.109  16.903 -1.0950 -1.3877 -0.1194
 4524TIP3    H234988   3.502   6.128  16.826 -1.9363 -0.9656  1.3704
 4525TIP3   OH234989   5.867   0.279   3.162 -0.1775 -0.1162 -0.3429
 4525TIP3    H134990   5.808   0.327   3.104 -0.7187 -0.3252  0.0269
 4525TIP3    H234991   5.827   0.286   3.249  0.1942 -0.4943 -0.1338
 4526TIP3   OH234992   0.177   1.933   2.580  0.2431 -0.0224 -0.4693
 4526TIP3    H134993   0.148   1.848   2.550  0.7598 -0.7815  1.1261
 4526TIP3    H234994   0.131   1.947   2.663  1.3905  0.5122  0.0981
 4527TIP3   OH234995   6.634   3.144   0.609  0.0115  0.0056 -0.0544
 4527TIP3    H134996   6.624   3.065   0.557  0.1373  0.0799 -0.1921
 4527TIP3    H234997   6.567   3.137   0.677 -0.1428 -0.0962 -0.2181
 4528TIP3   OH234998   5.017   2.943  14.233  0.0019 -0.0493 -0.4825
 4528TIP3    H134999   5.004   2.998  14.155  1.2374  0.9072 -0.0267
 4528TIP3    H235000   5.079   2.992  14.287 -0.9235 -0.6603  1.1649
 4529TIP3   OH235001   5.547   6.505   5.241  0.3196  0.1212 -0.5538
 4529TIP3    H135002   5.503   6.459   5.169 -1.0988  1.1239 -0.3392
 4529TIP3    H235003   5.476   6.545   5.291  1.3112 -0.4398  1.3397
 4530TIP3   OH235004   2.533   4.631   0.939 -0.4572 -0.2395  0.2916
 4530TIP3    H135005   2.449   4.651   0.979 -0.4448  3.1483 -1.1878
 4530TIP3    H235006   2.512   4.608   0.849  0.1051 -0.2740  0.1666
 4531TIP3   OH235007   1.636   1.578  10.496 -0.0487  0.2762 -0.0671
 4531TIP3    H135008   1.570   1.627  10.447 -0.1156  0.1798 -0.0730
 4531TIP3    H235009   1.601   1.489  10.501  0.2797  0.1225 -0.4373
 4532TIP3   OH235010   4.994   1.816  15.467  0.2609  0.3940  0.1781
 4532TIP3    H135011   4.998   1.744  15.403  0.5055  0.7815 -0.2476
 4532TIP3    H235012   4.941   1.781  15.538  0.7714 -0.3761  0.1898
 4533TIP3   OH235013   2.597   0.188  14.096  0.3910  0.1487  0.2014
 4533TIP3    H135014   2.535   0.260  14.101 -0.0400 -0.2172  0.1536
 4533TIP3    H235015   2.545   0.110  14.116  0.6209 -0.2744 -0.7999
 4534TIP3   OH235016   4.740   0.964  10.979  0.4315  0.0871  0.7598
 4534TIP3    H135017   4.761   0.996  11.067 -0.2074  0.9192  0.6148
 4534TIP3    H235018   4.763   1.037  10.921 -0.8620  0.2154  0.4053
 4535TIP3   OH235019   3.888   6.697  11.579  0.2211 -0.1985  0.0769
 4535TIP3    H135020   3.859   6.668  11.665 -0.4295  1.4364  0.4226
 4535TIP3    H235021   3.974   6.736  11.594 -0.0044  0.3193  0.0349
 4536TIP3   OH235022   3.585   2.123   0.588 -0.0911  0.0661  0.7255
 4536TIP3    H135023   3.525   2.158   0.522 -1.5423  0.8239  2.4143
 4536TIP3    H235024   3.672   2.130   0.548 -1.0701 -0.7785 -1.6393
 4537TIP3   OH235025   1.782   4.957   2.462 -0.1240  0.6085  0.0777
 4537TIP3    H135026   1.769   4.976   2.370 -4.9845  1.0967  0.7337
 4537TIP3    H235027   1.761   4.864   2.471  0.3653  0.5519  0.7021
 4538TIP3   OH235028   6.378   5.329   5.696 -0.5103  0.2184 -0.5798
 4538TIP3    H135029   6.405   5.289   5.613  0.8631  0.4814 -0.2777
 4538TIP3    H235030   6.302   5.278   5.723  1.2256 -2.2482 -0.1946
 4539TIP3   OH235031   5.667   3.790  11.285 -0.5543  0.2237  0.2590
 4539TIP3    H135032   5.759   3.805  11.304 -0.4158 -0.0338 -0.2165
 4539TIP3    H235033   5.666   3.716  11.224 -1.1324 -0.4508  1.0819
 4540TIP3   OH235034   2.064   3.620   3.134 -0.1414  0.9491 -0.4315
 4540TIP3    H135035   2.104   3.632   3.220  1.4867 -0.0228 -1.0483
 4540TIP3    H235036   2.014   3.701   3.120 -2.5298  0.0816  2.5195
 4541TIP3   OH235037   0.291   6.461  10.387  0.8562 -0.2092  0.2653
 4541TIP3    H135038   0.247   6.485  10.305  2.0903  0.5934 -0.1660
 4541TIP3    H235039   0.242   6.509  10.455 -2.4267 -3.6123  0.4752
 4542TIP3   OH235040   5.220   0.424   4.403  0.2028  0.4255  0.2976
 4542TIP3    H135041   5.161   0.498   4.388  0.6873  0.0218 -4.1774
 4542TIP3    H235042   5.288   0.432   4.336  1.7083 -2.6562  1.3138
 4543TIP3   OH235043   0.803   5.780   4.090  0.0079 -0.2317 -0.4238
 4543TIP3    H135044   0.764   5.693   4.096  2.1263 -1.2624 -1.3518
 4543TIP3    H235045   0.877   5.770   4.030 -1.4862  2.8606 -2.9180
 4544TIP3   OH235046   2.511   1.871  12.363  0.4257  0.0145 -0.6784
 4544TIP3    H135047   2.421   1.900  12.346  0.8397  0.5481 -2.0718
 4544TIP3    H235048   2.503   1.809  12.436 -1.1647 -0.5344 -1.2913
 4545TIP3   OH235049   0.943   2.280  10.470 -0.4673 -0.5268 -0.0109
 4545TIP3    H135050   0.990   2.213  10.421 -0.7533 -1.3368  0.8144
 4545TIP3    H235051   1.001   2.301  10.543 -0.2624  0.3185 -0.4090
 4546TIP3   OH235052   1.405   5.375   0.840 -0.4499  0.4777  0.2207
 4546TIP3    H135053   1.340   5.432   0.881 -0.8892 -0.4955  0.9112
 4546TIP3    H235054   1.367   5.353   0.755 -1.2352 -0.4131  0.7836
 4547TIP3   OH235055   5.073   5.028  12.311 -0.7629 -0.1809 -0.3746
 4547TIP3    H135056   5.008   4.982  12.364 -0.2710 -0.0317  0.3621
 4547TIP3    H235057   5.131   4.958  12.279  0.6593  0.0125  1.6758
 4548TIP3   OH235058   1.987   4.061   4.305 -0.0577  0.8898  0.4132
 4548TIP3    H135059   1.913   4.000   4.302 -1.3407  2.3684  1.2710
 4548TIP3    H235060   1.973   4.120   4.232  0.8541  0.5428 -0.0500
 4549TIP3   OH235061   2.288   5.045   5.186 -0.3271  0.0977 -0.1543
 4549TIP3    H135062   2.298   5.115   5.122 -0.0615  2.6606  2.5630
 4549TIP3    H235063   2.234   5.084   5.255 -2.3262 -3.2369  0.2503
 4550TIP3   OH235064   4.728   6.046  13.333 -0.4141 -0.1920  0.4111
 4550TIP3    H135065   4.756   6.040  13.241 -0.4299 -3.7727  0.5531
 4550TIP3    H235066   4.670   6.122  13.336  1.5181  1.4398 -2.0007
 4551TIP3   OH235067   6.550   2.508   5.417  0.4692 -0.3437 -0.4438
 4551TIP3    H135068   6.545   2.444   5.487 -1.4847 -1.5498 -1.6546
 4551TIP3    H235069   6.611   2.470   5.353 -0.5557 -0.9233 -1.0808
 4552TIP3   OH235070   2.508   4.109  15.410 -0.2861  0.2226  0.0441
 4552TIP3    H135071   2.514   4.082  15.319 -0.6991  1.2467 -0.2909
 4552TIP3    H235072   2.587   4.161  15.425 -0.1762 -0.0138  0.2972
 4553TIP3   OH235073   2.234   1.163   5.450  0.4221  0.2199 -0.2427
 4553TIP3    H135074   2.202   1.080   5.416 -2.0318  0.2876  1.7509
 4553TIP3    H235075   2.286   1.139   5.527  2.4302  0.3450 -1.5307
 4554TIP3   OH235076   4.394   0.880  13.479 -0.2176 -0.2779 -0.2825
 4554TIP3    H135077   4.378   0.965  13.520 -2.0118 -0.5735 -0.3384
 4554TIP3    H235078   4.396   0.818  13.551 -1.4253 -0.5224 -0.4434
 4555TIP3   OH235079   0.038   4.397   4.548  0.3573 -0.1238 -0.5688
 4555TIP3    H135080   0.047   4.411   4.454  1.5797  2.0171 -0.1586
 4555TIP3    H235081   0.112   4.341   4.571  0.3222 -0.2629 -0.7859
 4556TIP3   OH235082   5.729   3.020   1.053 -0.6889  0.0165 -0.3190
 4556TIP3    H135083   5.805   2.963   1.063 -0.9185 -0.2283  0.0621
 4556TIP3    H235084   5.703   3.041   1.143 -2.4142 -1.7002 -0.3606
 4557TIP3   OH235085   1.834   3.512  11.073 -0.1341  0.6095  0.2620
 4557TIP3    H135086   1.900   3.578  11.094  1.6748 -0.4613 -1.9269
 4557TIP3    H235087   1.869   3.431  11.110  0.1292 -0.0913 -1.4971
 4558TIP3   OH235088   4.265   5.143  11.738 -0.0135  0.1903 -0.2013
 4558TIP3    H135089   4.209   5.183  11.805 -0.0026  1.1879 -0.7787
 4558TIP3    H235090   4.338   5.204  11.729  0.6561 -0.5923 -0.1970
 4559TIP3   OH235091   4.350   2.189  12.589  0.3164 -0.8739  0.2528
 4559TIP3    H135092   4.325   2.196  12.680  1.7146  2.4053  0.4581
 4559TIP3    H235093   4.287   2.243  12.541  1.1426 -0.4281 -0.3675
 4560TIP3   OH235094   2.028   1.072  11.625 -0.5332 -0.8064 -0.1024
 4560TIP3    H135095   2.119   1.061  11.653  0.1896  1.2547 -1.5714
 4560TIP3    H235096   1.988   1.125  11.694 -0.4312 -1.0833  0.1697
 4561TIP3   OH235097   2.238   4.858  10.611 -0.4619 -0.3847  0.0078
 4561TIP3    H135098   2.213   4.846  10.702 -0.1503  0.1215  0.1595
 4561TIP3    H235099   2.210   4.777  10.568 -1.8725 -0.0535  0.2718
 4562TIP3   OH235100   1.077   4.076   5.069 -0.1275  0.0160 -0.0421
 4562TIP3    H135101   1.051   3.984   5.075  2.0104 -0.6165 -0.1317
 4562TIP3    H235102   1.037   4.117   5.145 -1.3892 -0.9062 -0.1872
 4563TIP3   OH235103   4.143   0.717   5.940  1.0937  0.2297  0.3342
 4563TIP3    H135104   4.089   0.787   5.904  0.3260  0.2623  1.5447
 4563TIP3    H235105   4.227   0.758   5.960  0.5864  0.8415  1.2075
 4564TIP3   OH235106   6.500   6.199  10.700  0.7536  0.5205 -0.2877
 4564TIP3    H135107   6.565   6.144  10.657  0.4127 -0.1804  0.0985
 4564TIP3    H235108   6.451   6.239  10.627  2.6691  2.3404 -0.6032
 4565TIP3   OH235109   2.657   0.386  14.331  0.2152 -0.7115 -0.3365
 4565TIP3    H135110   2.572   0.404  14.290 -0.2940 -0.6463  0.7325
 4565TIP3    H235111   2.721   0.402  14.261 -0.6856 -1.4029 -1.3374
 4566TIP3   OH235112   6.031   2.691   4.510  0.0322 -0.1706  0.0422
 4566TIP3    H135113   5.962   2.707   4.445  1.5082 -1.6164 -1.9314
 4566TIP3    H235114   6.104   2.746   4.482  0.5421 -0.5154  0.6777
 4567TIP3   OH235115   2.607   4.959  12.557 -0.3793  0.0159  0.1872
 4567TIP3    H135116   2.573   5.039  12.597  1.5216  1.1117 -0.3334
 4567TIP3    H235117   2.655   4.990  12.480 -0.7464 -1.7439 -0.7625
 4568TIP3   OH235118   3.769   4.141   2.430  0.9309  0.1003  0.5112
 4568TIP3    H135119   3.725   4.203   2.372  0.3192  0.6825  1.5832
 4568TIP3    H235120   3.861   4.170   2.430  0.8410  0.3879  0.2127
 4569TIP3   OH235121   5.129   1.496  16.697 -0.3055 -0.3072 -0.3966
 4569TIP3    H135122   5.113   1.512  16.790  0.1592  0.2229 -0.4052
 4569TIP3    H235123   5.176   1.412  16.695  2.4166  1.1337  0.0934
 4570TIP3   OH235124   3.613   1.646   3.859  0.5384  0.6506 -0.1988
 4570TIP3    H135125   3.602   1.574   3.797 -2.4383  2.0551 -1.4391
 4570TIP3    H235126   3.694   1.626   3.906  1.3288 -1.9519 -2.5377
 4571TIP3   OH235127   1.808   1.957   1.372 -0.1706 -0.3247 -0.2009
 4571TIP3    H135128   1.802   2.003   1.456 -1.5730 -0.3394 -0.2949
 4571TIP3    H235129   1.852   2.020   1.314 -1.5888  0.6922 -0.1814
 4572TIP3   OH235130   0.372   6.593   6.037 -0.2027  0.0998  0.0124
 4572TIP3    H135131   0.374   6.564   5.946  2.6915  0.7758 -0.1998
 4572TIP3    H235132   0.337   6.682   6.033 -0.1428  0.1015 -0.4406
 4573TIP3   OH235133   2.137   3.261  11.387  0.3709 -0.4636  0.6203
 4573TIP3    H135134   2.105   3.193  11.326  3.0362 -1.0975 -0.1287
 4573TIP3    H235135   2.074   3.258  11.460 -0.7459 -2.3072 -0.3539
 4574TIP3   OH235136   5.452   5.469   5.853 -0.6218  0.2640  0.0142
 4574TIP3    H135137   5.463   5.382   5.813  1.9816  1.4398 -1.9565
 4574TIP3    H235138   5.455   5.452   5.947  2.4267 -1.5445 -0.3312
 4575TIP3   OH235139   5.729   2.678  12.371 -0.2096  0.5003 -0.2335
 4575TIP3    H135140   5.683   2.597  12.349  2.0231 -0.9836  0.4428
 4575TIP3    H235141   5.766   2.707  12.288 -0.3851  0.4341 -0.3362
 4576TIP3   OH235142   2.542   3.913   1.601  0.4507  0.4444 -0.2030
 4576TIP3    H135143   2.607   3.925   1.670  0.8126  0.9428 -0.6275
 4576TIP3    H235144   2.528   4.000   1.565  2.1859 -0.1562 -2.4787
 4577TIP3   OH235145   6.266   3.881  16.738 -0.0104  0.0557 -0.1513
 4577TIP3    H135146   6.325   3.899  16.812 -0.1950 -2.0694  0.5532
 4577TIP3    H235147   6.245   3.788  16.747 -0.5373 -0.0782 -2.5385
 4578TIP3   OH235148   0.192   4.333  14.697 -0.4092  0.5545 -0.0528
 4578TIP3    H135149   0.239   4.406  14.660  1.2644 -0.4955 -0.0356
 4578TIP3    H235150   0.225   4.325  14.787 -0.7156 -0.1008  0.0113
 4579TIP3   OH235151   0.547   2.254   3.003 -0.0933 -0.0681  0.3620
 4579TIP3    H135152   0.561   2.345   2.976  3.5307 -1.2871 -2.3714
 4579TIP3    H235153   0.562   2.254   3.098  1.4039  1.9828  0.1603
 4580TIP3   OH235154   0.733   6.208   5.270  0.7537 -0.1194  0.3726
 4580TIP3    H135155   0.687   6.229   5.188 -1.7729 -1.5014  1.3738
 4580TIP3    H235156   0.821   6.185   5.243 -0.1117 -0.7965 -2.0036
 4581TIP3   OH235157   5.239   3.694  17.015  0.3375 -0.1143  0.2521
 4581TIP3    H135158   5.232   3.601  17.039 -0.4892  0.0231  0.5431
 4581TIP3    H235159   5.199   3.699  16.928 -0.7881  0.1946  0.7813
 4582TIP3   OH235160   3.148   2.892  11.024  0.5049 -0.0621 -0.1810
 4582TIP3    H135161   3.236   2.870  11.055 -0.2776 -0.8282  1.6089
 4582TIP3    H235162   3.137   2.984  11.051  0.4833 -0.1898  0.2513
 4583TIP3   OH235163   2.060   4.541  11.645 -0.4557  0.1135  0.8908
 4583TIP3    H135164   2.111   4.488  11.584  0.8855 -0.2976  2.3607
 4583TIP3    H235165   2.102   4.627  11.644 -1.0718  0.4139  0.4498
 4584TIP3   OH235166   0.184   4.332   6.172 -0.5986  0.8083  0.1094
 4584TIP3    H135167   0.236   4.346   6.093 -0.1262  1.0567  0.4615
 4584TIP3    H235168   0.212   4.402   6.231  0.2834 -0.4070  1.1385
 4585TIP3   OH235169   4.064   2.024   3.356  0.2307  0.0234  0.4693
 4585TIP3    H135170   4.085   2.095   3.416  0.8687  1.3456 -1.2825
 4585TIP3    H235171   3.988   1.980   3.395 -0.1229  1.6137  1.5841
 4586TIP3   OH235172   0.376   4.617   1.317  0.1637 -0.3450  0.6623
 4586TIP3    H135173   0.369   4.598   1.411  2.3834 -0.4954  0.8233
 4586TIP3    H235174   0.340   4.705   1.307 -0.9702 -0.7022  1.4930
 4587TIP3   OH235175   1.043   5.968  13.561 -0.0271 -0.4710  0.3961
 4587TIP3    H135176   1.133   5.998  13.568  0.4173 -1.1780 -1.7594
 4587TIP3    H235177   1.024   5.926  13.645  1.8889 -0.9296  0.6149
 4588TIP3   OH235178   0.288   6.523  16.560 -0.0628 -0.4470  1.0169
 4588TIP3    H135179   0.197   6.510  16.533  0.6466 -1.9845 -0.7786
 4588TIP3    H235180   0.299   6.617  16.566 -0.9714 -0.1153 -1.7272
 4589TIP3   OH235181   1.275   1.456   4.070  0.5328 -0.2130  0.1210
 4589TIP3    H135182   1.229   1.373   4.081  0.7281 -0.2719  0.4884
 4589TIP3    H235183   1.228   1.517   4.127  0.3897 -0.0674 -0.1483
 4590TIP3   OH235184   3.534   2.437   2.853 -0.1548  0.1161  0.2876
 4590TIP3    H135185   3.509   2.390   2.774  0.2620 -1.3566  1.0214
 4590TIP3    H235186   3.550   2.369   2.918  2.4610  1.1620  0.7853
 4591TIP3   OH235187   5.770   0.841  13.890 -0.3185 -0.0234 -0.1997
 4591TIP3    H135188   5.745   0.929  13.918  1.0481 -0.5350  2.7553
 4591TIP3    H235189   5.851   0.854  13.841 -0.8469  0.4634 -0.9827
 4592TIP3   OH235190   1.031   3.147  11.091  0.3230  0.6424  0.3194
 4592TIP3    H135191   0.974   3.145  11.014  0.1272  1.4899  0.4396
 4592TIP3    H235192   1.115   3.114  11.059  0.2717  1.0805 -0.2857
 4593TIP3   OH235193   1.854   4.416  12.306 -0.6412 -0.9970  0.1075
 4593TIP3    H135194   1.851   4.345  12.243  0.6672  0.3286 -1.5081
 4593TIP3    H235195   1.922   4.475  12.272 -1.5205  0.8903  1.5316
 4594TIP3   OH235196   0.218   3.223  11.313 -0.1817 -0.1067  0.4931
 4594TIP3    H135197   0.313   3.239  11.311 -0.3878  1.2614  1.3985
 4594TIP3    H235198   0.180   3.299  11.270 -0.7894 -1.6274 -1.8196
 4595TIP3   OH235199   6.775   3.103  11.145 -0.3203  0.3794 -0.4037
 4595TIP3    H135200   6.742   3.169  11.206  0.3605  1.4441 -1.1553
 4595TIP3    H235201   6.703   3.041  11.136 -1.0532  1.1341  0.1728
 4596TIP3   OH235202   0.021   0.399  12.086 -0.0189  0.1848 -0.3063
 4596TIP3    H135203   0.008   0.438  12.172 -2.5757  0.5447 -0.7945
 4596TIP3    H235204   0.108   0.427  12.059  1.6576 -1.6507  3.0121
 4597TIP3   OH235205   3.320   4.282  14.780 -0.1459  0.4288  0.6892
 4597TIP3    H135206   3.317   4.188  14.763 -0.0827  0.2942  1.4277
 4597TIP3    H235207   3.412   4.306  14.766 -0.4147  0.6353 -0.8248
 4598TIP3   OH235208   5.677   5.924  15.154  0.3297 -0.7380 -0.0028
 4598TIP3    H135209   5.679   5.998  15.093 -2.2839 -0.4782  0.1866
 4598TIP3    H235210   5.749   5.868  15.125  0.5531  0.4826 -1.9249
 4599TIP3   OH235211   3.606   3.843  12.479  0.1354  0.2572 -0.6301
 4599TIP3    H135212   3.650   3.762  12.452 -1.9946 -0.8462 -0.9155
 4599TIP3    H235213   3.619   3.902  12.405  0.3027 -0.3950 -1.1382
 4600TIP3   OH235214   3.205   4.493   2.849 -0.4287 -1.0475 -0.3335
 4600TIP3    H135215   3.192   4.412   2.799 -1.5949 -1.0316 -0.0670
 4600TIP3    H235216   3.132   4.549   2.823 -1.3340 -1.2206  1.7546
 4601TIP3   OH235217   6.043   0.124  14.119 -0.0905 -0.2970 -0.4822
 4601TIP3    H135218   6.061   0.061  14.188  1.4816  0.1546 -0.4648
 4601TIP3    H235219   6.110   0.191  14.130 -0.6098  0.4299 -1.6637
 4602TIP3   OH235220   1.767   0.593  16.425 -0.4201  0.2661  0.0927
 4602TIP3    H135221   1.803   0.610  16.338  1.2465 -0.0448  0.6945
 4602TIP3    H235222   1.673   0.586  16.411 -0.1475 -0.1191 -1.7345
 4603TIP3   OH235223   1.314   0.191   0.635  0.1536 -0.1902 -0.1942
 4603TIP3    H135224   1.318   0.285   0.654  0.2786  0.1036 -1.5869
 4603TIP3    H235225   1.366   0.181   0.555 -0.3233 -1.3662 -0.3655
 4604TIP3   OH235226   6.440   5.184   5.447 -0.6108  0.2106  0.6254
 4604TIP3    H135227   6.470   5.241   5.376  0.4076 -1.2118 -0.0911
 4604TIP3    H235228   6.460   5.095   5.418 -2.7161 -0.5833  1.4755
 4605TIP3   OH235229   1.306   4.328   1.613  0.0274  0.1592 -0.1829
 4605TIP3    H135230   1.297   4.250   1.558  2.1467  1.2116 -2.1252
 4605TIP3    H235231   1.284   4.298   1.701  1.6812 -2.8521 -0.7134
 4606TIP3   OH235232   4.488   0.729  12.066  0.2062 -0.3769 -0.0193
 4606TIP3    H135233   4.561   0.764  12.016 -2.4972 -1.4893 -5.0280
 4606TIP3    H235234   4.497   0.634  12.060 -0.9935 -0.5269  0.3367
 4607TIP3   OH235235   6.654   0.315  16.866 -0.3302 -0.2221  0.9537
 4607TIP3    H135236   6.654   0.241  16.807 -2.0113  0.2463  0.3480
 4607TIP3    H235237   6.745   0.321  16.897 -0.5571 -3.6737  2.5021
 4608TIP3   OH235238   1.320   6.065  13.607  0.7046 -0.3304 -0.2023
 4608TIP3    H135239   1.384   6.079  13.537 -0.7080  0.3792 -1.3869
 4608TIP3    H235240   1.347   5.983  13.648  2.7477  0.2798 -0.2390
 4609TIP3   OH235241   1.801   2.190  11.699 -0.4180 -0.1098  0.3259
 4609TIP3    H135242   1.866   2.126  11.669 -0.3892  0.2751 -0.4349
 4609TIP3    H235243   1.840   2.275  11.681 -1.1695  0.1234 -0.2464
 4610TIP3   OH235244   3.372   1.409  13.248  0.1692  0.3432 -0.3016
 4610TIP3    H135245   3.285   1.378  13.275 -0.1212  1.6477  0.2841
 4610TIP3    H235246   3.431   1.373  13.314  0.1907 -1.1794 -1.1207
 4611TIP3   OH235247   3.967   1.999   2.835 -0.0016 -0.0284 -0.4497
 4611TIP3    H135248   4.056   1.995   2.801  0.6112  2.1902  0.8166
 4611TIP3    H235249   3.963   2.081   2.884 -2.4107 -0.6341  0.4566
 4612TIP3   OH235250   6.638   3.990   6.814  0.2639  0.2042  0.1579
 4612TIP3    H135251   6.569   4.019   6.754  0.6958 -0.5469 -0.7143
 4612TIP3    H235252   6.719   4.005   6.766  0.6269 -0.1816  0.6456
 4613TIP3   OH235253   6.705   1.036   5.233 -0.2088 -0.0407  0.7073
 4613TIP3    H135254   6.656   1.036   5.315  1.7908  0.9589  1.9145
 4613TIP3    H235255   6.680   0.954   5.191 -4.6435  1.4164  0.2231
 4614TIP3   OH235256   3.388   0.983   2.834  0.2759 -0.4533  0.0848
 4614TIP3    H135257   3.355   0.931   2.761  0.4348 -0.6245  0.1356
 4614TIP3    H235258   3.369   0.931   2.912  1.5449 -1.0160  0.0427
 4615TIP3   OH235259   5.637   3.467   3.220  0.6704 -0.2138 -0.1498
 4615TIP3    H135260   5.625   3.486   3.126  1.2261  1.6360  0.1271
 4615TIP3    H235261   5.726   3.497   3.239 -0.1136  1.2383  1.3924
 4616TIP3   OH235262   5.090   1.965  12.249 -0.3802 -0.1157  0.1471
 4616TIP3    H135263   5.127   1.886  12.211  0.3881 -0.2689  1.2043
 4616TIP3    H235264   5.045   2.008  12.175 -2.6091 -2.5538  0.0001
 4617TIP3   OH235265   2.387   1.872   2.873 -0.1576 -0.5416 -0.4783
 4617TIP3    H135266   2.306   1.924   2.874  0.5793  0.6176  0.5816
 4617TIP3    H235267   2.386   1.825   2.956  1.1712  0.9201  0.3704
 4618TIP3   OH235268   1.684   6.521  12.426 -0.3032 -0.2271  0.4331
 4618TIP3    H135269   1.639   6.515  12.342 -0.6325  0.2727  0.5680
 4618TIP3    H235270   1.641   6.455  12.481 -0.0759 -0.5656  0.2046
 4619TIP3   OH235271   4.430   1.794   4.609  0.3784 -0.1236  0.7097
 4619TIP3    H135272   4.437   1.781   4.515  0.2973 -0.9095  0.8049
 4619TIP3    H235273   4.434   1.705   4.646  0.6608  0.1949  1.4584
 4620TIP3   OH235274   5.295   4.009  14.403 -0.0999 -0.0582  0.1066
 4620TIP3    H135275   5.388   4.010  14.381 -0.2679  0.2231 -0.6026
 4620TIP3    H235276   5.273   3.915  14.408  0.1223 -0.1281 -0.1778
 4621TIP3   OH235277   3.794   3.410  12.725 -0.0184  0.0279 -0.4151
 4621TIP3    H135278   3.835   3.396  12.811  1.5680 -3.5291 -1.6666
 4621TIP3    H235279   3.715   3.356  12.728  0.4656 -0.7500 -1.4661
 4622TIP3   OH235280   0.524   6.397   3.823 -0.1664 -0.0570  0.1666
 4622TIP3    H135281   0.518   6.493   3.816 -0.4313 -0.1187 -0.5884
 4622TIP3    H235282   0.512   6.367   3.733  0.5274 -0.7723  0.3187
 4623TIP3   OH235283   1.838   5.351  13.843 -0.1644  0.1067  0.1408
 4623TIP3    H135284   1.775   5.284  13.819  0.8819 -0.7166 -0.3675
 4623TIP3    H235285   1.908   5.304  13.888  1.0845  0.6783 -1.1535
 4624TIP3   OH235286   3.400   2.436  16.225 -0.2236  0.2609 -0.5399
 4624TIP3    H135287   3.348   2.396  16.155  0.8793 -0.7834 -0.7918
 4624TIP3    H235288   3.336   2.483  16.279 -1.3481 -0.5501 -1.1396
 4625TIP3   OH235289   3.984   6.099   4.365  0.4221 -0.1015 -0.1389
 4625TIP3    H135290   4.060   6.143   4.325 -0.3861  1.0007 -0.4752
 4625TIP3    H235291   3.987   6.125   4.457  1.1167 -1.0048  0.1026
 4626TIP3   OH235292   4.100   3.605  12.425 -0.1730  0.6663  0.3580
 4626TIP3    H135293   4.069   3.618  12.514 -1.0065  0.4051  0.1150
 4626TIP3    H235294   4.053   3.528  12.394  1.3449 -0.2405  0.2539
 4627TIP3   OH235295   5.818   6.305  12.424 -1.0536 -0.3174 -0.0026
 4627TIP3    H135296   5.808   6.339  12.513 -1.5008 -0.5696  0.0450
 4627TIP3    H235297   5.908   6.271  12.421 -0.6876  0.6300  0.0288
 4628TIP3   OH235298   0.306   1.808  16.144  0.1496 -0.3574 -0.1465
 4628TIP3    H135299   0.346   1.791  16.058 -0.6450  1.7844 -0.9673
 4628TIP3    H235300   0.379   1.836  16.199 -0.0518  3.2862 -1.5683
 4629TIP3   OH235301   5.201   3.519  13.451  0.4239 -0.3265 -0.0103
 4629TIP3    H135302   5.116   3.491  13.484  0.4821 -1.2288 -0.6100
 4629TIP3    H235303   5.180   3.583  13.382  0.2657  0.3577  0.6701
 4630TIP3   OH235304   6.689   0.446  12.576  0.0740 -0.2167 -0.1792
 4630TIP3    H135305   6.686   0.372  12.636 -0.6162 -1.1825 -1.3872
 4630TIP3    H235306   6.611   0.497  12.598 -0.2396 -0.6289 -0.3258
 4631TIP3   OH235307   5.289   2.430   0.389  0.2417 -0.3530  0.5355
 4631TIP3    H135308   5.245   2.509   0.419  1.8093  1.1036 -0.8837
 4631TIP3    H235309   5.223   2.361   0.396 -0.8322  0.8711  2.7386
 4632TIP3   OH235310   6.481   3.295  14.392  0.4184 -0.2918  0.0065
 4632TIP3    H135311   6.390   3.317  14.374 -0.1198 -0.9785  1.8198
 4632TIP3    H235312   6.520   3.377  14.422  0.7469  0.3090 -1.9781
 4633TIP3   OH235313   1.831   5.694   5.595 -0.2522  0.0963  0.0697
 4633TIP3    H135314   1.819   5.617   5.539  0.1072  1.1557 -1.5109
 4633TIP3    H235315   1.744   5.734   5.601 -0.3231 -0.1098  0.3937
 4634TIP3   OH235316   5.826   2.835   4.667  0.0422 -0.1989 -0.1449
 4634TIP3    H135317   5.918   2.826   4.644  0.4696  0.9942  0.9824
 4634TIP3    H235318   5.807   2.759   4.721  0.2030 -0.7548 -0.8694
 4635TIP3   OH235319   3.457   2.886  15.848  0.7502  0.1390 -0.4619
 4635TIP3    H135320   3.415   2.971  15.852  0.7342  0.1672 -1.1979
 4635TIP3    H235321   3.549   2.905  15.826  0.7099 -0.0394 -0.7920
 4636TIP3   OH235322   4.112   1.436  12.799 -0.7241  0.7440  0.4835
 4636TIP3    H135323   4.177   1.437  12.729  0.1254 -0.7276  1.2224
 4636TIP3    H235324   4.141   1.505  12.859  0.8676 -0.6957  1.4121
 4637TIP3   OH235325   4.785   3.765  13.270  0.0011 -0.1340 -0.2077
 4637TIP3    H135326   4.704   3.807  13.299 -0.6126 -1.5934  0.2202
 4637TIP3    H235327   4.779   3.765  13.174 -1.0341 -1.2349 -0.1570
 4638TIP3   OH235328   2.504   6.544   6.073  0.0851  0.2529  0.6503
 4638TIP3    H135329   2.424   6.496   6.094  0.5711 -0.4744  0.8298
 4638TIP3    H235330   2.572   6.502   6.125  0.3893  1.5761  1.3650
 4639TIP3   OH235331   1.693   5.933   4.814 -0.5619  0.1549 -0.1349
 4639TIP3    H135332   1.608   5.911   4.777 -0.2472  0.8675 -1.2980
 4639TIP3    H235333   1.680   6.018   4.857 -0.8364 -0.5010  1.1120
 4640TIP3   OH235334   1.155   4.961   5.861 -0.0837  0.4010  0.4364
 4640TIP3    H135335   1.168   4.895   5.794 -0.2037 -0.9135  1.6878
 4640TIP3    H235336   1.063   4.988   5.852 -0.1405  0.1136  0.1789
 4641TIP3   OH235337   4.131   0.543  13.873  0.3333 -0.4478 -0.2359
 4641TIP3    H135338   4.060   0.592  13.832  1.3659  0.9677 -0.3628
 4641TIP3    H235339   4.087   0.471  13.918 -1.1948  0.4570 -0.2301
 4642TIP3   OH235340   5.555   3.705  13.686 -0.0996  0.5931 -0.1387
 4642TIP3    H135341   5.591   3.787  13.719  0.6927  0.4748 -0.6965
 4642TIP3    H235342   5.471   3.730  13.647  0.3235  1.2096 -0.6642
 4643TIP3   OH235343   1.394   3.450   5.832 -0.5211 -0.1129  0.0261
 4643TIP3    H135344   1.398   3.410   5.745 -0.5864 -2.0837  0.8941
 4643TIP3    H235345   1.315   3.504   5.831 -1.6035 -1.6771 -0.5100
 4644TIP3   OH235346   6.220   5.846  16.354 -0.1148 -0.5105 -0.5411
 4644TIP3    H135347   6.285   5.830  16.285  0.7337 -0.3579  0.2264
 4644TIP3    H235348   6.228   5.771  16.413 -1.2961 -0.9696 -0.9472
 4645TIP3   OH235349   4.524   5.820   4.834  0.0129  0.6199 -0.1741
 4645TIP3    H135350   4.572   5.858   4.907 -1.6067  1.5537  0.4347
 4645TIP3    H235351   4.530   5.885   4.764  1.8543 -0.4244 -1.0044
 4646TIP3   OH235352   3.351   2.054  17.112 -0.1486 -0.4713 -0.3049
 4646TIP3    H135353   3.444   2.036  17.098 -0.5942 -1.1909 -2.5456
 4646TIP3    H235354   3.349   2.140  17.154  1.5462 -0.6961  0.2516
 4647TIP3   OH235355   4.776   3.416  10.856 -0.4644  0.0148  0.0004
 4647TIP3    H135356   4.839   3.468  10.806 -0.6534  1.9297  1.7191
 4647TIP3    H235357   4.812   3.327  10.854  1.3537  0.7321 -0.5752
 4648TIP3   OH235358   3.233   3.717   3.914  0.1983  0.1230 -0.4506
 4648TIP3    H135359   3.176   3.647   3.945 -0.0352  0.7874  0.6410
 4648TIP3    H235360   3.174   3.780   3.873  0.1769  0.6408  0.3637
 4649TIP3   OH235361   5.578   6.327  13.263 -0.0475  0.1280  0.4650
 4649TIP3    H135362   5.501   6.348  13.315 -0.6194  1.8729 -1.0203
 4649TIP3    H235363   5.545   6.321  13.173  1.2086 -1.0715  0.0739
 4650TIP3   OH235364   3.511   6.748  13.269 -0.2367  0.6882  0.4625
 4650TIP3    H135365   3.418   6.755  13.291 -1.0038  1.7879 -2.8115
 4650TIP3    H235366   3.549   6.830  13.300 -0.9750  1.5371 -0.8351
 4651TIP3   OH235367   5.281   3.885   2.444 -0.2359  0.0402 -0.1600
 4651TIP3    H135368   5.311   3.907   2.356 -0.3542  0.6434 -0.0572
 4651TIP3    H235369   5.186   3.878   2.436 -0.5894  3.2109  0.5290
 4652TIP3   OH235370   0.989   1.895   0.348  0.1197 -0.2722  0.1889
 4652TIP3    H135371   0.946   1.960   0.403 -0.4593 -0.7749  0.3479
 4652TIP3    H235372   1.076   1.885   0.385  0.0491  0.0692  0.4494
 4653TIP3   OH235373   0.261   6.596  15.722 -0.0417  0.0566 -0.5172
 4653TIP3    H135374   0.194   6.560  15.778 -0.0509  0.3787 -0.3184
 4653TIP3    H235375   0.214   6.630  15.646 -0.0719  0.0104 -0.5195
 4654TIP3   OH235376   4.307   0.237  11.556 -0.0688 -0.0239  0.2582
 4654TIP3    H135377   4.379   0.185  11.521  1.0977  0.9204  1.1875
 4654TIP3    H235378   4.269   0.183  11.625  3.1254  1.5575  3.3541
 4655TIP3   OH235379   4.488   4.031  14.270  0.4094  0.3164  0.3668
 4655TIP3    H135380   4.408   4.025  14.321  0.1653 -0.6134 -0.1031
 4655TIP3    H235381   4.459   4.023  14.179  0.9816  0.4752  0.1677
 4656TIP3   OH235382   6.605   6.726   2.522  0.1323 -0.1638 -0.0770
 4656TIP3    H135383   6.623   6.679   2.603 -2.9994 -0.7095  0.3631
 4656TIP3    H235384   6.585   6.657   2.458  0.2589  0.3561 -0.6920
 4657TIP3   OH235385   0.859   2.375   0.970 -0.2281 -0.4995  0.2668
 4657TIP3    H135386   0.810   2.455   0.989  0.5925 -0.1764  1.0443
 4657TIP3    H235387   0.841   2.318   1.046 -0.1070 -0.7224  0.1290
 4658TIP3   OH235388   3.399   1.231  15.158 -0.2933  0.0862 -0.4936
 4658TIP3    H135389   3.364   1.282  15.231  0.0955  2.0753 -1.6725
 4658TIP3    H235390   3.460   1.290  15.114 -1.1399 -0.7799 -2.9231
 4659TIP3   OH235391   4.779   2.438  14.718 -0.3992  0.4270  0.3568
 4659TIP3    H135392   4.736   2.389  14.787 -1.0775  1.6225  0.7930
 4659TIP3    H235393   4.718   2.437  14.645 -0.9778  1.6944  0.8044
 4660TIP3   OH235394   0.251   3.753   4.090 -0.0449 -0.2319 -0.4106
 4660TIP3    H135395   0.283   3.762   4.000 -0.7688 -0.1698 -0.6630
 4660TIP3    H235396   0.278   3.665   4.116 -0.1734 -0.3947 -0.8245
 4661TIP3   OH235397   3.063   1.935  13.589  0.6260 -0.0548 -0.0446
 4661TIP3    H135398   3.073   1.840  13.589 -1.3533 -0.2889  0.2260
 4661TIP3    H235399   3.077   1.961  13.498  1.1486 -0.6108 -0.1233
 4662TIP3   OH235400   3.192   3.967  16.399 -0.1853  0.6681 -0.0785
 4662TIP3    H135401   3.246   3.898  16.436 -0.7795  1.2212  1.8620
 4662TIP3    H235402   3.237   3.991  16.317 -0.3014 -2.3768 -1.0935
 4663TIP3   OH235403   2.072   1.685  12.446 -0.3407 -0.2484  0.3191
 4663TIP3    H135404   2.079   1.727  12.531  0.2672  2.6242 -1.0595
 4663TIP3    H235405   2.160   1.654  12.426  0.1964  1.6829 -0.4689
 4664TIP3   OH235406   6.690   2.170   1.202  0.4090 -0.0160  0.2085
 4664TIP3    H135407   6.618   2.156   1.264  0.4665 -1.3887 -0.0388
 4664TIP3    H235408   6.663   2.249   1.153 -1.1496 -0.7710 -0.1916
 4665TIP3   OH235409   0.676   1.417   3.462  0.1042  0.3164 -0.0191
 4665TIP3    H135410   0.607   1.363   3.500  1.3292 -2.9417 -2.2188
 4665TIP3    H235411   0.631   1.476   3.403 -0.9123 -1.0879 -0.6669
 4666TIP3   OH235412   0.822   6.431  11.252 -0.3754 -0.6124 -0.4994
 4666TIP3    H135413   0.909   6.448  11.216 -0.0925  0.5943  0.7093
 4666TIP3    H235414   0.836   6.424  11.347 -1.1387 -3.5068 -0.5377
 4667TIP3   OH235415   0.539   2.042  14.161 -0.3947  0.8695  0.0241
 4667TIP3    H135416   0.634   2.046  14.153 -0.2041  2.6208  2.7332
 4667TIP3    H235417   0.507   2.118  14.113 -0.4718  0.1779 -1.0440
 4668TIP3   OH235418   2.917   0.111  17.101  0.3142  0.6889 -0.2598
 4668TIP3    H135419   2.872   0.195  17.108 -1.2540  0.0031 -1.6722
 4668TIP3    H235420   2.925   0.095  17.007 -0.5222 -1.2841 -0.0346
 4669TIP3   OH235421   3.418   3.521  11.477  0.3553  0.1619 -0.3825
 4669TIP3    H135422   3.390   3.446  11.423  0.3975  0.3630 -0.6818
 4669TIP3    H235423   3.347   3.531  11.540  0.3519 -0.1373 -0.3359
 4670TIP3   OH235424   6.183   4.768   4.948 -0.5185  0.5893  0.0953
 4670TIP3    H135425   6.214   4.679   4.936 -0.7332  0.5046  0.1811
 4670TIP3    H235426   6.229   4.800   5.025 -1.5068  0.0781  0.9152
 4671TIP3   OH235427   1.480   3.425   3.590 -0.0701  0.1389 -0.5739
 4671TIP3    H135428   1.538   3.486   3.545  0.9760 -1.0466 -0.8527
 4671TIP3    H235429   1.467   3.354   3.528  1.6662 -1.6934  1.0831
 4672TIP3   OH235430   2.485   5.794   3.459 -0.1763 -0.3549 -0.7118
 4672TIP3    H135431   2.480   5.807   3.364  1.7379 -1.6397 -1.0156
 4672TIP3    H235432   2.565   5.840   3.485 -1.6667  1.5742  0.5959
 4673TIP3   OH235433   3.927   5.932  13.851 -0.3048  0.5163 -0.5417
 4673TIP3    H135434   3.857   5.981  13.894 -1.4793 -2.1154  0.6767
 4673TIP3    H235435   3.883   5.882  13.782  0.3744 -1.1040  0.1790
 4674TIP3   OH235436   6.432   0.957  17.001  0.5789 -0.4881 -0.2677
 4674TIP3    H135437   6.517   0.932  16.963 -0.2177 -0.6163 -2.0028
 4674TIP3    H235438   6.443   1.048  17.028  0.9236 -0.1676 -1.4895
 4675TIP3   OH235439   4.145   4.301   5.544  0.0253  0.0065 -0.2733
 4675TIP3    H135440   4.145   4.333   5.634  2.9629 -1.3180  0.2693
 4675TIP3    H235441   4.191   4.368   5.494 -1.0251  0.4309 -0.6919
 4676TIP3   OH235442   5.497   2.995   0.703 -0.1132  0.1127 -0.1240
 4676TIP3    H135443   5.469   3.001   0.794 -0.8617  0.6473 -0.3786
 4676TIP3    H235444   5.437   2.932   0.663 -1.1347  1.4238 -0.7254
 4677TIP3   OH235445   1.170   3.987   3.434 -0.1949 -0.4918  0.2514
 4677TIP3    H135446   1.193   4.003   3.342  1.9450 -0.2506  0.8028
 4677TIP3    H235447   1.249   4.010   3.483 -0.9683 -1.5898  2.0751
 4678TIP3   OH235448   0.393   3.889  12.174  0.1404 -0.5202  0.0285
 4678TIP3    H135449   0.322   3.877  12.237  0.1523  0.0135  0.1507
 4678TIP3    H235450   0.421   3.980  12.188  0.1750 -0.4175 -0.7136
 4679TIP3   OH235451   6.627   3.267   4.568  0.3621 -0.1510  0.3426
 4679TIP3    H135452   6.616   3.175   4.542 -2.8020  0.2256  0.1446
 4679TIP3    H235453   6.589   3.272   4.656 -0.8508  1.2554 -0.2412
 4680TIP3   OH235454   4.084   3.543  13.484 -0.1670 -0.6960 -0.2002
 4680TIP3    H135455   4.084   3.535  13.579  0.7337  2.9252  0.1629
 4680TIP3    H235456   3.994   3.526  13.458 -0.7364 -0.1660  1.4286
 4681TIP3   OH235457   2.483   4.875   2.436  0.1572 -0.5650  0.1705
 4681TIP3    H135458   2.477   4.968   2.412  1.6411 -0.3368  0.6314
 4681TIP3    H235459   2.392   4.846   2.441 -0.3093  0.6836 -0.6832
 4682TIP3   OH235460   1.022   5.533  12.511 -0.2895 -0.2447  0.4632
 4682TIP3    H135461   1.114   5.515  12.532 -0.0876 -0.1194 -0.3167
 4682TIP3    H235462   0.983   5.555  12.595  0.2191 -1.0750  0.9234
 4683TIP3   OH235463   0.021   1.567  13.052  0.3864  0.2141  0.1343
 4683TIP3    H135464  -0.027   1.531  12.978 -0.6835  0.8234  0.5267
 4683TIP3    H235465  -0.046   1.587  13.117  0.8854  3.1130 -0.1664
 4684TIP3   OH235466   1.393   0.340   3.699 -0.4722  0.0933 -0.3180
 4684TIP3    H135467   1.432   0.314   3.615  0.3713 -2.5222  0.8264
 4684TIP3    H235468   1.468   0.369   3.751 -0.7496 -0.0619  0.1634
 4685TIP3   OH235469   6.352   2.277  11.484  0.2136  0.4353 -0.1218
 4685TIP3    H135470   6.273   2.230  11.459  0.9256 -1.0733  0.4362
 4685TIP3    H235471   6.324   2.369  11.489 -1.7523 -0.1958  1.1119
 4686TIP3   OH235472   1.431   1.786  14.607 -0.2808 -0.3547 -0.8739
 4686TIP3    H135473   1.410   1.729  14.682  2.6325 -0.9630 -0.4513
 4686TIP3    H235474   1.439   1.873  14.645 -0.5015 -0.3785 -0.7721
 4687TIP3   OH235475   1.258   5.300  13.803 -0.7741  0.3201  0.0917
 4687TIP3    H135476   1.281   5.383  13.846 -0.3166  0.6030 -0.6903
 4687TIP3    H235477   1.320   5.293  13.731 -0.6343 -0.8505  0.3252
 4688TIP3   OH235478   0.119   3.141   5.804 -0.3333 -0.0082 -0.2378
 4688TIP3    H135479   0.171   3.200   5.750 -0.7922  1.4703  0.8934
 4688TIP3    H235480   0.139   3.167   5.894 -1.5377 -0.7114  0.2408
 4689TIP3   OH235481   6.296   2.713  14.225  0.1544  0.2703  0.4357
 4689TIP3    H135482   6.363   2.740  14.289  1.3681  0.8664 -1.0535
 4689TIP3    H235483   6.291   2.618  14.235 -0.2978  0.4401  2.0191
 4690TIP3   OH235484   3.402   2.287  13.653 -0.6720 -0.1707 -0.4095
 4690TIP3    H135485   3.375   2.210  13.703 -1.6710  1.1176  1.0902
 4690TIP3    H235486   3.492   2.304  13.682 -1.3950  0.8313  1.3324
 4691TIP3   OH235487   6.724   6.234  11.222 -0.2994 -0.0114 -0.3780
 4691TIP3    H135488   6.711   6.314  11.170 -0.8327  0.3854  0.3493
 4691TIP3    H235489   6.712   6.263  11.313  2.1658 -0.3764  0.0957
 4692TIP3   OH235490   0.702   4.191   1.013 -0.3163 -0.1488 -0.5939
 4692TIP3    H135491   0.749   4.111   1.038  0.3623  0.2234 -0.6822
 4692TIP3    H235492   0.725   4.255   1.080 -0.5327  0.0977 -0.7521
 4693TIP3   OH235493   4.714   1.914   4.628 -0.5764 -0.2538 -0.6803
 4693TIP3    H135494   4.774   1.861   4.576 -0.2748 -2.6326  2.0271
 4693TIP3    H235495   4.646   1.853   4.656 -1.6748  1.3838  0.3033
 4694TIP3   OH235496   1.246   3.066   4.576  0.8938  0.0679  0.6236
 4694TIP3    H135497   1.294   3.041   4.497 -0.0518  2.8429 -0.8842
 4694TIP3    H235498   1.310   3.115   4.628  0.6404  1.0132  0.0689
 4695TIP3   OH235499   6.196   3.061   4.590 -0.4790 -0.1172 -0.0041
 4695TIP3    H135500   6.157   3.094   4.509 -2.0625 -1.5917  0.1178
 4695TIP3    H235501   6.200   3.137   4.648  0.4139  0.8913 -1.3608
 4696TIP3   OH235502   2.019   2.400  15.292  0.0163 -1.4120  0.1467
 4696TIP3    H135503   2.051   2.315  15.263  0.9631 -0.7554 -0.7889
 4696TIP3    H235504   2.007   2.450  15.211  0.7555 -0.2283  0.7453
 4697TIP3   OH235505   1.595   2.665   0.769  0.2035 -0.2646 -0.1089
 4697TIP3    H135506   1.651   2.652   0.692 -0.7994  0.5854 -0.9942
 4697TIP3    H235507   1.511   2.695   0.734 -0.3663 -0.1477  1.2976
 4698TIP3   OH235508   3.340   4.934  12.677  0.1439  0.2290 -0.8515
 4698TIP3    H135509   3.360   4.907  12.767 -0.1058 -2.2006 -1.5033
 4698TIP3    H235510   3.389   5.015  12.665 -0.5906  1.1059  1.7946
 4699TIP3   OH235511   5.183   3.121  11.053  0.3724  0.4598  0.0808
 4699TIP3    H135512   5.114   3.139  11.116  0.8948  1.2645  0.4360
 4699TIP3    H235513   5.245   3.066  11.100 -0.3235 -0.7764 -0.4314
 4700TIP3   OH235514   1.644   3.385  15.835  0.0162  0.1572 -0.8767
 4700TIP3    H135515   1.671   3.439  15.908 -1.1004 -0.0919 -0.2610
 4700TIP3    H235516   1.548   3.390  15.836 -0.1176 -2.0124 -0.6426
 4701TIP3   OH235517   2.005   6.687   4.150 -0.3128  0.1061  0.0190
 4701TIP3    H135518   2.050   6.606   4.174  0.3296  0.4840  0.0917
 4701TIP3    H235519   2.018   6.745   4.225 -0.1467  0.5293 -0.3320
 4702TIP3   OH235520   1.052   4.281   4.868  0.2557 -0.0908  0.5733
 4702TIP3    H135521   0.963   4.309   4.888  0.8968  1.7962  0.9046
 4702TIP3    H235522   1.071   4.213   4.932 -1.3994 -1.4529 -0.3456
 4703TIP3   OH235523   6.176   1.790  16.527  0.3765  0.6454  0.5223
 4703TIP3    H135524   6.246   1.803  16.590  0.6134 -2.2521  0.9166
 4703TIP3    H235525   6.219   1.749  16.451 -0.6636 -0.0870  0.3105
 4704TIP3   OH235526   6.684   2.688  11.155 -0.4685  0.3582  0.0525
 4704TIP3    H135527   6.690   2.620  11.223 -3.4347  0.5956  0.6256
 4704TIP3    H235528   6.689   2.639  11.073 -0.1917 -0.2804  0.4405
 4705TIP3   OH235529   2.997   0.526  14.478  0.1044  0.7579 -0.8358
 4705TIP3    H135530   2.940   0.473  14.533  0.3283 -0.0745 -1.4088
 4705TIP3    H235531   3.056   0.569  14.540 -1.0760  1.5620 -0.2474
 4706TIP3   OH235532   0.093   0.641   5.651 -1.0500  0.3194  0.0587
 4706TIP3    H135533   0.156   0.569   5.661  1.0805  2.1245 -0.0113
 4706TIP3    H235534   0.036   0.634   5.727  0.0775 -0.5450  0.8391
 4707TIP3   OH235535   0.749   2.583   3.943  0.8124 -0.2308  0.1496
 4707TIP3    H135536   0.813   2.649   3.972  1.4764 -0.9858  0.4300
 4707TIP3    H235537   0.668   2.608   3.988  0.8338  0.8798 -0.3954
 4708TIP3   OH235538   0.481   0.561   2.802  0.2612  0.1144 -0.5852
 4708TIP3    H135539   0.465   0.515   2.719 -0.6466 -1.1161  0.2467
 4708TIP3    H235540   0.575   0.577   2.802  0.2506  0.2785 -1.9336
 4709TIP3   OH235541   2.733   2.285  16.254  0.2126 -0.2598 -0.3507
 4709TIP3    H135542   2.650   2.250  16.223  0.7279  1.0638 -3.5284
 4709TIP3    H235543   2.799   2.232  16.210  0.9795  2.2083 -2.3268
 4710TIP3   OH235544   2.722   5.147   4.811  0.2200  0.5096  0.2916
 4710TIP3    H135545   2.801   5.093   4.813  0.1191  0.3376 -0.3038
 4710TIP3    H235546   2.652   5.088   4.842 -0.1519 -0.1477 -1.7560
 4711TIP3   OH235547   4.036   2.637  16.742  0.0342  0.7604 -0.3536
 4711TIP3    H135548   4.112   2.678  16.783  0.1777  0.0209  0.1389
 4711TIP3    H235549   4.003   2.702  16.681 -0.5288  2.0994  1.3656
 4712TIP3   OH235550   5.154   0.734  15.156  0.2781 -0.0573  0.3387
 4712TIP3    H135551   5.241   0.698  15.173  0.2583 -0.4479 -0.3670
 4712TIP3    H235552   5.170   0.819  15.114  0.3174 -0.4448 -0.4317
 4713TIP3   OH235553   3.036   4.544   3.188  0.3068  0.0633  0.1847
 4713TIP3    H135554   3.089   4.575   3.262  0.1803  0.7003  0.0123
 4713TIP3    H235555   3.092   4.558   3.111  0.5875 -0.9558  0.1987
 4714TIP3   OH235556   5.920   1.019  11.733 -0.5517 -0.7272  0.0492
 4714TIP3    H135557   5.876   0.946  11.691 -0.5281  0.5249 -2.2051
 4714TIP3    H235558   6.002   1.028  11.685 -0.1631  0.2518  0.8789
 4715TIP3   OH235559   5.621   4.936   6.256 -0.0023 -0.2359 -0.1843
 4715TIP3    H135560   5.570   4.878   6.200  1.9657 -1.9008 -0.2920
 4715TIP3    H235561   5.594   5.024   6.229  0.3056 -1.0148 -3.1837
 4716TIP3   OH235562   6.568   0.702  13.218  0.3445 -0.1054  0.6800
 4716TIP3    H135563   6.659   0.725  13.235  0.5305  0.5431 -1.1285
 4716TIP3    H235564   6.549   0.740  13.133 -1.9294  0.6161  1.4670
 4717TIP3   OH235565   6.765   1.562   1.744 -0.0254  0.0928  0.3332
 4717TIP3    H135566   6.788   1.603   1.660 -0.3039 -0.8182 -0.1840
 4717TIP3    H235567   6.760   1.469   1.725  0.8434 -0.2196  1.5774
 4718TIP3   OH235568   5.043   4.874   4.989 -1.1859  0.3548  0.1273
 4718TIP3    H135569   4.959   4.920   4.987 -1.4420  0.1760  3.2851
 4718TIP3    H235570   5.106   4.941   5.016 -0.4243  0.3007 -1.4591
 4719TIP3   OH235571   6.262   3.079   3.784  0.2572 -0.3992 -0.4752
 4719TIP3    H135572   6.328   3.042   3.725  1.8175 -0.0118  0.9627
 4719TIP3    H235573   6.283   3.172   3.787 -0.8552 -0.1454 -0.6136
 4720TIP3   OH235574   4.661   4.291  11.690  0.9374 -0.4071 -0.1619
 4720TIP3    H135575   4.609   4.364  11.724  0.2475 -0.4952 -1.0116
 4720TIP3    H235576   4.622   4.272  11.605  1.5619 -1.3102 -0.2478
 4721TIP3   OH235577   6.654   1.797   0.112 -0.1307  0.1255  0.2755
 4721TIP3    H135578   6.693   1.711   0.127  2.0199  1.1468  0.8233
 4721TIP3    H235579   6.585   1.803   0.178  2.4434  0.4076  3.1186
 4722TIP3   OH235580   4.929   3.791  15.441  0.5362  0.1085  0.4237
 4722TIP3    H135581   4.903   3.719  15.383  0.9097  0.2423  0.0977
 4722TIP3    H235582   5.004   3.832  15.399  0.1387  0.8857  0.4623
 4723TIP3   OH235583   1.004   4.714   0.314  0.2214  0.4610 -0.3458
 4723TIP3    H135584   0.912   4.705   0.337  0.1783  2.2464  0.2615
 4723TIP3    H235585   1.036   4.624   0.309 -1.5345 -0.1792 -0.5259
 4724TIP3   OH235586   3.663   1.328  15.106  0.7070 -0.0645  0.0659
 4724TIP3    H135587   3.732   1.272  15.142 -0.5442 -0.6661  1.6066
 4724TIP3    H235588   3.709   1.388  15.048  2.2336 -2.0174 -0.8349
 4725TIP3   OH235589   6.646   4.735  12.281 -0.0387  0.6341  0.3944
 4725TIP3    H135590   6.634   4.765  12.191 -1.9045  0.4773  0.5667
 4725TIP3    H235591   6.671   4.813  12.330 -0.6509  1.0623  0.0360
 4726TIP3   OH235592   0.645   4.550  15.294  0.1689 -0.0631  0.2024
 4726TIP3    H135593   0.582   4.502  15.239 -0.0565 -0.7637  1.0657
 4726TIP3    H235594   0.704   4.483  15.326  0.3984  0.3751  0.6893
 4727TIP3   OH235595   4.012   0.700  11.846 -0.3817 -0.1159 -0.2345
 4727TIP3    H135596   3.995   0.769  11.910  0.0318 -0.4085  0.1913
 4727TIP3    H235597   4.029   0.747  11.764 -0.3315  0.2761 -0.0001
 4728TIP3   OH235598   6.456   5.033  13.612  0.0480  0.2963 -0.8362
 4728TIP3    H135599   6.492   4.944  13.613  0.7946  0.5988 -0.4681
 4728TIP3    H235600   6.361   5.020  13.600  0.2973 -0.4907 -2.0630
 4729TIP3   OH235601   1.610   3.192   5.502  0.3612 -0.0928  0.1225
 4729TIP3    H135602   1.664   3.225   5.574 -0.2795  1.9198 -0.2722
 4729TIP3    H235603   1.546   3.135   5.544 -0.1840  1.2849  1.2261
 4730TIP3   OH235604   1.983   4.624   0.690 -0.2538  0.2108 -0.0809
 4730TIP3    H135605   1.982   4.597   0.599 -0.8411 -0.6402  0.1703
 4730TIP3    H235606   2.058   4.579   0.729  0.3145  0.9952 -0.2687
 4731TIP3   OH235607   6.450   4.241  14.272 -0.4963  0.1797 -0.0783
 4731TIP3    H135608   6.356   4.255  14.278 -0.0626  2.4986  2.2382
 4731TIP3    H235609   6.461   4.146  14.274 -2.6969 -0.0696  1.1417
 4732TIP3   OH235610   4.037   0.773   2.366 -0.2411 -0.2112  0.6405
 4732TIP3    H135611   4.108   0.763   2.430  0.4957  0.2526 -0.0922
 4732TIP3    H235612   4.006   0.863   2.378 -0.2267 -0.1830  0.4702
 4733TIP3   OH235613   6.486   0.189   3.818 -0.2849  0.2662 -0.2306
 4733TIP3    H135614   6.571   0.233   3.811 -0.2080  0.2157  0.3848
 4733TIP3    H235615   6.485   0.128   3.744  1.0095 -1.0961  0.8387
 4734TIP3   OH235616   3.416   4.025   0.167  0.0474  0.2311 -0.1090
 4734TIP3    H135617   3.480   4.094   0.148  1.9854 -1.6446 -0.6855
 4734TIP3    H235618   3.336   4.053   0.124  0.8833  1.9720 -0.5774
 4735TIP3   OH235619   4.985   1.316   1.370 -0.4006  0.3097 -0.6591
 4735TIP3    H135620   4.992   1.254   1.443 -1.4157  1.4923  0.4635
 4735TIP3    H235621   4.896   1.305   1.337 -0.6248  1.2117 -0.3881
 4736TIP3   OH235622   4.573   5.648   5.468  0.0355 -0.3504  0.1150
 4736TIP3    H135623   4.573   5.646   5.373  1.2650 -1.0807  0.1283
 4736TIP3    H235624   4.536   5.563   5.494  0.0347 -0.2946  0.2996
 4737TIP3   OH235625   0.149   0.564   2.034  0.1397 -0.2599 -0.1477
 4737TIP3    H135626   0.056   0.584   2.021  0.4817  1.7014  0.4039
 4737TIP3    H235627   0.182   0.545   1.947 -0.6555 -0.4536 -0.4094
 4738TIP3   OH235628   0.762   1.916  12.740 -0.1183 -0.3000 -0.4101
 4738TIP3    H135629   0.843   1.865  12.749  1.2892  1.2097 -3.7067
 4738TIP3    H235630   0.725   1.887  12.656 -1.6238  0.8994 -0.1721
 4739TIP3   OH235631   1.006   3.294  14.615 -0.0788 -0.0522  0.1580
 4739TIP3    H135632   1.101   3.280  14.606 -0.3079 -1.4050 -0.3441
 4739TIP3    H235633   0.984   3.355  14.546  0.2751 -0.4996 -0.3572
 4740TIP3   OH235634   6.354   2.847  11.782 -0.3180  0.1967  0.0524
 4740TIP3    H135635   6.341   2.860  11.688 -1.5118 -1.0867  0.0217
 4740TIP3    H235636   6.268   2.864  11.820  0.2790  1.1791  0.9685
 4741TIP3   OH235637   3.391   5.124   2.831  0.0227  0.0661  0.2097
 4741TIP3    H135638   3.303   5.140   2.864 -0.3442  0.8132 -1.1221
 4741TIP3    H235639   3.447   5.133   2.909 -1.0632 -0.4641  1.0686
 4742TIP3   OH235640   5.484   1.118   3.687  0.5358  0.1527 -0.1452
 4742TIP3    H135641   5.521   1.159   3.608 -1.3064  0.2827 -0.9677
 4742TIP3    H235642   5.439   1.189   3.732  0.2944 -0.2369  0.2349
 4743TIP3   OH235643   3.270   0.346   3.741 -0.4998 -0.1665  0.1430
 4743TIP3    H135644   3.309   0.431   3.756  0.0782 -0.3457 -0.3030
 4743TIP3    H235645   3.236   0.319   3.826  0.8716 -0.2662  0.6795
 4744TIP3   OH235646   4.635   3.579   3.922 -0.0647 -0.4696 -0.0098
 4744TIP3    H135647   4.665   3.547   4.007  0.4884  0.9527  0.3395
 4744TIP3    H235648   4.619   3.672   3.936  1.4143  0.0696 -1.8461
 4745TIP3   OH235649   2.250   6.268  14.900 -0.5435  0.2398  0.1919
 4745TIP3    H135650   2.243   6.289  14.993 -3.3861  1.0802 -0.1510
 4745TIP3    H235651   2.278   6.349  14.859  2.4288 -0.5979  0.4748
 4746TIP3   OH235652   2.778   2.653   5.690  0.6635 -0.0160  0.1889
 4746TIP3    H135653   2.748   2.566   5.662 -0.3944  0.1351  0.8163
 4746TIP3    H235654   2.766   2.708   5.612 -0.7569  0.0463  0.4354
 4747TIP3   OH235655   0.806   4.402  16.841  0.2481  0.1596  0.2552
 4747TIP3    H135656   0.719   4.406  16.803  0.2526 -0.8299  0.1328
 4747TIP3    H235657   0.852   4.477  16.804 -0.9010  1.3555  1.2149
 4748TIP3   OH235658   3.325   4.920   1.286 -0.0264  0.1163  0.0418
 4748TIP3    H135659   3.383   4.854   1.248 -0.1868  0.1856 -0.3258
 4748TIP3    H235660   3.384   4.982   1.329  0.1952  0.4508 -0.7507
 4749TIP3   OH235661   6.748   4.534  13.150 -0.0908 -0.1396  0.1661
 4749TIP3    H135662   6.800   4.513  13.072  1.4525 -1.6583  1.5662
 4749TIP3    H235663   6.769   4.626  13.167 -0.0830  0.0737 -0.9468
 4750TIP3   OH235664   1.325   4.980   2.508 -0.1556  0.3042  0.0749
 4750TIP3    H135665   1.341   4.895   2.467 -1.8081 -0.4751  1.0027
 4750TIP3    H235666   1.249   5.016   2.460 -0.4925  0.5149  0.7629
 4751TIP3   OH235667   3.952   0.104  15.573  0.0592 -0.1643  0.2355
 4751TIP3    H135668   3.975   0.049  15.498 -0.0396  0.6148 -0.3668
 4751TIP3    H235669   3.857   0.098  15.579  0.0773 -0.3186  0.3678
 4752TIP3   OH235670   4.386   0.722   0.469 -0.5497  0.1152 -0.3123
 4752TIP3    H135671   4.358   0.682   0.387 -0.8174  1.1615 -0.7315
 4752TIP3    H235672   4.437   0.799   0.443  2.1176 -1.3323  0.4513
 4753TIP3   OH235673   1.001   6.430   2.164 -0.7094  0.0274 -0.2438
 4753TIP3    H135674   0.916   6.457   2.129 -0.8053 -0.1838 -0.1789
 4753TIP3    H235675   0.989   6.433   2.259 -0.7434 -0.3034 -0.2349
 4754TIP3   OH235676   0.651   0.739  12.424 -0.6049  0.2321 -0.4161
 4754TIP3    H135677   0.651   0.738  12.328 -0.8932  0.0040 -0.4148
 4754TIP3    H235678   0.723   0.799  12.448 -0.3293  0.0440 -0.7696
 4755TIP3   OH235679   2.139   3.304  14.599  0.5812  0.1039  0.0096
 4755TIP3    H135680   2.181   3.225  14.633  3.2817  1.3330 -0.2908
 4755TIP3    H235681   2.180   3.375  14.648  0.0577  1.4766 -1.4953
 4756TIP3   OH235682   4.608   2.489   1.071 -0.4291 -0.2046 -0.3254
 4756TIP3    H135683   4.579   2.574   1.037 -0.4679 -0.3275 -0.6010
 4756TIP3    H235684   4.700   2.484   1.047 -0.5052 -0.3757 -0.5819
 4757TIP3   OH235685   0.163   3.017   2.879  0.0363  0.4233  0.0405
 4757TIP3    H135686   0.207   3.090   2.923 -1.5295  1.1895  0.3957
 4757TIP3    H235687   0.126   3.057   2.800 -1.9743  0.3369  0.9153
 4758TIP3   OH235688   5.572   1.472   3.092 -0.0365 -0.2042  0.0665
 4758TIP3    H135689   5.535   1.475   3.003 -0.1493 -1.5730  0.0651
 4758TIP3    H235690   5.655   1.520   3.085 -1.4556  2.3495 -0.0808
 4759TIP3   OH235691   4.377   0.914   2.442  0.3084 -0.0391 -0.3973
 4759TIP3    H135692   4.307   0.965   2.484 -1.1266 -2.9721  0.9289
 4759TIP3    H235693   4.428   0.880   2.515  1.3493 -0.3548 -1.2730
 4760TIP3   OH235694   1.066   4.792  13.860 -0.2230 -0.3312  0.1811
 4760TIP3    H135695   1.006   4.816  13.931 -0.8362 -1.0023 -0.1001
 4760TIP3    H235696   1.117   4.720  13.896 -0.5346 -0.6710 -0.0647
 4761TIP3   OH235697   5.876   4.180  11.051  0.1709 -0.1061  0.6223
 4761TIP3    H135698   5.819   4.174  11.127 -1.4835 -1.6037 -0.7082
 4761TIP3    H235699   5.830   4.238  10.990  1.6446  1.3622  0.8768
 4762TIP3   OH235700   6.164   6.394   0.127  0.0020  0.1729  0.2149
 4762TIP3    H135701   6.198   6.459   0.187 -0.0341  0.9196 -0.5621
 4762TIP3    H235702   6.109   6.444   0.066 -1.1454 -0.7770  0.4533
 4763TIP3   OH235703   5.396   5.819  16.233 -0.0980  0.5590  0.1986
 4763TIP3    H135704   5.304   5.811  16.261 -0.4486  0.2465 -0.9803
 4763TIP3    H235705   5.391   5.815  16.137  1.2487 -0.4679  0.1567
 4764TIP3   OH235706   2.401   1.779  16.322 -0.6094 -0.4113 -0.3140
 4764TIP3    H135707   2.487   1.800  16.359 -1.2732 -0.6188  1.3473
 4764TIP3    H235708   2.404   1.685  16.307  0.5941  0.0237 -3.2610
 4765TIP3   OH235709   5.734   3.888   5.673 -0.4972  0.5639 -0.0685
 4765TIP3    H135710   5.765   3.827   5.606 -1.0807  0.3089 -0.1089
 4765TIP3    H235711   5.668   3.942   5.627  1.5086  2.6273 -0.6121
 4766TIP3   OH235712   0.904   4.024  15.985  0.1970 -0.7888  0.2667
 4766TIP3    H135713   0.963   4.098  15.968 -0.2353 -0.7403 -1.0224
 4766TIP3    H235714   0.836   4.032  15.919  0.3960 -2.6015 -0.1700
 4767TIP3   OH235715   0.636   2.532   1.550  0.6609 -0.9704  0.3277
 4767TIP3    H135716   0.611   2.475   1.622  0.9745 -2.5994 -0.8302
 4767TIP3    H235717   0.559   2.586   1.534  0.0278 -1.7212  0.8149
 4768TIP3   OH235718   5.279   2.964   5.902  0.4492 -0.0480 -0.6170
 4768TIP3    H135719   5.370   2.938   5.910  0.5659  0.7488  0.7712
 4768TIP3    H235720   5.247   2.969   5.992 -1.0747 -0.6841 -1.1063
 4769TIP3   OH235721   4.179   0.451  13.322  0.2418 -0.1874  0.2269
 4769TIP3    H135722   4.216   0.473  13.408  0.7858 -0.9923  0.2001
 4769TIP3    H235723   4.211   0.521  13.265  0.2159  0.1256  0.5923
 4770TIP3   OH235724   6.607   4.284  13.157 -0.8592  0.0972  0.1607
 4770TIP3    H135725   6.657   4.359  13.125  1.3269 -1.2753  0.2790
 4770TIP3    H235726   6.615   4.289  13.252  0.4197 -1.0100  0.1262
 4771TIP3   OH235727   1.566   2.899   3.223  0.3958 -0.0596 -0.3306
 4771TIP3    H135728   1.633   2.851   3.271  1.2444  1.7134  0.3167
 4771TIP3    H235729   1.606   2.916   3.137 -0.0235 -0.7684 -0.6698
 4772TIP3   OH235730   5.234   2.959  15.163 -0.1946 -0.4090 -0.0719
 4772TIP3    H135731   5.292   2.931  15.092 -0.0609  0.1713 -0.1904
 4772TIP3    H235732   5.181   3.029  15.125  0.1249  0.1465  0.5014
 4773TIP3   OH235733   2.695   1.488   2.671  0.3491 -0.6100  0.4073
 4773TIP3    H135734   2.777   1.523   2.705  1.5336 -3.0905  0.2418
 4773TIP3    H235735   2.662   1.431   2.741  0.6463 -2.4410 -0.8985
 4774TIP3   OH235736   5.659   3.590   1.891  0.0332  0.2660 -0.5546
 4774TIP3    H135737   5.606   3.510   1.887  1.9334 -1.0001 -1.0704
 4774TIP3    H235738   5.663   3.621   1.801  1.7268 -0.7000 -0.8229
 4775TIP3   OH235739   2.636   6.458   3.687  0.8024 -0.4437  0.5126
 4775TIP3    H135740   2.543   6.465   3.663  0.9057 -0.7525  0.0189
 4775TIP3    H235741   2.672   6.545   3.669  0.9822 -0.8014 -0.9179
 4776TIP3   OH235742   6.525   5.952   1.841 -0.0570 -0.0481  0.1663
 4776TIP3    H135743   6.437   5.916   1.829  0.2580 -1.0143  0.7134
 4776TIP3    H235744   6.575   5.917   1.767 -0.8415  2.9076 -1.8632
 4777TIP3   OH235745   0.544   2.289  12.345 -0.0801  0.1645  0.6015
 4777TIP3    H135746   0.562   2.215  12.403  1.6292 -0.4093 -0.6192
 4777TIP3    H235747   0.496   2.251  12.272  1.1947  0.1734 -0.2472
 4778TIP3   OH235748   0.311   3.105  11.022 -0.7496  0.1338  0.2203
 4778TIP3    H135749   0.322   3.049  10.945 -1.3745 -1.3777  1.2000
 4778TIP3    H235750   0.386   3.164  11.021  0.2091 -1.0923 -0.5391
 4779TIP3   OH235751   2.561   4.345   4.664 -0.0184  0.4505 -0.2908
 4779TIP3    H135752   2.524   4.401   4.597 -0.8431  0.8550  0.4940
 4779TIP3    H235753   2.488   4.290   4.693  0.5088 -0.2485 -0.2634
 4780TIP3   OH235754   4.688   0.287   5.207 -0.4740  0.0058 -0.3584
 4780TIP3    H135755   4.596   0.264   5.223 -0.9157 -0.9612 -3.8095
 4780TIP3    H235756   4.733   0.202   5.201  0.2073  0.4013 -0.8811
 4781TIP3   OH235757   6.151   2.399   5.678  0.0526  0.2444  0.6186
 4781TIP3    H135758   6.106   2.315   5.679 -0.3804  0.4781  0.5369
 4781TIP3    H235759   6.194   2.403   5.592  0.3929 -0.0600  0.7712
 4782TIP3   OH235760   0.246   5.882   1.124  0.0646 -0.1543  0.1082
 4782TIP3    H135761   0.284   5.865   1.039  2.6730  0.5961  1.0909
 4782TIP3    H235762   0.256   5.800   1.172 -0.7890 -0.3691 -0.0765
 4783TIP3   OH235763   1.612   2.822  13.455 -0.1517  0.0342  0.8390
 4783TIP3    H135764   1.528   2.777  13.465  0.3484 -0.9218  0.8175
 4783TIP3    H235765   1.596   2.910  13.488 -0.8240 -0.5275  2.0422
 4784TIP3   OH235766   0.840   6.350  12.071  0.0718  0.1784 -0.2402
 4784TIP3    H135767   0.902   6.285  12.106 -0.8006 -1.3273 -1.4753
 4784TIP3    H235768   0.895   6.408  12.018  0.6693 -0.2267 -0.0798
 4785TIP3   OH235769   0.164   4.878   3.640  0.0507  0.2828 -0.3107
 4785TIP3    H135770   0.217   4.897   3.717 -0.7742 -0.4007  0.4245
 4785TIP3    H235771   0.084   4.929   3.653  0.5541  1.4361 -1.4921
 4786TIP3   OH235772   1.230   0.516   0.031  0.0947  0.1386  0.0308
 4786TIP3    H135773   1.193   0.589  -0.019 -0.1292 -0.1010 -0.1557
 4786TIP3    H235774   1.312   0.550   0.065 -1.4075  1.5028  2.4917
 4787TIP3   OH235775   2.413   1.712   3.107  0.0981  0.5118 -0.6314
 4787TIP3    H135776   2.342   1.675   3.159  1.7535 -2.9759 -0.6877
 4787TIP3    H235777   2.476   1.743   3.172 -1.4469  3.7947 -0.5784
 4788TIP3   OH235778   0.889   5.447   4.744  0.7588 -0.0021 -0.6170
 4788TIP3    H135779   0.840   5.373   4.780 -0.1988  0.7147 -0.4221
 4788TIP3    H235780   0.981   5.423   4.757  0.4611 -1.1613 -0.5723
 4789TIP3   OH235781   0.089   2.523  12.437  0.0891 -0.0139  0.1873
 4789TIP3    H135782   0.051   2.456  12.379 -0.2027  0.4648 -0.1757
 4789TIP3    H235783   0.184   2.517  12.421 -0.0534  0.6989 -0.9890
 4790TIP3   OH235784   5.088   2.431   2.344 -0.6026  0.1071  0.3330
 4790TIP3    H135785   5.146   2.363   2.309 -2.1098 -0.8847 -0.2861
 4790TIP3    H235786   5.080   2.494   2.273 -1.8349 -0.7566 -0.3201
 4791TIP3   OH235787   1.167   6.636   6.259 -0.3738 -0.0812 -0.1216
 4791TIP3    H135788   1.106   6.626   6.333  1.8708  0.4895  1.8543
 4791TIP3    H235789   1.205   6.723   6.271  0.6005 -0.2992 -1.5283
 4792TIP3   OH235790   5.909   2.875  17.102 -0.6672 -0.2365 -0.0199
 4792TIP3    H135791   5.850   2.842  17.034  0.8453 -1.2722 -0.8800
 4792TIP3    H235792   5.997   2.857  17.067  0.1906  2.6236  0.5350
 4793TIP3   OH235793   4.108   2.399  12.505 -0.0949 -0.1198 -0.1846
 4793TIP3    H135794   4.158   2.479  12.519 -1.2527  0.4244  0.9851
 4793TIP3    H235795   4.101   2.360  12.592 -1.8141 -0.0917 -0.2875
 4794TIP3   OH235796   5.414   6.339   2.328  0.1068 -0.6200 -0.1291
 4794TIP3    H135797   5.378   6.357   2.415  2.8982  0.8089  0.8113
 4794TIP3    H235798   5.381   6.253   2.305 -1.3340 -0.6678  2.0048
 4795TIP3   OH235799   3.016   3.999  12.764  0.6783  0.0759 -0.6555
 4795TIP3    H135800   2.930   4.016  12.803  0.7852  1.9561 -1.2091
 4795TIP3    H235801   3.007   4.027  12.673  0.9850 -2.5780 -1.5548
 4796TIP3   OH235802   6.036   1.227  13.735 -0.2016 -0.2052 -0.1311
 4796TIP3    H135803   6.041   1.322  13.729 -0.2945 -0.3120 -2.3503
 4796TIP3    H235804   6.118   1.196  13.698 -1.0922 -1.0347 -1.4452
 4797TIP3   OH235805   2.714   0.353   0.505 -0.4544 -0.0361  0.1327
 4797TIP3    H135806   2.639   0.379   0.560 -1.6866 -3.1031 -0.0315
 4797TIP3    H235807   2.770   0.302   0.563 -0.7716 -1.6058 -0.9079
 4798TIP3   OH235808   2.913   6.361   2.510 -0.3725  0.7760 -0.1342
 4798TIP3    H135809   2.911   6.455   2.492 -0.4669  0.9450  0.7077
 4798TIP3    H235810   2.993   6.348   2.562 -1.4145  0.7423  1.5157
 4799TIP3   OH235811   4.819   6.277   2.826 -0.2943  0.0466 -0.1712
 4799TIP3    H135812   4.737   6.310   2.864 -0.3555  0.2686 -0.4882
 4799TIP3    H235813   4.835   6.335   2.752  0.8266  0.7909  0.6448
 4800TIP3   OH235814   5.580   1.503   5.012  0.3474 -0.2257  0.0754
 4800TIP3    H135815   5.521   1.462   5.076  0.3409 -1.5646 -0.7589
 4800TIP3    H235816   5.667   1.472   5.037  0.6497  1.2275  0.9075
 4801TIP3   OH235817   1.081   1.202  17.136 -0.3248  0.1454  0.0303
 4801TIP3    H135818   1.055   1.218  17.227  2.5455 -0.9234  1.0718
 4801TIP3    H235819   1.091   1.289  17.099 -1.2349  0.5968  0.7897
 4802TIP3   OH235820   1.910   2.900  11.457 -0.0255 -0.2632 -0.6353
 4802TIP3    H135821   1.930   2.958  11.384  2.4691 -0.2653 -0.0208
 4802TIP3    H235822   1.996   2.873  11.490 -1.1108 -3.5012 -0.2627
 4803TIP3   OH235823   3.249   6.763   4.541 -0.3477 -0.0115 -0.2102
 4803TIP3    H135824   3.180   6.764   4.474 -0.2845 -2.8847 -0.4089
 4803TIP3    H235825   3.207   6.727   4.618  0.7196 -1.1225 -0.1201
 4804TIP3   OH235826   6.055   0.415  13.145  0.1219 -0.0942  0.8973
 4804TIP3    H135827   6.134   0.395  13.096 -0.4288  0.5859 -0.3110
 4804TIP3    H235828   6.054   0.353  13.217  0.2114 -2.0936 -0.7823
 4805TIP3   OH235829   4.999   5.613  13.964 -0.0980 -0.4359  0.4415
 4805TIP3    H135830   4.903   5.613  13.968 -0.1712  0.1448 -1.1835
 4805TIP3    H235831   5.023   5.704  13.947  0.8969 -0.0572  3.4278
 4806TIP3   OH235832   2.335   1.918   0.350 -0.0172 -0.7719 -0.5772
 4806TIP3    H135833   2.264   1.858   0.371  0.7713 -1.9046 -1.1256
 4806TIP3    H235834   2.408   1.891   0.405 -0.1649  0.7364  0.3854
 4807TIP3   OH235835   4.515   5.523   2.243  0.1713 -0.1244 -0.0485
 4807TIP3    H135836   4.541   5.613   2.225 -1.6052  0.3417 -0.2922
 4807TIP3    H235837   4.520   5.479   2.158 -0.9660  0.2448 -0.3025
 4808TIP3   OH235838   4.400   2.488   0.784  0.0774 -0.1651  0.6617
 4808TIP3    H135839   4.371   2.398   0.801  1.5103 -0.6082  0.8230
 4808TIP3    H235840   4.356   2.540   0.850 -0.0002 -0.8909  1.1864
 4809TIP3   OH235841   5.906   0.234  13.369 -0.7903  0.1277  0.7440
 4809TIP3    H135842   5.925   0.141  13.356  0.7719  0.2098  2.1621
 4809TIP3    H235843   5.849   0.257  13.297 -0.1849 -1.6394 -0.3492
 4810TIP3   OH235844   2.509   6.044  14.435 -0.3411 -0.1685  0.3616
 4810TIP3    H135845   2.573   5.987  14.478 -1.2150 -0.9348  0.6683
 4810TIP3    H235846   2.550   6.068  14.352  0.1672 -0.9831  0.3749
 4811TIP3   OH235847   5.972   3.621  14.315  0.0402  0.1754  0.2104
 4811TIP3    H135848   6.000   3.658  14.232 -0.2121 -0.1512 -0.0233
 4811TIP3    H235849   5.954   3.696  14.371 -1.3172  0.4197 -0.5360
 4812TIP3   OH235850   2.899   4.437   3.452  0.7994 -0.4066  0.1792
 4812TIP3    H135851   2.895   4.440   3.356 -1.9896  0.6098  0.2817
 4812TIP3    H235852   2.846   4.361   3.475 -0.4331  0.6790  0.9829
 4813TIP3   OH235853   3.583   6.647   1.955 -0.0156  0.0901 -0.0382
 4813TIP3    H135854   3.651   6.587   1.984  1.5373  1.4904 -0.6821
 4813TIP3    H235855   3.580   6.637   1.860 -1.2179 -0.4819  0.0506
 4814TIP3   OH235856   5.881   5.664  14.240 -0.1959  0.8562 -0.0602
 4814TIP3    H135857   5.866   5.749  14.198  0.8749  0.7353 -0.7274
 4814TIP3    H235858   5.943   5.683  14.311 -1.1955  0.8881  0.8099
 4815TIP3   OH235859   6.336   4.102  16.611 -0.0772  0.3254  0.4731
 4815TIP3    H135860   6.296   4.022  16.646  0.6386 -0.0878  0.3720
 4815TIP3    H235861   6.392   4.134  16.682 -1.1612  1.3249  0.8957
 4816TIP3   OH235862   4.801   6.672   4.529  0.0776 -0.6495 -0.2355
 4816TIP3    H135863   4.735   6.700   4.592  0.6873  1.3783 -0.4804
 4816TIP3    H235864   4.751   6.640   4.454 -0.6301 -1.3074  0.5100
 4817TIP3   OH235865   1.559   0.663  15.540 -0.2766  0.3712  0.4507
 4817TIP3    H135866   1.502   0.666  15.463  0.1952 -0.3630  0.0640
 4817TIP3    H235867   1.567   0.570  15.560  1.3447  0.4109  0.0764
 4818TIP3   OH235868   3.135   6.020  14.260  0.2367 -0.3143  0.0156
 4818TIP3    H135869   3.087   5.939  14.279 -1.3816  1.1098  2.3508
 4818TIP3    H235870   3.224   5.991  14.243 -0.3603 -2.6340  0.6018
 4819TIP3   OH235871   3.502   1.107  10.651  0.8730  0.3533 -0.2498
 4819TIP3    H135872   3.579   1.053  10.633  0.4092 -0.6315  0.6199
 4819TIP3    H235873   3.441   1.085  10.581  0.6074 -0.4198  0.2176
 4820TIP3   OH235874   3.598   6.438   1.515  0.3459 -0.2698  0.3973
 4820TIP3    H135875   3.521   6.416   1.462  0.4070  1.5799 -0.5062
 4820TIP3    H235876   3.671   6.430   1.454  0.6834 -0.3664  0.8126
 4821TIP3   OH235877   2.820   2.683   1.002 -0.4460  0.6209  0.0393
 4821TIP3    H135878   2.776   2.692   0.918 -0.6370 -0.4848  0.0182
 4821TIP3    H235879   2.842   2.773   1.027  1.0332  0.8563 -1.9344
 4822TIP3   OH235880   1.712   1.935   0.472 -0.1356 -0.1333 -0.0986
 4822TIP3    H135881   1.630   1.931   0.423  0.0075 -0.3846 -0.3186
 4822TIP3    H235882   1.693   1.887   0.553 -0.0842 -0.5523 -0.3317
 4823TIP3   OH235883   0.717   0.858   1.044  0.1087  0.1848 -0.6303
 4823TIP3    H135884   0.728   0.847   1.138 -1.6070 -1.7072 -0.6070
 4823TIP3    H235885   0.781   0.799   1.005 -0.3091 -0.2808 -0.6202
 4824TIP3   OH235886   0.564   6.108  14.375  0.1571 -0.3259  0.5632
 4824TIP3    H135887   0.478   6.150  14.373 -0.2139 -0.9948  1.9693
 4824TIP3    H235888   0.573   6.068  14.289 -1.6523 -1.6346  0.9435
 4825TIP3   OH235889   6.603   1.483  15.577  0.2128  0.0566 -0.6718
 4825TIP3    H135890   6.520   1.515  15.542  0.0598  0.0444 -0.3227
 4825TIP3    H235891   6.664   1.557  15.565  0.3245 -0.1665 -1.5294
 4826TIP3   OH235892   4.945   3.696   1.017  0.1694  0.2306  0.0233
 4826TIP3    H135893   4.936   3.773   1.073 -2.3207 -0.1756  0.2446
 4826TIP3    H235894   4.955   3.731   0.929  1.6311  0.8331  0.4133
 4827TIP3   OH235895   5.743   4.020  11.498 -0.2931  0.2828  0.0518
 4827TIP3    H135896   5.717   4.063  11.416 -0.2705 -0.4046 -0.3206
 4827TIP3    H235897   5.821   3.969  11.474  0.1525  0.6684  0.6779
 4828TIP3   OH235898   2.003   1.521  11.126 -0.0520 -0.3642  0.0610
 4828TIP3    H135899   2.075   1.582  11.106  0.0592 -0.1070  1.2560
 4828TIP3    H235900   2.036   1.436  11.099  0.9139 -0.3259  1.0877
 4829TIP3   OH235901   1.354   1.727  11.252  0.4316 -0.9932  0.0210
 4829TIP3    H135902   1.306   1.698  11.175 -1.8256 -2.6739  1.9539
 4829TIP3    H235903   1.314   1.811  11.276  2.5769  0.6011 -1.8187
 4830TIP3   OH235904   4.655   0.197  13.754  0.2927 -0.5448 -0.3644
 4830TIP3    H135905   4.664   0.136  13.826 -1.0220  1.2761  1.3939
 4830TIP3    H235906   4.580   0.251  13.777  1.3530  1.6809 -1.8808
 4831TIP3   OH235907   5.913   5.745   1.948 -0.0176  0.0905  0.1452
 4831TIP3    H135908   5.922   5.683   2.020  1.3281 -1.1994 -1.0767
 4831TIP3    H235909   6.002   5.754   1.913 -0.6702  0.5196 -1.4555
 4832TIP3   OH235910   3.703   3.843   0.820 -0.0809 -0.3954 -0.5782
 4832TIP3    H135911   3.658   3.894   0.888 -0.6741 -1.5335 -0.1026
 4832TIP3    H235912   3.648   3.855   0.742 -0.1009 -0.1252 -0.5238
 4833TIP3   OH235913   5.135   5.026  16.460  0.1599 -0.3426  0.3479
 4833TIP3    H135914   5.143   5.066  16.547  3.9757 -0.1222  0.0066
 4833TIP3    H235915   5.131   4.932  16.477  0.1054 -0.2616  0.7995
 4834TIP3   OH235916   3.674   1.375   2.232 -0.4900 -0.0337  0.2869
 4834TIP3    H135917   3.709   1.298   2.277 -0.0789 -0.1182 -0.1718
 4834TIP3    H235918   3.732   1.387   2.157 -0.2776  1.0065  0.6109
 4835TIP3   OH235919   1.549   0.510  13.634 -0.0443  0.0094 -0.0045
 4835TIP3    H135920   1.619   0.542  13.578 -0.0844  0.8446  0.4231
 4835TIP3    H235921   1.529   0.423  13.600  1.7999 -0.5978  0.4070
 4836TIP3   OH235922   2.948   1.645  13.764 -0.1156 -0.4028 -0.4441
 4836TIP3    H135923   2.952   1.549  13.761 -0.5858 -0.5260  1.6241
 4836TIP3    H235924   2.969   1.667  13.855 -0.3177  1.4411 -0.8153
 4837TIP3   OH235925   3.236   0.616   2.209 -0.1026 -0.7059 -0.0876
 4837TIP3    H135926   3.228   0.709   2.186  0.2129 -0.7442 -0.3592
 4837TIP3    H235927   3.257   0.616   2.303 -3.7946 -0.6243  0.8254
 4838TIP3   OH235928   5.486   4.918   5.043 -0.0633 -0.5745 -0.2904
 4838TIP3    H135929   5.422   4.961   4.987  0.1856  0.0042 -0.1412
 4838TIP3    H235930   5.522   4.989   5.097  1.7814 -0.6184 -1.4308
 4839TIP3   OH235931   3.144   3.517  11.649  0.1802  0.3990 -0.7481
 4839TIP3    H135932   3.143   3.434  11.696 -0.0210  0.9029  0.1523
 4839TIP3    H235933   3.084   3.504  11.575  0.2153 -0.2759 -0.6559
 4840TIP3   OH235934   2.933   4.435  13.853 -0.6406  0.4782 -0.2312
 4840TIP3    H135935   2.864   4.369  13.851  0.5762 -0.8258  0.4507
 4840TIP3    H235936   2.991   4.412  13.780 -0.5775  1.1876 -0.4076
 4841TIP3   OH235937   1.736   5.365   5.916 -0.1592 -0.3327 -0.2267
 4841TIP3    H135938   1.793   5.427   5.869 -2.0736  0.8273 -1.0742
 4841TIP3    H235939   1.753   5.281   5.874  2.4265 -0.4246  0.8875
 4842TIP3   OH235940   4.279   4.518   3.776  0.1705  0.4753 -0.1130
 4842TIP3    H135941   4.287   4.587   3.842  0.6472  0.2644  0.0531
 4842TIP3    H235942   4.261   4.439   3.827  1.6163  0.1080 -0.1420
 4843TIP3   OH235943   4.525   0.488  15.558 -0.3940  0.0375 -0.2699
 4843TIP3    H135944   4.459   0.555  15.538 -0.7121  0.0918  0.9434
 4843TIP3    H235945   4.485   0.406  15.530 -1.0148  0.0634  0.5268
 4844TIP3   OH235946   6.768   2.679   2.053 -0.4376  0.3255 -0.4425
 4844TIP3    H135947   6.710   2.752   2.034  0.5171  1.0945 -0.4418
 4844TIP3    H235948   6.715   2.601   2.036 -1.6155  1.0058  0.0132
 4845TIP3   OH235949   0.861   4.472   4.978  0.5527 -0.7079 -0.5407
 4845TIP3    H135950   0.778   4.515   4.997  0.1870 -1.6364  0.0066
 4845TIP3    H235951   0.872   4.480   4.883  0.7552  1.0369 -0.3849
 4846TIP3   OH235952   6.234   4.546   6.420 -0.1357 -0.5228 -0.7038
 4846TIP3    H135953   6.264   4.489   6.350 -1.7787  1.0883 -2.7873
 4846TIP3    H235954   6.308   4.603   6.439 -0.0539 -0.2102 -1.9380
 4847TIP3   OH235955   4.688   2.747  12.075  0.6572 -0.0736 -0.2303
 4847TIP3    H135956   4.656   2.807  12.142  0.8875 -1.7037  1.3548
 4847TIP3    H235957   4.608   2.715  12.032  0.4130 -0.2813  0.3665
 4848TIP3   OH235958   3.307   3.024   0.612 -0.1834  0.4135 -0.5861
 4848TIP3    H135959   3.402   3.018   0.627  0.0449  0.4421 -1.9268
 4848TIP3    H235960   3.286   2.944   0.564 -0.9294  0.1816  0.1223
 4849TIP3   OH235961   5.185   4.089  12.408  0.2039  0.2004 -0.1233
 4849TIP3    H135962   5.188   4.083  12.503  1.8645 -1.1058 -0.2398
 4849TIP3    H235963   5.276   4.104  12.382 -0.1314 -0.1877 -1.5570
 4850TIP3   OH235964   4.695   4.215  12.123 -0.0382  0.0494 -0.0136
 4850TIP3    H135965   4.789   4.210  12.136 -0.0202  2.4868  1.0118
 4850TIP3    H235966   4.659   4.234  12.210 -1.4002  0.1287 -0.5706
 4851TIP3   OH235967   5.441   0.603   3.787 -0.4041 -0.6834  0.0021
 4851TIP3    H135968   5.346   0.602   3.776 -0.2574 -2.7062 -1.3069
 4851TIP3    H235969   5.471   0.678   3.735 -1.2998  0.1161  0.6333
 4852TIP3   OH235970   4.142   3.068   5.047  0.0188  0.5934 -0.1008
 4852TIP3    H135971   4.210   3.054   5.112 -1.8586 -0.2682  1.7165
 4852TIP3    H235972   4.095   3.146   5.076 -0.9112  0.1356 -0.3587
 4853TIP3   OH235973   1.705   0.793  13.485  0.8391  0.0800  0.3238
 4853TIP3    H135974   1.724   0.699  13.488 -0.4312 -0.1731  0.7771
 4853TIP3    H235975   1.688   0.810  13.392  3.8468  0.4583 -0.2169
 4854TIP3   OH235976   1.948   4.330   1.616  0.7973 -0.1949  0.3589
 4854TIP3    H135977   1.917   4.309   1.528 -0.1742 -3.5219  1.4344
 4854TIP3    H235978   2.030   4.378   1.601  1.2856 -1.7649 -2.3381
 4855TIP3   OH235979   1.499   2.005  11.322 -0.1443  0.3846  0.3817
 4855TIP3    H135980   1.563   2.013  11.393  0.0537  0.6649  0.1727
 4855TIP3    H235981   1.417   1.982  11.366  0.1380 -0.1412  0.6338
 4856TIP3   OH235982   2.765   5.196  12.912  0.8714  0.4117 -0.4814
 4856TIP3    H135983   2.727   5.278  12.942  2.3592  1.2562 -0.8525
 4856TIP3    H235984   2.690   5.145  12.879 -0.0811  1.5247 -0.0606
 4857TIP3   OH235985   3.484   1.716   4.145 -0.3417 -0.4561  0.1453
 4857TIP3    H135986   3.430   1.795   4.148  0.3688  0.0057  1.0210
 4857TIP3    H235987   3.437   1.652   4.198 -1.1268 -0.7649 -0.9022
 4858TIP3   OH235988   1.677   2.581   4.573  0.2310  0.2655  0.0798
 4858TIP3    H135989   1.753   2.556   4.521  0.8544  0.6906  0.7944
 4858TIP3    H235990   1.710   2.641   4.639 -0.3079 -1.3627  1.8876
 4859TIP3   OH235991   4.438   1.631   1.548  0.2383  0.0375  0.4681
 4859TIP3    H135992   4.358   1.673   1.578 -0.5314 -0.7985 -0.3634
 4859TIP3    H235993   4.411   1.580   1.471  1.6341  0.0354 -0.0398
 4860TIP3   OH235994   2.728   5.148  11.610 -0.1093  0.3565 -0.0545
 4860TIP3    H135995   2.698   5.075  11.665 -0.0991  0.4440  0.0674
 4860TIP3    H235996   2.770   5.106  11.534 -0.7648  0.2318 -0.3494
 4861TIP3   OH235997   2.636   6.718  15.956 -0.3528 -0.7411 -0.0725
 4861TIP3    H135998   2.566   6.696  15.896  0.3235  0.3404 -1.2789
 4861TIP3    H235999   2.672   6.633  15.983 -2.3563 -1.3198  0.8857
 4862TIP3   OH236000   6.318   2.902   2.598 -0.2823 -0.0966  0.0775
 4862TIP3    H136001   6.347   2.946   2.678  0.8687 -1.5619  0.4912
 4862TIP3    H236002   6.223   2.890   2.610 -0.1451 -0.1548  1.1487
 4863TIP3   OH236003   5.062   3.557   2.895  0.3510 -0.6558 -0.0810
 4863TIP3    H136004   5.089   3.504   2.819 -1.3569 -0.3929 -0.9065
 4863TIP3    H236005   5.096   3.644   2.876 -1.6974 -0.1252 -1.5222
 4864TIP3   OH236006   4.915   5.315  10.599 -0.1744 -0.0356 -0.3285
 4864TIP3    H136007   4.830   5.357  10.612 -0.2865 -0.7464  1.4235
 4864TIP3    H236008   4.976   5.368  10.651  0.3651  0.1178 -1.0953
 4865TIP3   OH236009   2.668   5.943  13.562  0.0191 -0.1013  0.0996
 4865TIP3    H136010   2.627   6.021  13.600  1.3781 -0.4544  2.3811
 4865TIP3    H236011   2.755   5.973  13.534 -0.7661  0.0259 -2.3546
 4866TIP3   OH236012   2.154   4.088   1.198 -0.3620  0.1934  0.2437
 4866TIP3    H136013   2.236   4.135   1.201 -0.9820  1.2500  1.0476
 4866TIP3    H236014   2.174   4.007   1.151  1.5100 -0.2981  1.7889
 4867TIP3   OH236015   2.404   5.034   1.695  0.8520 -0.6161 -0.2417
 4867TIP3    H136016   2.411   5.117   1.648 -1.0805 -0.7331 -0.7530
 4867TIP3    H236017   2.440   5.052   1.782 -1.1659  1.2200  0.2410
 4868TIP3   OH236018   3.353   6.470   4.252  0.1263 -0.1449 -0.0067
 4868TIP3    H136019   3.297   6.523   4.195 -0.8505 -0.3328  0.7609
 4868TIP3    H236020   3.309   6.472   4.337  1.4218 -0.0962  0.6706
 4869TIP3   OH236021   4.223   1.931   3.996  0.3739 -0.3329 -0.4469
 4869TIP3    H136022   4.261   1.886   4.071 -0.0247  0.0791  0.0040
 4869TIP3    H236023   4.291   1.927   3.928  1.6945  1.4054  0.7218
 4870TIP3   OH236024   4.848   3.654   0.501 -0.0567 -0.4666 -0.2294
 4870TIP3    H136025   4.782   3.592   0.531  0.1649 -0.7830 -0.3866
 4870TIP3    H236026   4.931   3.616   0.530  0.1501 -0.6908 -1.0840
 4871TIP3   OH236027   2.630   1.869  16.406  0.2124 -0.5799  0.0460
 4871TIP3    H136028   2.713   1.837  16.372  1.4406  0.9420  1.5283
 4871TIP3    H236029   2.650   1.956  16.440 -1.5190 -1.0383  2.3589
 4872TIP3   OH236030   5.658   5.533  15.949 -0.1342 -0.4355  0.0048
 4872TIP3    H136031   5.574   5.524  15.903 -0.7429 -0.1023  1.0460
 4872TIP3    H236032   5.722   5.498  15.887 -0.8183  0.8529 -1.4858
 4873TIP3   OH236033   6.505   1.848  16.855  0.8489 -0.4211 -0.0173
 4873TIP3    H136034   6.601   1.843  16.849  0.9342 -0.3106  1.0696
 4873TIP3    H236035   6.487   1.839  16.949 -0.1910 -0.1694 -0.1883
 4874TIP3   OH236036   3.840   0.567   4.610 -0.3953 -0.2953 -0.2456
 4874TIP3    H136037   3.832   0.537   4.519 -1.4706 -0.4853 -0.0975
 4874TIP3    H236038   3.879   0.493   4.656 -1.6684 -0.9446 -0.1745
 4875TIP3   OH236039   1.372   3.476   0.146 -0.5940 -0.3479  0.3341
 4875TIP3    H136040   1.453   3.425   0.156  0.6150  1.2295 -0.9910
 4875TIP3    H236041   1.322   3.429   0.080  0.4028  0.0015 -0.6996
 4876TIP3   OH236042   4.065   5.367   3.988  0.6563 -0.0397  1.2191
 4876TIP3    H136043   3.977   5.340   3.962  1.6032 -0.8536 -1.2823
 4876TIP3    H236044   4.078   5.328   4.074 -1.5874  0.5088  1.8415
 4877TIP3   OH236045   2.430   0.939  13.138 -0.3100 -0.0987  0.1180
 4877TIP3    H136046   2.459   0.977  13.221  0.1622 -1.0196  0.3861
 4877TIP3    H236047   2.404   0.850  13.161  2.0521 -1.1420 -1.1372
 4878TIP3   OH236048   0.497   0.851   2.401 -0.4313  0.2254  0.6621
 4878TIP3    H136049   0.405   0.865   2.378 -0.4792 -0.8476  0.1797
 4878TIP3    H236050   0.543   0.923   2.357 -0.7676 -0.6305 -1.1196
 4879TIP3   OH236051   0.602   6.061   4.728  0.0556  0.1235 -0.1378
 4879TIP3    H136052   0.684   6.019   4.701 -1.7022 -3.1302 -0.7204
 4879TIP3    H236053   0.614   6.153   4.707  2.9761 -0.5486 -1.6640
 4880TIP3   OH236054   6.423   0.104   3.257  0.2082  0.0871  0.3250
 4880TIP3    H136055   6.505   0.133   3.297  1.4009 -1.3604 -1.0304
 4880TIP3    H236056   6.360   0.172   3.280  1.4001  0.4327  2.7345
 4881TIP3   OH236057   2.993   2.138   0.317  0.5474 -0.0475 -0.5413
 4881TIP3    H136058   2.978   2.045   0.335 -2.6199  0.5975  0.4472
 4881TIP3    H236059   2.954   2.152   0.230 -0.5305  0.7091  0.0588
 4882TIP3   OH236060   5.688   4.749   2.739 -0.1488 -0.7582 -0.1075
 4882TIP3    H136061   5.691   4.743   2.834  1.5848 -0.3876 -0.1208
 4882TIP3    H236062   5.666   4.841   2.721 -1.2287 -1.0004 -0.0747
 4883TIP3   OH236063   5.581   4.316  12.539 -0.0130  0.4537  0.0109
 4883TIP3    H136064   5.510   4.375  12.565  0.5367  1.0113  0.2674
 4883TIP3    H236065   5.565   4.236  12.590 -0.8041  0.3364 -0.3979
 4884TIP3   OH236066   4.788   5.954   0.556  0.2678 -0.1587  0.1042
 4884TIP3    H136067   4.848   6.027   0.575  0.0148  0.4586 -1.4099
 4884TIP3    H236068   4.764   5.920   0.642  1.4133  0.7127  0.7870
 4885TIP3   OH236069   4.414   3.107  14.862 -0.4852 -0.0375 -0.4165
 4885TIP3    H136070   4.342   3.067  14.911 -0.5923  0.6913  0.0264
 4885TIP3    H236071   4.416   3.197  14.892  1.8484 -0.5383  0.9914
 4886TIP3   OH236072   6.174   6.426  14.727  0.2310 -0.0022  0.0940
 4886TIP3    H136073   6.268   6.443  14.740 -0.2447  3.0322  0.0022
 4886TIP3    H236074   6.143   6.398  14.813  1.1378 -0.5278  0.2569
 4887TIP3   OH236075   3.872   3.995  10.828  0.4545  0.1964  0.1585
 4887TIP3    H136076   3.911   4.011  10.914 -0.5238  0.2330  0.6066
 4887TIP3    H236077   3.794   3.941  10.847  0.4636 -0.1422 -0.7432
 4888TIP3   OH236078   5.661   4.212  11.256 -0.3858 -0.1473 -0.2461
 4888TIP3    H136079   5.578   4.218  11.304 -0.1737  0.6199  0.0292
 4888TIP3    H236080   5.639   4.237  11.166 -1.2689 -3.8298 -1.1577
 4889TIP3   OH236081   6.038   1.365   3.776  0.1391 -0.3216  0.3737
 4889TIP3    H136082   5.950   1.397   3.760 -0.0171 -0.4434  0.9606
 4889TIP3    H236083   6.083   1.438   3.819  0.4372 -0.1275 -0.2698
 4890TIP3   OH236084   0.339   3.090   6.444 -0.1281  0.2297 -0.3365
 4890TIP3    H136085   0.330   3.007   6.398 -1.4504 -0.0089  0.3282
 4890TIP3    H236086   0.409   3.076   6.506 -0.0728 -0.2639 -0.5090
 4891TIP3   OH236087   1.374   3.798   3.782 -0.0016  0.4294 -0.7090
 4891TIP3    H136088   1.319   3.867   3.817 -0.8359 -1.1541  1.2197
 4891TIP3    H236089   1.321   3.757   3.714 -0.6470 -0.1493  0.1330
 4892TIP3   OH236090   1.785   4.131  17.098  0.2919 -0.2536 -0.5604
 4892TIP3    H136091   1.788   4.067  17.169  0.2275  0.7544  0.3716
 4892TIP3    H236092   1.836   4.092  17.027  2.1498 -0.3447  0.8123
 4893TIP3   OH236093   4.105   3.391   4.809  0.0327 -0.2878 -0.0419
 4893TIP3    H136094   4.182   3.394   4.752 -1.6490  0.3931 -2.3236
 4893TIP3    H236095   4.063   3.307   4.788 -0.4094 -0.1975  0.4623
 4894TIP3   OH236096   4.585   4.600   1.649 -0.5608  0.0999 -0.1691
 4894TIP3    H136097   4.650   4.529   1.649  0.7276  1.2606 -0.4524
 4894TIP3    H236098   4.515   4.568   1.592  0.2350 -0.7427 -0.6899
 4895TIP3   OH236099   6.026   6.358   5.739 -0.0686 -0.6286 -0.3689
 4895TIP3    H136100   6.104   6.373   5.794  0.0133 -0.9183 -0.4043
 4895TIP3    H236101   6.054   6.290   5.677  0.2882  0.7128 -1.6903
 4896TIP3   OH236102   0.675   1.354  11.252 -0.0400  0.0205 -0.7375
 4896TIP3    H136103   0.625   1.273  11.261  0.5682 -0.3480 -0.6086
 4896TIP3    H236104   0.688   1.364  11.158  0.8292 -0.6242 -0.6926
 4897TIP3   OH236105   5.342   6.274  12.222 -0.0784 -0.6944 -0.0813
 4897TIP3    H136106   5.359   6.349  12.165 -0.5948 -0.0365  0.6243
 4897TIP3    H236107   5.267   6.230  12.183 -0.0403 -0.5988 -0.2603
 4898TIP3   OH236108   5.513   6.405  15.595 -0.1738 -0.3643 -0.2748
 4898TIP3    H136109   5.529   6.322  15.640  0.4829  0.0418  0.2623
 4898TIP3    H236110   5.417   6.413  15.593 -0.2211 -0.5868  0.6932
 4899TIP3   OH236111   4.819   3.573  10.578  0.5300 -0.3976 -0.4060
 4899TIP3    H136112   4.826   3.625  10.498  2.4391 -0.8006 -0.5294
 4899TIP3    H236113   4.884   3.504  10.567 -0.5888 -1.6377  0.6298
 4900TIP3   OH236114   3.213   1.860   2.691 -0.1313 -0.0876  0.9187
 4900TIP3    H136115   3.162   1.844   2.771  0.9065 -0.1001  1.5799
 4900TIP3    H236116   3.304   1.866   2.721  0.3045 -0.4450 -0.3039
 4901TIP3   OH236117   2.602   1.765  16.004 -0.4843  0.1168 -0.1672
 4901TIP3    H136118   2.511   1.788  16.023 -0.9085 -1.3282 -0.4390
 4901TIP3    H236119   2.596   1.699  15.935  0.8474  1.7654 -1.9315
 4902TIP3   OH236120   2.298   3.118  14.716  0.1622 -0.2149  0.1327
 4902TIP3    H136121   2.369   3.139  14.776  0.7740 -0.7100 -0.3998
 4902TIP3    H236122   2.239   3.062  14.767  0.4232 -0.2287  0.4219
 4903TIP3   OH236123   1.548   1.226   5.663 -0.4048 -0.1669 -0.1391
 4903TIP3    H136124   1.605   1.221   5.587 -1.9967  0.0240 -1.3901
 4903TIP3    H236125   1.521   1.136   5.678  0.7968 -0.3544  0.9042
 4904TIP3   OH236126   2.687   4.790   3.984  0.0474  0.1279 -0.5005
 4904TIP3    H136127   2.774   4.824   4.006 -0.7904  3.0748 -1.5406
 4904TIP3    H236128   2.694   4.762   3.893  0.1591 -0.5697 -0.2821
 4905TIP3   OH236129   5.994   1.670  15.553 -0.2137 -0.1512  0.4185
 4905TIP3    H136130   5.954   1.757  15.556  0.3680  0.1078  0.6730
 4905TIP3    H236131   6.015   1.657  15.460  0.7411  0.4621  0.5378
 4906TIP3   OH236132   6.590   2.905   0.454  0.1207 -0.2256  0.0431
 4906TIP3    H136133   6.592   2.829   0.512  2.1136  1.6117  2.4622
 4906TIP3    H236134   6.498   2.912   0.428 -0.0835 -3.4894 -0.3290
 4907TIP3   OH236135   4.282   0.607  13.566  0.5638  0.1939  0.6154
 4907TIP3    H136136   4.340   0.630  13.639 -0.3868  0.1301  1.4038
 4907TIP3    H236137   4.204   0.660  13.580  0.4412  0.3069 -0.4687
 4908TIP3   OH236138   4.520   0.732   1.146  0.2456  0.4010 -0.1101
 4908TIP3    H136139   4.580   0.778   1.204 -0.2318  1.0949 -0.1718
 4908TIP3    H236140   4.576   0.703   1.073  0.9566 -0.9904  0.9726
 4909TIP3   OH236141   0.353   6.697   3.980  0.0077  0.2068 -0.3344
 4909TIP3    H136142   0.429   6.638   3.973 -0.4038 -0.2705 -0.7787
 4909TIP3    H236143   0.302   6.681   3.901 -0.3415  0.8411 -0.2434
 4910TIP3   OH236144   6.104   0.212  15.151 -0.6908  0.6560  0.5905
 4910TIP3    H136145   6.085   0.305  15.167 -1.0447  0.5892  0.5676
 4910TIP3    H236146   6.021   0.176  15.119 -0.7550  0.1627  1.3159
 4911TIP3   OH236147   3.798   2.749   4.611 -0.2669  0.4328  0.5058
 4911TIP3    H136148   3.751   2.832   4.624 -0.5627  0.0404  2.0131
 4911TIP3    H236149   3.890   2.775   4.605 -0.6215  1.1949 -2.4004
 4912TIP3   OH236150   5.319   2.143  14.644 -0.3233  0.0021 -0.1956
 4912TIP3    H136151   5.312   2.236  14.626 -0.2285 -0.1848 -1.1997
 4912TIP3    H236152   5.394   2.135  14.703 -0.0532  0.5115 -0.4734
 4913TIP3   OH236153   4.432   0.654   1.585  0.0562 -0.1178 -0.0491
 4913TIP3    H136154   4.498   0.689   1.645 -0.3372 -1.0893  0.9598
 4913TIP3    H236155   4.470   0.573   1.551 -1.0702 -1.3011  1.4332
 4914TIP3   OH236156   6.009   6.585   0.485 -0.5758  0.4103  0.1723
 4914TIP3    H136157   5.919   6.553   0.491  0.0189 -1.9060 -2.4990
 4914TIP3    H236158   6.063   6.508   0.502  0.9028  0.7275 -2.8397
 4915TIP3   OH236159   2.509   2.629   0.743 -0.4810  0.2278 -0.4587
 4915TIP3    H136160   2.483   2.716   0.773  0.1820  0.1985  0.2050
 4915TIP3    H236161   2.582   2.646   0.682 -0.2164  0.1247 -0.1717
 4916TIP3   OH236162   2.298   1.212  10.884 -0.2591 -0.5089 -0.1917
 4916TIP3    H136163   2.392   1.198  10.870  0.1480  0.0096  1.8335
 4916TIP3    H236164   2.267   1.251  10.802  1.1183 -1.4719 -1.1886
 4917TIP3   OH236165   4.079   1.415   1.419  0.1675  0.0242  0.6101
 4917TIP3    H136166   3.998   1.400   1.467 -0.4336  1.6712  0.1556
 4917TIP3    H236167   4.068   1.502   1.381  1.3114 -0.5745 -1.1479
 4918TIP3   OH236168   5.090   1.580   0.798 -0.2609  0.1418 -0.1708
 4918TIP3    H136169   5.072   1.506   0.739  1.8308  0.5736 -1.4210
 4918TIP3    H236170   5.161   1.548   0.854  1.0095  1.3804 -1.0676
 4919TIP3   OH236171   2.404   3.109   4.909 -0.1606  0.2760  0.7702
 4919TIP3    H136172   2.321   3.092   4.863  0.1196 -1.3516  0.8133
 4919TIP3    H236173   2.455   3.029   4.896  2.7520  2.4605 -2.0467
 4920TIP3   OH236174   3.289   2.202   5.009 -0.0526 -0.6352  0.4250
 4920TIP3    H136175   3.278   2.249   5.092  0.4331 -2.3473  1.4740
 4920TIP3    H236176   3.247   2.117   5.023 -1.2792 -0.4201 -1.5940
 4921TIP3   OH236177   6.235   0.343  13.403  0.1655  0.1116  0.1807
 4921TIP3    H136178   6.313   0.314  13.450  1.4922 -0.1987 -2.1302
 4921TIP3    H236179   6.184   0.264  13.388  1.0988 -0.2385 -1.2835
 4922TIP3   OH236180   3.724   0.806   0.762 -0.3119 -0.3990 -0.2125
 4922TIP3    H136181   3.722   0.796   0.667 -0.7667  0.0398 -0.2499
 4922TIP3    H236182   3.775   0.886   0.776  0.7960 -1.1157 -0.0313
 4923TIP3   OH236183   3.634   2.131  13.043  0.5631  0.0959 -0.3147
 4923TIP3    H136184   3.614   2.052  13.094 -0.3816  1.2056  1.0432
 4923TIP3    H236185   3.573   2.128  12.969  1.0938 -0.8691 -0.7258
 4924TIP3   OH236186   5.506   1.436  12.788  0.0604  0.2450  0.0174
 4924TIP3    H136187   5.482   1.527  12.805 -0.0385  0.5745 -1.7720
 4924TIP3    H236188   5.590   1.425  12.833  0.5106  1.4969 -0.4836
 4925TIP3   OH236189   5.283   4.605   1.620 -0.1422  0.0623 -0.8015
 4925TIP3    H136190   5.193   4.603   1.588  0.0377 -0.6053 -1.2705
 4925TIP3    H236191   5.283   4.672   1.688 -1.2426 -0.7141 -0.0264
 4926TIP3   OH236192   3.400   0.606  12.470  0.3785 -0.4422 -0.4440
 4926TIP3    H136193   3.391   0.591  12.376  1.4721  1.2341 -0.8334
 4926TIP3    H236194   3.358   0.690  12.486  0.2603 -0.6856  0.5477
 4927TIP3   OH236195   4.943   5.220   1.096  0.1488  0.3064  0.1435
 4927TIP3    H136196   4.938   5.169   1.015 -1.4667 -0.3650  0.6673
 4927TIP3    H236197   4.862   5.270   1.099  0.2182  0.3727  1.3278
 4928TIP3   OH236198   6.025   6.144  16.659  0.1010  0.6081  0.1533
 4928TIP3    H136199   6.043   6.089  16.736 -0.9504 -0.0062 -0.0397
 4928TIP3    H236200   6.007   6.081  16.589  2.2722  1.1400 -0.9113
 4929TIP3   OH236201   0.456   0.710  14.792  0.5891  0.1684 -0.4058
 4929TIP3    H136202   0.492   0.632  14.750 -1.2717 -0.3490 -1.1273
 4929TIP3    H236203   0.422   0.762  14.719  1.7942  1.6500  0.0757
 4930TIP3   OH236204   3.548   6.303  13.185 -0.6085 -0.5124 -0.3480
 4930TIP3    H136205   3.454   6.321  13.194 -0.2252  1.4909 -0.3013
 4930TIP3    H236206   3.566   6.314  13.091 -0.4236 -0.9954 -0.3736
 4931TIP3   OH236207   6.193   2.777   1.402  0.2090  0.6329 -0.4780
 4931TIP3    H136208   6.249   2.848   1.434  0.3944  0.4571 -0.4148
 4931TIP3    H236209   6.237   2.744   1.324 -0.5693  1.4889 -1.2972
 4932TIP3   OH236210   3.897   2.845  13.798  0.0008 -0.3472  0.1307
 4932TIP3    H136211   3.932   2.912  13.857 -1.6830  1.1436 -0.5153
 4932TIP3    H236212   3.870   2.773  13.856  0.4817  0.1362  0.9539
 4933TIP3   OH236213   5.985   1.908   5.607  0.2796 -0.2637  0.0873
 4933TIP3    H136214   5.910   1.891   5.550  0.5633 -0.5280 -0.2066
 4933TIP3    H236215   5.954   1.883   5.694 -0.0658 -0.1104  0.0084
 4934TIP3   OH236216   1.107   0.671  11.193 -0.2459  0.6028 -0.1973
 4934TIP3    H136217   1.113   0.742  11.129  0.3702  1.3438  0.6655
 4934TIP3    H236218   1.177   0.690  11.256 -0.4292 -0.4714  0.3429
 4935TIP3   OH236219   2.148   0.719  11.179 -0.3675  0.0263  0.3870
 4935TIP3    H136220   2.113   0.722  11.089 -0.3641  1.9011  0.4237
 4935TIP3    H236221   2.226   0.773  11.176  0.1943 -0.7276  1.3029
 4936TIP3   OH236222   0.352   5.211  16.416 -0.3741 -0.0703  0.3119
 4936TIP3    H136223   0.414   5.142  16.439  0.0920 -0.3448 -1.6751
 4936TIP3    H236224   0.406   5.291  16.415 -0.2419 -0.1634 -0.4651
 4937TIP3   OH236225   2.226   3.716   1.845 -0.1939  0.1776 -0.1678
 4937TIP3    H136226   2.244   3.792   1.901 -0.9430 -1.2452  2.0569
 4937TIP3    H236227   2.149   3.743   1.794  0.0528  1.2153 -0.0164
 4938TIP3   OH236228   2.384   0.925  16.027 -0.0043 -0.2730 -0.4261
 4938TIP3    H136229   2.460   0.977  16.004 -0.3247 -0.0535 -0.9921
 4938TIP3    H236230   2.407   0.885  16.111  0.4839  0.2822 -0.2929
 4939TIP3   OH236231   2.095   3.845  16.463 -0.2938  0.4308  0.0380
 4939TIP3    H136232   2.071   3.907  16.395 -0.8604 -0.9716 -1.0558
 4939TIP3    H236233   2.016   3.834  16.516 -0.4688 -0.0666 -0.3260
 4940TIP3   OH236234   6.720   2.162   6.288  0.3098 -0.6044  0.0773
 4940TIP3    H136235   6.702   2.209   6.369 -0.4993 -0.6822 -0.0578
 4940TIP3    H236236   6.771   2.224   6.235 -2.1172  0.7241 -0.7586
 4941TIP3   OH236237   2.702   2.826  16.373  0.3689  0.2140  0.0586
 4941TIP3    H136238   2.672   2.886  16.305 -0.1580 -0.1808 -0.0635
 4941TIP3    H236239   2.704   2.740  16.330 -1.3972 -0.2830  0.9273
 4942TIP3   OH236240   5.708   3.712   2.941  0.2154 -0.3504  0.8079
 4942TIP3    H136241   5.618   3.736   2.964 -0.5242  0.1412 -2.2906
 4942TIP3    H236242   5.710   3.617   2.942 -0.3106 -0.3555  1.0298
 4943TIP3   OH236243   4.881   2.440   2.698  0.1313  0.1083 -0.4127
 4943TIP3    H136244   4.787   2.432   2.683 -0.1111  0.5213  0.8422
 4943TIP3    H236245   4.896   2.400   2.783  1.0727  0.1526 -0.5468
 4944TIP3   OH236246   2.540   0.595   1.913  0.8217  0.5334 -0.0969
 4944TIP3    H136247   2.448   0.620   1.922  0.3743 -1.2300  0.5040
 4944TIP3    H236248   2.584   0.638   1.986  0.3878  0.9904 -0.0986
 4945TIP3   OH236249   1.340   2.099  15.053 -0.8463  0.0815 -0.2682
 4945TIP3    H136250   1.390   2.029  15.012 -0.2279  0.0887  0.4478
 4945TIP3    H236251   1.371   2.100  15.144  0.8656  2.7868 -0.8056
 4946TIP3   OH236252   5.084   3.159  15.491 -0.1142 -0.5112  0.0127
 4946TIP3    H136253   5.082   3.252  15.470 -2.0011 -1.1823 -2.9620
 4946TIP3    H236254   5.176   3.134  15.481 -0.2507  0.1621 -3.2708
 4947TIP3   OH236255   5.929   1.404   6.030  0.2133  0.0432  0.1157
 4947TIP3    H136256   5.976   1.334   5.985  1.5543  1.6693 -1.0789
 4947TIP3    H236257   5.837   1.390   6.006  0.2262 -2.3307  1.3450
 4948TIP3   OH236258   1.477   6.444   3.484  0.2443 -0.7325  0.4228
 4948TIP3    H136259   1.456   6.379   3.551 -1.0050 -1.1397 -0.3465
 4948TIP3    H236260   1.423   6.520   3.506  2.6163  0.5538  2.0491
 4949TIP3   OH236261   1.562   4.297  14.266  0.0741 -0.1646  0.5254
 4949TIP3    H136262   1.552   4.389  14.245  3.1135  0.2307  0.6182
 4949TIP3    H236263   1.572   4.253  14.181  0.7911 -0.1166  0.5838
 4950TIP3   OH236264   0.824   6.070  13.202  0.5918  0.1857 -0.0196
 4950TIP3    H136265   0.815   5.989  13.151  1.2184  0.8000 -1.1292
 4950TIP3    H236266   0.915   6.069  13.232 -0.1354 -0.8136  2.2061
 4951TIP3   OH236267   2.082   0.872   2.153  0.4176  0.6070  0.2844
 4951TIP3    H136268   2.092   0.778   2.171  1.1384  0.6653  0.2048
 4951TIP3    H236269   2.163   0.911   2.186 -0.3147  1.3374  1.2516
 4952TIP3   OH236270   3.261   2.299   4.016  0.2720 -0.0909  0.0507
 4952TIP3    H136271   3.313   2.307   4.096  1.8352  0.2486 -0.9875
 4952TIP3    H236272   3.233   2.388   3.996  0.3880 -0.0950 -0.1267
 4953TIP3   OH236273   4.178   4.326  15.569  0.1498 -0.3978 -0.2026
 4953TIP3    H136274   4.208   4.287  15.651 -0.8585 -0.3727  0.1850
 4953TIP3    H236275   4.174   4.420  15.587 -1.1565 -0.4915  0.0929
 4954TIP3   OH236276   3.249   3.001   0.884  0.1473 -0.2330 -0.4073
 4954TIP3    H136277   3.233   2.959   0.800  0.0130  1.1671 -1.0856
 4954TIP3    H236278   3.307   3.074   0.864  1.6576 -1.0091  0.9932
 4955TIP3   OH236279   3.186   2.436   7.544 -0.2251  0.2004 -0.1982
 4955TIP3    H136280   3.104   2.436   7.593 -0.0978  0.2909  0.0156
 4955TIP3    H236281   3.160   2.450   7.453 -0.4504  0.1679 -0.1379
 4956TIP3   OH236282   1.531   0.138  16.365  0.2450 -0.7023 -0.4538
 4956TIP3    H136283   1.448   0.115  16.324 -0.6909  0.0208  0.9948
 4956TIP3    H236284   1.586   0.168  16.293 -0.4853 -1.8775 -1.5338
 4957TIP3   OH236285   5.581   1.786  12.083 -0.8386 -0.8063 -0.0975
 4957TIP3    H136286   5.490   1.770  12.108 -0.9643 -1.6507 -1.0257
 4957TIP3    H236287   5.575   1.850  12.012 -0.7092 -0.8986 -0.1909
 4958TIP3   OH236288   1.097   1.098  14.839  0.1925  0.1696 -0.2962
 4958TIP3    H136289   1.126   1.087  14.930 -0.1493 -1.2213 -0.3322
 4958TIP3    H236290   1.010   1.135  14.846  0.7439  1.4674 -0.1066
 4959TIP3   OH236291   0.980   0.464   5.859 -0.5790 -0.2344  0.2250
 4959TIP3    H136292   1.047   0.463   5.927 -0.7234 -0.2147  0.3668
 4959TIP3    H236293   0.907   0.512   5.898  0.2781  2.0141 -0.8165
 4960TIP3   OH236294   2.144   2.440  12.954 -0.1259  0.4855  0.6205
 4960TIP3    H136295   2.086   2.390  13.011 -0.3229  0.1688  0.1410
 4960TIP3    H236296   2.202   2.375  12.915 -0.9276  0.5213 -0.6529
 4961TIP3   OH236297   1.765   0.545  13.465 -0.4500  0.3788 -0.5767
 4961TIP3    H136298   1.851   0.581  13.443 -0.5125  0.8709 -0.0553
 4961TIP3    H236299   1.738   0.495  13.388  1.2256 -1.5219  0.0478
 4962TIP3   OH236300   5.712   3.444  14.934 -0.2389 -0.2954  0.4743
 4962TIP3    H136301   5.765   3.433  14.854 -2.6106 -2.0416 -0.9334
 4962TIP3    H236302   5.690   3.537  14.935  2.1386  0.3105  0.6661
 4963TIP3   OH236303   2.777   2.880   5.847 -0.0492  0.3440 -0.1175
 4963TIP3    H136304   2.719   2.819   5.802  0.1634 -0.1216  0.2342
 4963TIP3    H236305   2.778   2.850   5.937 -0.0273  0.9380  0.0859
 4964TIP3   OH236306   5.518   0.340  16.806 -0.3651 -0.0340  0.1902
 4964TIP3    H136307   5.479   0.405  16.747 -0.6462  0.6776  1.1448
 4964TIP3    H236308   5.460   0.339  16.882  1.3357  0.8388  1.5232
 4965TIP3   OH236309   2.631   5.694  16.205  0.4879 -0.2671 -0.1236
 4965TIP3    H136310   2.588   5.727  16.127 -1.3582 -0.4111  0.8011
 4965TIP3    H236311   2.713   5.743  16.210 -0.0283  0.7489 -1.3793
 4966TIP3   OH236312   5.756   1.155  11.251  0.5497 -0.2285 -0.4247
 4966TIP3    H136313   5.801   1.193  11.176 -0.3728  0.5442 -0.6024
 4966TIP3    H236314   5.665   1.184  11.241  0.1901 -1.0527  0.3819
 4967TIP3   OH236315   4.369   1.310  12.117 -0.3089  0.6001 -0.2120
 4967TIP3    H136316   4.430   1.369  12.073 -0.9515  1.4086 -0.0408
 4967TIP3    H236317   4.409   1.224  12.110  1.3382  1.2745  0.8030
 4968TIP3   OH236318   4.444   0.715  16.161 -0.5160 -0.8022  0.1479
 4968TIP3    H136319   4.445   0.622  16.182 -2.2574 -0.7594  0.5206
 4968TIP3    H236320   4.407   0.756  16.240 -0.9228  0.0711 -0.4970
 4969TIP3   OH236321   4.893   1.679  13.398  0.1796 -0.3096 -0.5601
 4969TIP3    H136322   4.860   1.762  13.364  1.4771  0.2970 -0.3595
 4969TIP3    H236323   4.893   1.620  13.322 -1.8657 -0.4954 -0.4444
 4970TIP3   OH236324   0.163   5.635   0.656  0.4015  0.1058  0.7933
 4970TIP3    H136325   0.165   5.674   0.569  1.0946 -1.2824  0.1517
 4970TIP3    H236326   0.080   5.663   0.694  0.1190  0.7753 -0.3013
 4971TIP3   OH236327   4.323   6.065   4.027 -0.5301  0.3009  0.4235
 4971TIP3    H136328   4.417   6.053   4.043 -0.1712 -0.1302 -1.8285
 4971TIP3    H236329   4.283   5.983   4.058 -0.1183  0.3328  1.0375
 4972TIP3   OH236330   0.073   4.472   4.944  0.2702 -0.3354 -0.2972
 4972TIP3    H136331   0.145   4.486   5.005 -1.4702 -1.6443  2.1213
 4972TIP3    H236332   0.110   4.496   4.858  2.6975  1.7048  1.2320
 4973TIP3   OH236333   5.186   5.133   1.226 -0.2615  0.1615  0.2208
 4973TIP3    H136334   5.160   5.061   1.284  0.4762  0.1178  0.5000
 4973TIP3    H236335   5.105   5.157   1.180 -0.1157 -2.1595 -1.3464
 4974TIP3   OH236336   2.177   1.185   4.138  0.6737  0.3985  0.1818
 4974TIP3    H136337   2.119   1.190   4.062 -0.0977  0.4215  0.7670
 4974TIP3    H236338   2.238   1.114   4.117 -1.6653 -1.9144  0.9859
 4975TIP3   OH236339   5.091   5.078  11.746 -0.2596 -0.0874  0.7766
 4975TIP3    H136340   5.140   5.010  11.701 -1.6183 -1.3081  1.0919
 4975TIP3    H236341   5.055   5.132  11.676  0.9513  0.4186  0.5307
 4976TIP3   OH236342   1.405   2.639  15.286  0.8014 -0.0007 -0.1529
 4976TIP3    H136343   1.440   2.626  15.374  0.5180  1.2450  0.1449
 4976TIP3    H236344   1.406   2.552  15.247  0.8999 -0.5627  1.0909
 4977TIP3   OH236345   5.607   6.140  15.490  0.3753  0.0352  0.0211
 4977TIP3    H136346   5.518   6.141  15.454  0.7264  0.2681 -0.8466
 4977TIP3    H236347   5.639   6.230  15.479  1.8040 -0.7263 -2.4287
 4978TIP3   OH236348   5.447   6.484  13.548 -0.7107 -0.1433 -0.2783
 4978TIP3    H136349   5.534   6.444  13.551 -1.0642 -0.8778  0.4948
 4978TIP3    H236350   5.464   6.578  13.548  0.0668 -0.2688  1.1126
 4979TIP3   OH236351   0.553   6.494   4.208  0.4887 -0.3427  0.7711
 4979TIP3    H136352   0.582   6.404   4.192 -2.2109 -1.1916  0.4818
 4979TIP3    H236353   0.536   6.530   4.121 -1.3609 -0.5771  1.0186
 4980TIP3   OH236354   3.059   6.317   4.077  0.3933  0.0364  0.0440
 4980TIP3    H136355   3.084   6.238   4.127  1.9086  0.4782  0.0054
 4980TIP3    H236356   3.019   6.282   3.997  0.5682 -0.6995  0.2662
 4981TIP3   OH236357   0.769   5.804  16.050  0.5263 -0.4717  0.5539
 4981TIP3    H136358   0.677   5.791  16.028  0.1038 -0.6522  2.4003
 4981TIP3    H236359   0.814   5.799  15.965 -1.4029  2.1165 -0.6838
 4982TIP3   OH236360   4.541   2.623  13.498  0.2601  0.6653  0.0709
 4982TIP3    H136361   4.468   2.685  13.505 -0.1529  0.1112  0.7413
 4982TIP3    H236362   4.610   2.671  13.453 -0.1395  1.5376  0.3946
 4983TIP3   OH236363   5.225   6.593   4.650 -0.0541  0.1434 -0.0747
 4983TIP3    H136364   5.156   6.529   4.665 -1.4120  1.6266  0.1453
 4983TIP3    H236365   5.268   6.563   4.570 -1.7580 -0.1438 -0.9189
 4984TIP3   OH236366   2.001   6.758   4.921  0.1435 -0.0769 -0.3260
 4984TIP3    H136367   1.914   6.783   4.951  1.1472  1.3940  1.4622
 4984TIP3    H236368   1.990   6.739   4.828 -2.6751 -2.9963  0.5393
 4985TIP3   OH236369   2.541   4.307  11.349  0.3434 -0.5891 -0.2043
 4985TIP3    H136370   2.570   4.373  11.412  1.6296 -1.5618  0.2417
 4985TIP3    H236371   2.543   4.352  11.265  1.4448 -0.1315  0.0612
 4986TIP3   OH236372   1.965   2.526   1.757 -0.0669 -0.4262 -0.1420
 4986TIP3    H136373   1.950   2.542   1.663  2.0344 -0.3608 -0.5112
 4986TIP3    H236374   1.966   2.613   1.796 -3.7424 -0.5916  0.4564
 4987TIP3   OH236375   2.214   4.537  13.111 -0.5611 -0.2979 -0.1713
 4987TIP3    H136376   2.126   4.504  13.093  0.0168 -1.4713 -0.8975
 4987TIP3    H236377   2.258   4.536  13.026 -0.1192  1.1450  0.0211
 4988TIP3   OH236378   3.831   2.530   4.469 -0.0067  0.0260  0.4504
 4988TIP3    H136379   3.920   2.527   4.505 -0.6076 -0.9507  1.9318
 4988TIP3    H236380   3.796   2.613   4.500  1.1636  1.5520 -2.1393
 4989TIP3   OH236381   4.665   2.425   3.076  0.4503 -0.1552 -0.2425
 4989TIP3    H136382   4.664   2.519   3.092 -0.6144  0.0216 -1.2307
 4989TIP3    H236383   4.666   2.385   3.163  1.3715  0.7631  0.1798
 4990TIP3   OH236384   1.203   0.220  11.203  0.0267 -0.2872 -0.0315
 4990TIP3    H136385   1.205   0.299  11.257 -1.2093  0.5431 -1.1750
 4990TIP3    H236386   1.110   0.203  11.188  0.3507  0.4909 -3.3143
 4991TIP3   OH236387   3.903   1.796  14.725 -0.1734  0.3040  0.4270
 4991TIP3    H136388   3.879   1.744  14.648  0.0549 -0.5013  0.8883
 4991TIP3    H236389   3.879   1.740  14.799  1.6137  0.1565  0.9202
 4992TIP3   OH236390   0.453   6.087   2.637  0.5594  0.0497 -0.1513
 4992TIP3    H136391   0.493   6.011   2.678 -0.8145 -0.9698 -0.6604
 4992TIP3    H236392   0.468   6.159   2.698  0.3483 -1.0029  1.1454
 4993TIP3   OH236393   1.541   2.038   3.791 -0.0463  0.0636  0.0444
 4993TIP3    H136394   1.531   2.118   3.844 -0.6734  0.1586 -0.2097
 4993TIP3    H236395   1.489   2.055   3.713 -1.2271 -1.1039  0.5673
 4994TIP3   OH236396   1.606   4.367  13.792  0.1582 -0.0177  0.1204
 4994TIP3    H136397   1.607   4.375  13.697 -0.0945  0.5107  0.1640
 4994TIP3    H236398   1.514   4.368  13.815  0.1992 -0.7674  0.3191
 4995TIP3   OH236399   0.558   0.155   3.487 -0.3396  0.0222 -0.0450
 4995TIP3    H136400   0.481   0.097   3.486  0.2774 -0.8108 -0.7778
 4995TIP3    H236401   0.624   0.105   3.535  0.0217  0.3579 -0.1989
 4996TIP3   OH236402   6.095   4.876   2.209  0.3228 -0.1906  0.2788
 4996TIP3    H136403   6.012   4.835   2.235 -0.1535 -0.0969 -1.0526
 4996TIP3    H236404   6.091   4.964   2.244 -0.0905 -0.2292  0.3292
 4997TIP3   OH236405   4.621   4.967  15.953  0.0451  0.3486 -0.1296
 4997TIP3    H136406   4.674   5.024  16.009 -1.9837  1.2850  0.9004
 4997TIP3    H236407   4.586   5.025  15.885  1.2195 -0.4785 -1.4594
 4998TIP3   OH236408   1.077   3.643   3.889  0.5956  0.5358 -0.6931
 4998TIP3    H136409   1.056   3.712   3.951  0.5864 -0.8262  0.8350
 4998TIP3    H236410   1.052   3.679   3.804 -1.0852  1.7264  0.2752
 4999TIP3   OH236411   3.396   0.874   1.548  0.4873 -0.1546 -0.5863
 4999TIP3    H136412   3.446   0.896   1.626  2.9708 -0.8199 -1.9286
 4999TIP3    H236413   3.413   0.947   1.488 -0.3988 -0.2472 -0.9592
 5000TIP3   OH236414   3.743   1.824   3.710  0.0689 -0.2414 -0.1412
 5000TIP3    H136415   3.704   1.766   3.775 -0.7700 -1.6252 -1.8305
 5000TIP3    H236416   3.685   1.900   3.708  0.7379  0.3348  1.5256
 5001TIP3   OH236417   1.732   3.439  12.145  0.3478 -0.3648  0.1655
 5001TIP3    H136418   1.685   3.356  12.140  0.2834 -0.2234 -1.5760
 5001TIP3    H236419   1.665   3.506  12.131  0.8007 -0.1030 -0.7405
 5002TIP3   OH236420   3.481   4.753  13.670  0.4007  0.1089 -0.4156
 5002TIP3    H136421   3.477   4.814  13.744  0.0209 -0.1421 -0.2307
 5002TIP3    H236422   3.395   4.711  13.669  0.7750 -0.6713 -0.3318
 5003TIP3   OH236423   4.281   0.186  16.617  0.1145  0.0181  0.4738
 5003TIP3    H136424   4.293   0.255  16.553 -1.2032  0.6000  0.8357
 5003TIP3    H236425   4.253   0.110  16.566  0.1230  0.1647  0.2518
 5004TIP3   OH236426   3.838   1.109   4.050 -0.0321  0.6744 -0.3130
 5004TIP3    H136427   3.820   1.103   3.957 -2.8068  1.4871  0.1205
 5004TIP3    H236428   3.890   1.031   4.070 -2.5601 -1.4924 -1.8469
 5005TIP3   OH236429   2.059   0.290   2.258  0.5282  0.6496  0.1184
 5005TIP3    H136430   2.146   0.263   2.228  0.3195 -1.4911  1.4127
 5005TIP3    H236431   1.998   0.242   2.201  0.1544 -1.8769  2.5695
 5006TIP3   OH236432   6.692   0.978   3.748 -0.3689 -0.1682  0.4097
 5006TIP3    H136433   6.724   1.006   3.662  0.3482  0.3497  0.8412
 5006TIP3    H236434   6.671   0.885   3.736 -0.2014 -0.1198 -0.3021
 5007TIP3   OH236435   2.378   5.216  15.756 -0.2642  0.2905  0.3654
 5007TIP3    H136436   2.313   5.146  15.744 -0.3430  0.5193 -0.5603
 5007TIP3    H236437   2.338   5.293  15.716  0.1107  0.7025  0.7825
 5008TIP3   OH236438   3.713   1.009  14.061 -0.0959  0.6250 -0.0036
 5008TIP3    H136439   3.729   0.992  14.154  0.6343  0.8429 -0.0825
 5008TIP3    H236440   3.754   1.094  14.044  1.3687 -0.2234 -0.9129
 5009TIP3   OH236441   2.086   5.912  14.100  0.0223  0.0841 -0.1560
 5009TIP3    H136442   2.085   5.950  14.188 -1.8287 -1.5813  0.5757
 5009TIP3    H236443   2.175   5.878  14.089 -0.0752 -0.7720  1.5640
 5010TIP3   OH236444   1.888   6.399   3.832 -0.2713 -0.0740 -0.4773
 5010TIP3    H136445   1.848   6.450   3.903 -2.3585 -2.4148  0.1088
 5010TIP3    H236446   1.858   6.443   3.752 -3.1006 -1.0722 -0.0144
 5011TIP3   OH236447   1.645   6.234  13.253 -0.0480 -0.3123  0.0375
 5011TIP3    H136448   1.629   6.238  13.347  1.5844 -0.3013  0.3383
 5011TIP3    H236449   1.705   6.160  13.243  0.3857  0.1582 -0.8896
 5012TIP3   OH236450   1.314   4.450   2.658  0.4105 -0.9066  0.5382
 5012TIP3    H136451   1.322   4.404   2.742 -0.8281 -0.1822  1.0732
 5012TIP3    H236452   1.270   4.532   2.680 -3.0568 -2.1528 -1.2866
 5013TIP3   OH236453   1.974   1.765  13.777 -0.2033 -1.0200  0.1680
 5013TIP3    H136454   2.003   1.764  13.686 -0.0565 -1.1926  0.2175
 5013TIP3    H236455   1.931   1.681  13.790  0.5791 -1.3692  0.5187
 5014TIP3   OH236456   2.557   6.192  11.772 -0.2938 -0.1272 -0.0664
 5014TIP3    H136457   2.560   6.144  11.689  0.4242  1.3382 -0.9132
 5014TIP3    H236458   2.470   6.232  11.774 -0.7997 -1.2579  0.5208
 5015TIP3   OH236459   3.880   1.165  15.141  0.4254 -0.4580  0.2790
 5015TIP3    H136460   3.956   1.171  15.199  1.0250  0.0957 -0.5416
 5015TIP3    H236461   3.896   1.086  15.089 -0.1544 -1.0031  0.9244
 5016TIP3   OH236462   4.527   3.121   0.755  0.6897 -0.6149  0.5845
 5016TIP3    H136463   4.454   3.180   0.737  2.0513  0.2288 -2.7573
 5016TIP3    H236464   4.566   3.154   0.836 -1.4578  0.1023  1.3511
 5017TIP3   OH236465   4.695   4.748   6.249  0.2317 -0.6347  0.1584
 5017TIP3    H136466   4.634   4.786   6.312 -0.3635 -0.7403 -0.3442
 5017TIP3    H236467   4.758   4.817   6.231 -0.2682 -0.2153 -0.0033
 5018TIP3   OH236468   1.577   6.512  13.367  0.2661  0.5007 -0.1902
 5018TIP3    H136469   1.610   6.568  13.297  1.4540  1.1422  0.8665
 5018TIP3    H236470   1.505   6.562  13.406 -0.7011 -0.0580 -1.2411
 5019TIP3   OH236471   6.710   4.345   3.876 -0.0705 -0.1096 -0.2313
 5019TIP3    H136472   6.700   4.440   3.884  1.5408  0.1239 -0.8072
 5019TIP3    H236473   6.750   4.332   3.790 -0.7354 -1.3541 -0.3613
 5020TIP3   OH236474   5.392   5.018  11.320  0.1355  0.6568 -0.3124
 5020TIP3    H136475   5.444   4.940  11.304 -0.8176 -0.0651  0.0170
 5020TIP3    H236476   5.412   5.043  11.410 -2.3651 -1.4267  0.8809
 5021TIP3   OH236477   5.303   3.273  14.714 -0.0467 -0.3125  0.0997
 5021TIP3    H136478   5.333   3.305  14.799 -1.0758  0.4292  0.1861
 5021TIP3    H236479   5.230   3.330  14.690  0.3920 -0.3373 -1.4053
 5022TIP3   OH236480   1.612   4.928   0.399 -0.0374 -0.9765 -0.3030
 5022TIP3    H136481   1.665   4.876   0.339  0.2068  1.1117 -1.9632
 5022TIP3    H236482   1.644   4.905   0.486  3.0364 -0.3918 -1.2166
 5023TIP3   OH236483   2.240   4.810   2.908  0.2151 -0.3262 -0.1450
 5023TIP3    H136484   2.276   4.861   2.981  1.2460 -1.4721  0.1628
 5023TIP3    H236485   2.240   4.871   2.834 -2.2173  1.3067  1.1350
 5024TIP3   OH236486   0.695   3.064  13.628 -0.3770  0.5767 -0.3069
 5024TIP3    H136487   0.637   3.121  13.679  2.5973  2.0897  1.5260
 5024TIP3    H236488   0.700   3.105  13.542  0.2638  2.0672  0.4284
 5025TIP3   OH236489   2.225   1.535  13.082  0.4469 -0.0640  0.2294
 5025TIP3    H136490   2.140   1.569  13.111  0.9365 -0.7946  2.6942
 5025TIP3    H236491   2.288   1.597  13.118  0.9720  0.2902 -1.3109
 5026TIP3   OH236492   6.077   4.264  16.577  0.2067  0.6800 -0.1757
 5026TIP3    H136493   6.027   4.327  16.628 -0.2649  0.8300 -0.8148
 5026TIP3    H236494   6.086   4.188  16.635 -0.6145  0.7167  0.0123
 5027TIP3   OH236495   6.023   3.828   1.690  0.5080  0.5217  0.4813
 5027TIP3    H136496   6.035   3.746   1.738  0.4314 -0.1802 -0.6672
 5027TIP3    H236497   5.929   3.846   1.696  0.4517  0.2793  0.3532
 5028TIP3   OH236498   0.134   4.678   4.389  0.1135  0.3465 -0.0161
 5028TIP3    H136499   0.094   4.596   4.359 -1.9267  0.1981  2.8525
 5028TIP3    H236500   0.089   4.746   4.340 -0.5012 -0.0925 -0.0703
 5029TIP3   OH236501   0.946   3.953   4.639 -0.2416 -0.0228  0.7313
 5029TIP3    H136502   0.900   4.002   4.571  0.0985  1.7195  1.7165
 5029TIP3    H236503   0.887   3.957   4.715 -0.7366 -2.1567  0.4924
 5030TIP3   OH236504   0.733   5.293   4.960 -0.2640 -0.3152 -0.3633
 5030TIP3    H136505   0.733   5.320   5.051 -1.8099  1.3515 -0.8195
 5030TIP3    H236506   0.780   5.210   4.959 -0.4159 -0.4553  1.9676
 5031TIP3   OH236507   1.216   6.623   3.541  0.5334  0.2651  0.8965
 5031TIP3    H136508   1.131   6.641   3.581  0.3848 -3.7894  2.6169
 5031TIP3    H236509   1.280   6.651   3.607  0.4072 -1.1248  1.6200
 5032TIP3   OH236510   3.479   0.831   4.967  0.3291 -0.1183 -0.6501
 5032TIP3    H136511   3.475   0.778   4.887 -0.8001  0.8362 -1.2471
 5032TIP3    H236512   3.530   0.908   4.942 -1.9913  1.3101 -1.1615
 5033TIP3   OH236513   0.220   2.250  12.637 -0.2784  0.0531  0.4266
 5033TIP3    H136514   0.282   2.179  12.651 -1.4462 -1.4172 -1.6222
 5033TIP3    H236515   0.267   2.313  12.583 -0.3517 -0.7655 -0.6012
 5034TIP3   OH236516   2.669   1.529  12.778  0.6529 -0.1225  0.1786
 5034TIP3    H136517   2.741   1.465  12.777  0.4778 -0.3227  0.3993
 5034TIP3    H236518   2.648   1.542  12.686 -1.6478 -3.0237  0.2190
 5035TIP3   OH236519   3.511   6.143  17.165 -0.2645  0.4558  0.3311
 5035TIP3    H136520   3.450   6.210  17.194 -1.3352  0.1138 -1.0584
 5035TIP3    H236521   3.519   6.157  17.071 -0.0971 -1.0384  0.1090
 5036TIP3   OH236522   5.223   1.960  16.822  0.0633 -0.1600 -0.1344
 5036TIP3    H136523   5.202   1.998  16.737  0.3820  0.5649  0.1055
 5036TIP3    H236524   5.318   1.953  16.823 -0.0131 -1.3047 -0.3189
 5037TIP3   OH236525   5.275   3.657   1.605 -0.9773 -0.7897 -0.0219
 5037TIP3    H136526   5.294   3.697   1.690  1.1729  1.3259 -1.4246
 5037TIP3    H236527   5.199   3.601   1.622 -1.9092  1.1632  2.8334
 5038TIP3   OH236528   5.554   6.512   0.749 -0.1218 -0.5871  0.1105
 5038TIP3    H136529   5.550   6.605   0.773 -0.6656 -0.9097  1.3101
 5038TIP3    H236530   5.617   6.509   0.678  1.2138  0.4703  1.2086
 5039TIP3   OH236531   4.322   4.499  11.395  0.5909  0.1670  0.2985
 5039TIP3    H136532   4.307   4.414  11.355  0.9287 -0.6689  1.9025
 5039TIP3    H236533   4.235   4.539  11.400  0.4639  0.0283 -0.6608
 5040TIP3   OH236534   6.349   6.085   2.224 -0.5020 -0.3501 -0.6052
 5040TIP3    H136535   6.361   6.132   2.141  3.1256 -1.8763 -1.0850
 5040TIP3    H236536   6.389   6.142   2.290 -1.7821  0.0571 -0.1713
 5041TIP3   OH236537   2.779   4.612   0.479 -0.3118 -0.0302 -0.1699
 5041TIP3    H136538   2.691   4.588   0.509  0.3990 -1.4001  0.8618
 5041TIP3    H236539   2.798   4.695   0.525 -1.7493  1.2269 -1.7683
 5042TIP3   OH236540   4.289   1.964  14.630 -0.0842 -0.4696 -0.2673
 5042TIP3    H136541   4.380   1.959  14.659  0.0912  0.9493 -0.5421
 5042TIP3    H236542   4.241   1.997  14.706  0.3839  3.3036 -1.5086
 5043TIP3   OH236543   3.185   0.732  13.823 -0.0981  0.1061  0.0808
 5043TIP3    H136544   3.242   0.668  13.865  1.9928  1.1512 -1.0729
 5043TIP3    H236545   3.098   0.692  13.824  0.8100 -1.8790  1.1281
 5044TIP3   OH236546   6.686   3.489  10.765  0.1506  0.2852  0.3104
 5044TIP3    H136547   6.601   3.447  10.776 -0.4639  1.5923  0.7386
 5044TIP3    H236548   6.671   3.557  10.699  0.7567  0.8139  0.7095
 5045TIP3   OH236549   2.077   3.763   2.538 -0.3097  0.4440  0.3313
 5045TIP3    H136550   2.142   3.708   2.495 -0.5220 -0.5098  1.1969
 5045TIP3    H236551   2.129   3.832   2.581 -0.0060  0.6671 -0.3916
 5046TIP3   OH236552   6.743   5.051  16.139  0.0344 -0.2628 -0.1391
 5046TIP3    H136553   6.753   5.126  16.197 -0.4746 -1.0148  0.9275
 5046TIP3    H236554   6.737   4.976  16.197  0.3932 -1.1304 -1.1920
 5047TIP3   OH236555   2.116   0.787   2.529 -0.5024  0.2180  0.4775
 5047TIP3    H136556   2.049   0.809   2.465  0.3815  0.6908 -0.2929
 5047TIP3    H236557   2.124   0.691   2.524 -1.1616  0.1590  0.6139
 5048TIP3   OH236558   5.218   1.960  15.589 -0.0273  0.9671 -0.1241
 5048TIP3    H136559   5.233   2.048  15.554 -2.3243  1.7246  0.7441
 5048TIP3    H236560   5.136   1.931  15.549  1.1451 -1.1588 -1.0816
 5049TIP3   OH236561   0.357   0.937  11.845 -0.4242 -0.1381 -0.6920
 5049TIP3    H136562   0.301   0.899  11.912 -1.2716  2.6134  0.2399
 5049TIP3    H236563   0.441   0.952  11.889 -0.2787 -0.3617 -0.8907
 5050TIP3   OH236564   1.721   1.691  13.613  0.1405 -0.0346  0.1647
 5050TIP3    H136565   1.804   1.714  13.570  0.9348 -0.9108  1.2275
 5050TIP3    H236566   1.713   1.597  13.601 -0.6732  0.0366  0.1355
 5051TIP3   OH236567   4.708   2.606   4.978  0.4385  0.2550 -0.7642
 5051TIP3    H136568   4.790   2.571   4.943  0.3517  1.1859 -1.9014
 5051TIP3    H236569   4.645   2.598   4.907 -0.8090 -1.5796  0.4841
 5052TIP3   OH236570   6.687   4.429  11.896  0.2178 -0.5812  0.0133
 5052TIP3    H136571   6.600   4.459  11.871  0.6824  0.5646 -0.2711
 5052TIP3    H236572   6.737   4.429  11.814  0.8015 -0.1000  0.3570
 5053TIP3   OH236573   3.861   2.727   6.300 -0.4767  0.1692 -0.5169
 5053TIP3    H136574   3.815   2.688   6.374 -2.3751 -1.3502 -2.4224
 5053TIP3    H236575   3.873   2.655   6.238  1.7183  1.2470 -1.4081
 5054TIP3   OH236576   6.228   5.955  15.663  0.8167 -0.1213  0.5210
 5054TIP3    H136577   6.205   5.995  15.746 -0.2091  0.0639  0.1490
 5054TIP3    H236578   6.247   5.864  15.684 -0.2971 -0.2827  0.8259
 5055TIP3   OH236579   3.665   0.154   5.885  0.2392 -0.3416 -0.3404
 5055TIP3    H136580   3.572   0.173   5.891  0.2230 -0.5945  0.2328
 5055TIP3    H236581   3.683   0.097   5.959  0.8927 -0.1331 -0.3318
 5056TIP3   OH236582   1.198   4.820  17.027 -0.2407  0.1317 -0.2870
 5056TIP3    H136583   1.284   4.860  17.016 -0.8457  1.2627 -1.1234
 5056TIP3    H236584   1.172   4.795  16.938  0.5554 -3.1103  0.3439
 5057TIP3   OH236585   0.923   2.695   3.217  0.3593 -0.0461  0.1349
 5057TIP3    H136586   0.848   2.682   3.159  0.2982  1.6893 -0.1963
 5057TIP3    H236587   0.897   2.655   3.300  0.7320 -3.2194 -1.1955
 5058TIP3   OH236588   6.317   0.351  11.488 -0.2783 -0.4805 -0.1701
 5058TIP3    H136589   6.265   0.305  11.423 -1.5228 -0.7750  0.9963
 5058TIP3    H236590   6.254   0.376  11.556  0.9017  0.2067  0.7048
 5059TIP3   OH236591   2.980   4.578  12.318  0.3045  0.1640  0.2387
 5059TIP3    H136592   3.020   4.650  12.269 -0.4316 -0.1776 -0.8800
 5059TIP3    H236593   2.922   4.621  12.380 -0.9562  0.5355 -1.1561
 5060TIP3   OH236594   1.240   0.935   5.626 -0.4774 -0.1149 -0.3547
 5060TIP3    H136595   1.182   0.878   5.676 -1.9892  0.6869 -1.1854
 5060TIP3    H236596   1.310   0.957   5.687 -0.1159 -2.4761  0.1140
 5061TIP3   OH236597   2.958   0.349   0.791 -0.2563 -0.0841  0.1002
 5061TIP3    H136598   3.027   0.374   0.730  0.4744  0.7141  1.2332
 5061TIP3    H236599   3.002   0.292   0.854 -0.9311 -0.6432  0.0639
 5062TIP3   OH236600   2.971   2.276   2.291  0.0199  0.1369 -0.2577
 5062TIP3    H136601   2.979   2.371   2.287 -0.0512  0.2753  1.9988
 5062TIP3    H236602   2.895   2.261   2.348  2.1415 -1.2336  2.3253
 5063TIP3   OH236603   0.791   3.771  12.683  0.5525 -0.5999 -0.3334
 5063TIP3    H136604   0.840   3.770  12.765 -1.0807  0.2865  0.6890
 5063TIP3    H236605   0.761   3.862  12.675 -0.9845 -1.1482 -0.8737
 5064TIP3   OH236606   1.000   0.849  14.685  0.0829 -0.1453  0.6117
 5064TIP3    H136607   0.906   0.865  14.690  0.2176  0.6724  0.4641
 5064TIP3    H236608   1.039   0.910  14.748  0.5373 -0.3106  0.4957
 5065TIP3   OH236609   0.535   4.521  12.058 -0.4454 -0.1577 -0.0086
 5065TIP3    H136610   0.440   4.537  12.062 -0.2942  0.6882  0.3308
 5065TIP3    H236611   0.543   4.434  12.020 -1.3735 -0.3274  0.1652
 5066TIP3   OH236612   0.243   2.610  12.120  0.7665  0.4563 -0.3999
 5066TIP3    H136613   0.312   2.662  12.161  0.4322  2.5593 -2.4005
 5066TIP3    H236614   0.164   2.662  12.129  0.0135 -0.6115 -0.6882
 5067TIP3   OH236615   1.236   4.440  12.042  0.8317 -0.0044 -0.2760
 5067TIP3    H136616   1.179   4.515  12.061  0.0673  0.0193 -2.5545
 5067TIP3    H236617   1.324   4.472  12.062  0.2991  0.7555  0.9235
 5068TIP3   OH236618   2.367   4.369  12.328 -0.1151  0.4610 -0.6034
 5068TIP3    H136619   2.400   4.343  12.242  0.2757  0.7308 -0.5343
 5068TIP3    H236620   2.445   4.395  12.377 -0.1419 -1.2737  0.3905
 5069TIP3   OH236621   1.690   0.239  13.079 -0.3952  0.8214 -0.2844
 5069TIP3    H136622   1.667   0.151  13.110  2.0922  0.0671 -0.4385
 5069TIP3    H236623   1.646   0.247  12.994  0.3123 -0.7596 -0.8167
 5070TIP3   OH236624   1.865   2.412  12.792 -0.2633 -0.6010  0.2488
 5070TIP3    H136625   1.956   2.397  12.816  0.5280  2.3113 -0.7672
 5070TIP3    H236626   1.857   2.378  12.703  0.7411  2.1715 -0.9301
 5071TIP3   OH236627   1.645   5.132   2.122  0.2006 -0.1406 -0.1174
 5071TIP3    H136628   1.648   5.202   2.187  1.8360 -1.3207  1.1158
 5071TIP3    H236629   1.557   5.094   2.131 -0.1088  0.6849  0.3452
 5072TIP3   OH236630   5.466   2.054   5.275  0.2992  0.1737 -0.4609
 5072TIP3    H136631   5.404   1.992   5.313  0.3792  0.0590 -0.5174
 5072TIP3    H236632   5.431   2.140   5.299 -0.9692  0.1720 -2.1859
 5073TIP3   OH236633   1.816   4.120  11.254  0.0259 -0.5025 -0.2659
 5073TIP3    H136634   1.829   4.200  11.305 -0.1209  0.7131 -2.1015
 5073TIP3    H236635   1.735   4.136  11.205  0.1616 -1.6451 -0.8696
 5074TIP3   OH236636   6.785   1.245  16.450  0.2226 -0.0274 -0.0382
 5074TIP3    H136637   6.846   1.171  16.444 -0.2232 -0.2399 -2.5303
 5074TIP3    H236638   6.706   1.213  16.407 -0.8761  1.0304  1.1725
 5075TIP3   OH236639   4.463   0.727   0.764  0.4444 -0.0500  0.3043
 5075TIP3    H136640   4.424   0.773   0.839 -0.6626 -0.4839  0.0027
 5075TIP3    H236641   4.439   0.780   0.689  1.8600  0.5775  0.2826
 5076TIP3   OH236642   3.857   2.907  16.400  0.4981  0.4308 -0.6585
 5076TIP3    H136643   3.784   2.965  16.420 -0.6595 -1.1079 -0.2717
 5076TIP3    H236644   3.906   2.952  16.331  0.5620  2.5847  0.7500
 5077TIP3   OH236645   5.714   4.612  11.122  0.3137 -0.3306 -0.2732
 5077TIP3    H136646   5.649   4.681  11.128 -0.0464 -0.8385  2.0965
 5077TIP3    H236647   5.665   4.534  11.097  0.4947 -0.0765 -1.4620
 5078TIP3   OH236648   1.830   1.276  15.851  0.0791 -0.3642  0.3059
 5078TIP3    H136649   1.875   1.199  15.817  0.5456 -0.3723  0.9360
 5078TIP3    H236650   1.764   1.241  15.911  0.4966 -0.2603  0.8291
 5079TIP3   OH236651   4.811   3.019  12.439 -0.0788  0.1435  0.0167
 5079TIP3    H136652   4.801   3.110  12.414 -1.0320 -0.0600 -0.3497
 5079TIP3    H236653   4.891   2.990  12.394  0.4293  0.8867  0.4287
 5080TIP3   OH236654   1.218   0.563  12.898 -0.2005  0.1911  0.1606
 5080TIP3    H136655   1.236   0.649  12.861 -1.7939  0.5460  0.1777
 5080TIP3    H236656   1.230   0.502  12.825 -1.6596  0.7096 -0.5282
 5081TIP3   OH236657   6.152   0.372   1.837  0.1356  0.0623  0.2649
 5081TIP3    H136658   6.165   0.454   1.789 -1.7420  1.1498  1.5853
 5081TIP3    H236659   6.238   0.330   1.835  1.5309  2.7923  0.9076
 5082TIP3   OH236660   6.345   3.368   3.110 -0.1924  0.1325 -0.6056
 5082TIP3    H136661   6.302   3.299   3.059 -0.1541 -0.2130 -0.1785
 5082TIP3    H236662   6.424   3.388   3.061 -0.0092 -0.4054 -0.5395
 5083TIP3   OH236663   5.620   5.938   3.629  0.3627  0.0830  0.0348
 5083TIP3    H136664   5.711   5.909   3.630 -0.3117 -2.2312 -1.5321
 5083TIP3    H236665   5.619   6.011   3.567  1.1969  0.3832  0.3575
 5084TIP3   OH236666   4.961   5.002   2.678  0.5925  0.0139 -0.1091
 5084TIP3    H136667   5.053   4.977   2.683  0.6790  0.2115 -0.6653
 5084TIP3    H236668   4.917   4.943   2.739  1.0837 -0.0764  0.1672
 5085TIP3   OH236669   6.072   1.881   2.504 -0.8006 -0.4041  0.1472
 5085TIP3    H136670   6.106   1.970   2.495 -0.6842 -0.2932  1.6844
 5085TIP3    H236671   6.013   1.870   2.428 -0.3897  0.7734 -0.3474
 5086TIP3   OH236672   1.062   1.175   5.583  0.0802  0.2849  0.2308
 5086TIP3    H136673   1.132   1.112   5.565  1.6616  1.3556  2.4020
 5086TIP3    H236674   1.079   1.205   5.672 -0.5175  3.8691 -0.7739
 5087TIP3   OH236675   5.941   3.966   0.767 -0.5892 -0.7381  0.2195
 5087TIP3    H136676   5.880   3.954   0.694 -1.2610  0.4533  0.5712
 5087TIP3    H236677   5.885   3.972   0.844 -0.0709  0.9310  0.4791
 5088TIP3   OH236678   6.248   1.989   0.909  0.3485  0.0188  0.2266
 5088TIP3    H136679   6.337   1.977   0.876  1.0049  0.7825  1.6851
 5088TIP3    H236680   6.257   2.054   0.979 -1.2395 -0.4482  0.8756
 5089TIP3   OH236681   1.754   5.638  15.409 -0.9088 -0.0283  0.5252
 5089TIP3    H136682   1.795   5.659  15.325 -0.3841 -1.3906  0.4189
 5089TIP3    H236683   1.680   5.698  15.415 -0.3410  0.7959 -0.4273
 5090TIP3   OH236684   2.876   4.297  11.399 -0.3790  0.2386  0.0950
 5090TIP3    H136685   2.871   4.347  11.317 -1.0616 -0.0809 -0.0640
 5090TIP3    H236686   2.931   4.222  11.377 -1.0257 -0.1479 -0.2386
 5091TIP3   OH236687   2.577   3.834   0.701 -0.1372 -0.5272 -0.0280
 5091TIP3    H136688   2.596   3.805   0.612 -0.1205  1.4177 -0.6783
 5091TIP3    H236689   2.492   3.795   0.721 -0.5877 -0.2096 -1.2561
 5092TIP3   OH236690   6.034   6.609   1.479 -0.7416  0.0816 -0.1349
 5092TIP3    H136691   6.061   6.699   1.462  0.3357 -0.3682 -0.8634
 5092TIP3    H236692   5.978   6.585   1.405 -2.5618  0.7556  0.9877
 5093TIP3   OH236693   6.709   1.667   0.642  0.7270 -0.1486  0.0705
 5093TIP3    H136694   6.639   1.718   0.684  1.4987  0.6900  0.3467
 5093TIP3    H236695   6.670   1.581   0.628 -0.4413  0.3767  0.0134
 5094TIP3   OH236696   2.681   6.109   3.897 -0.3938  0.4053  0.4116
 5094TIP3    H136697   2.586   6.122   3.899 -0.4552  0.0452 -0.3206
 5094TIP3    H236698   2.708   6.125   3.988 -1.1180  0.7504  0.5767
 5095TIP3   OH236699   4.721   6.054   1.330  0.4176  0.1023  0.2231
 5095TIP3    H136700   4.730   5.975   1.382 -0.2082 -0.6402 -0.7710
 5095TIP3    H236701   4.649   6.035   1.269  0.1913  1.4650  0.0388
 5096TIP3   OH236702   6.730   4.435   1.037 -0.1660 -0.0665 -0.1603
 5096TIP3    H136703   6.818   4.459   1.068  0.5177 -2.4662 -0.1296
 5096TIP3    H236704   6.696   4.515   0.999  1.7933  1.0935  0.4383
 5097TIP3   OH236705   0.294   4.393  12.189  0.1243  0.0663  0.0103
 5097TIP3    H136706   0.384   4.368  12.210 -0.7101 -2.1492  1.1924
 5097TIP3    H236707   0.251   4.401  12.274 -0.8582  0.8162 -0.5497
 5098TIP3   OH236708   1.409   3.330  11.566 -0.2922 -0.5565  0.2287
 5098TIP3    H136709   1.340   3.309  11.629 -1.4275  1.3095 -0.3642
 5098TIP3    H236710   1.403   3.261  11.500 -1.7389 -0.2917  0.0721
 5099TIP3   OH236711   4.813   4.444   2.279  0.4632  0.0078 -0.0889
 5099TIP3    H136712   4.882   4.502   2.311  0.4774 -1.0558  1.8445
 5099TIP3    H236713   4.851   4.402   2.201  0.7664  1.8976 -0.9917
 5100TIP3   OH236714   0.411   1.696  12.457  0.0432  0.1630 -0.1135
 5100TIP3    H136715   0.379   1.713  12.545 -0.3512 -1.1497  0.0043
 5100TIP3    H236716   0.423   1.601  12.453 -0.8412  0.0922 -1.7712
 5101TIP3   OH236717   6.405   6.195  13.276 -0.1953 -0.3547  0.5891
 5101TIP3    H136718   6.492   6.210  13.239 -0.4646  1.4076  0.6506
 5101TIP3    H236719   6.384   6.275  13.323 -1.7398 -0.8814  0.8340
 5102TIP3   OH236720   1.319   0.550  12.183  0.3225 -0.1023 -0.1378
 5102TIP3    H136721   1.264   0.568  12.260  1.8084 -0.3075  0.9867
 5102TIP3    H236722   1.315   0.630  12.132  1.6225  1.0973  1.5911
 5103TIP3   OH236723   4.946   0.939  11.723 -1.3211 -0.3580  0.2401
 5103TIP3    H136724   5.039   0.931  11.747 -1.2471 -1.5723 -0.3567
 5103TIP3    H236725   4.913   0.849  11.730 -2.1534 -0.1279 -0.7011
 5104TIP3   OH236726   0.120   4.005  16.460 -0.4373  0.2004  0.3289
 5104TIP3    H136727   0.064   3.982  16.534  0.3493  1.0170  1.1823
 5104TIP3    H236728   0.180   4.071  16.494 -0.7911  1.4266 -1.3267
 5105TIP3   OH236729   5.054   4.259   4.439 -0.3088 -0.8937  0.0073
 5105TIP3    H136730   4.978   4.203   4.457  0.2884 -2.1705 -1.3021
 5105TIP3    H236731   5.113   4.203   4.388  0.9810  0.4658 -0.0190
 5106TIP3   OH236732   1.532   6.468   4.304  0.3020  0.0223 -0.2148
 5106TIP3    H136733   1.485   6.542   4.342  0.4809 -0.3675  0.7744
 5106TIP3    H236734   1.624   6.483   4.328  0.3942 -0.3045 -0.3571
 5107TIP3   OH236735   3.322   6.588   1.905  0.6000 -0.2533 -0.1350
 5107TIP3    H136736   3.403   6.627   1.939  0.9535 -1.8470  0.8804
 5107TIP3    H236737   3.285   6.542   1.980 -1.0743  0.1629 -0.6934
 5108TIP3   OH236738   1.910   1.022  12.959  0.2273 -0.0799 -0.3073
 5108TIP3    H136739   1.947   0.981  13.037 -0.4003 -2.7682 -1.3725
 5108TIP3    H236740   1.962   0.986  12.887  1.5046  3.1734 -1.0883
 5109TIP3   OH236741   4.374   2.098  15.011 -0.2133  0.0621  0.4935
 5109TIP3    H136742   4.317   2.072  15.083  2.8473 -1.1425  2.6051
 5109TIP3    H236743   4.371   2.193  15.011 -1.1196  0.0414  1.5127
 5110TIP3   OH236744   2.395   1.676  12.534  0.0007 -0.3158 -0.1560
 5110TIP3    H136745   2.322   1.630  12.575  0.1040  1.2475  1.8883
 5110TIP3    H236746   2.436   1.725  12.606  3.4479 -1.6552 -1.1028
 5111TIP3   OH236747   0.486   1.794  11.775  0.6372  0.2029  0.2560
 5111TIP3    H136748   0.557   1.733  11.793  1.5233  0.8630 -0.9239
 5111TIP3    H236749   0.434   1.750  11.707 -0.8203 -0.8305  1.9962
 5112TIP3   OH236750   2.786   2.912   0.779  0.4798 -0.3323 -0.2306
 5112TIP3    H136751   2.759   2.940   0.866 -2.4124  0.0148 -1.1828
 5112TIP3    H236752   2.852   2.976   0.752  0.4643  0.2891  1.1724
 5113TIP3   OH236753   6.041   1.738   2.872 -0.0365 -0.6864 -0.1109
 5113TIP3    H136754   5.965   1.739   2.814 -0.9812 -1.5151  1.0922
 5113TIP3    H236755   6.080   1.651   2.859 -1.0456 -1.3914  1.5005
 5114TIP3   OH236756   0.638   5.539   2.022 -0.8342 -0.1128 -0.1190
 5114TIP3    H136757   0.650   5.586   2.105  1.9631  0.5681 -0.8797
 5114TIP3    H236758   0.652   5.605   1.955  0.1263 -1.3796 -1.1773
 5115TIP3   OH236759   5.848   1.703   3.409  0.5240  0.3833  0.6903
 5115TIP3    H136760   5.792   1.641   3.362  1.6096 -1.2815  1.5147
 5115TIP3    H236761   5.848   1.671   3.499  2.6471  0.4169  0.7355
 5116TIP3   OH236762   3.475   2.228  15.928  0.1267 -0.1664 -0.5418
 5116TIP3    H136763   3.407   2.231  15.995  0.1281 -1.2130 -0.4879
 5116TIP3    H236764   3.431   2.256  15.848 -0.2328 -0.3046 -0.3948
 5117TIP3   OH236765   2.081   6.767  12.894  0.3387  0.3240 -0.2452
 5117TIP3    H136766   2.042   6.783  12.980  2.3020  0.2024  0.6935
 5117TIP3    H236767   2.007   6.772  12.833 -1.1719 -0.1532  1.4976
 5118TIP3   OH236768   2.102   2.028   1.783 -0.0776  0.1049 -0.1775
 5118TIP3    H136769   2.051   2.106   1.764 -0.0896  0.5868  1.8034
 5118TIP3    H236770   2.073   2.000   1.869  1.6064 -0.7356  0.1421
 5119TIP3   OH236771   6.106   5.339  11.673 -0.4308  0.1630 -0.5576
 5119TIP3    H136772   6.033   5.304  11.723 -0.1730 -0.2573 -0.4762
 5119TIP3    H236773   6.182   5.288  11.702 -0.1609  0.3862 -0.8679
 5120TIP3   OH236774   6.237   0.619   1.584 -0.1010  0.1000  0.8247
 5120TIP3    H136775   6.210   0.653   1.669  1.2447 -0.1725  1.3799
 5120TIP3    H236776   6.323   0.579   1.600 -0.1408 -0.5719 -0.5141
 5121TIP3   OH236777   1.612   1.251   6.007  0.2407  0.0661  0.0100
 5121TIP3    H136778   1.676   1.308   5.964 -0.1256 -0.4487 -1.2309
 5121TIP3    H236779   1.566   1.207   5.935 -2.5575  1.5355  0.7992
 5122TIP3   OH236780   5.172   1.003   3.157  0.2196 -0.0130  0.0782
 5122TIP3    H136781   5.164   0.994   3.062 -1.7828  1.1738  0.1093
 5122TIP3    H236782   5.204   1.092   3.170  0.2074 -0.0748  0.5288
 5123TIP3   OH236783   5.043   2.069   4.614 -0.4470 -0.1658 -0.6817
 5123TIP3    H136784   5.076   1.995   4.565 -0.3667 -1.5337  1.3735
 5123TIP3    H236785   5.120   2.105   4.659 -0.6105  0.7349 -1.0958
 5124TIP3   OH236786   0.883   3.111   2.025 -0.3695 -0.5694 -0.2860
 5124TIP3    H136787   0.953   3.046   2.031  1.2298  0.9398 -1.9596
 5124TIP3    H236788   0.827   3.080   1.954  0.4979 -0.0682 -1.2113
 5125TIP3   OH236789   6.118   3.908  12.172  0.3238  0.1059  0.3889
 5125TIP3    H136790   6.045   3.969  12.173  0.1768 -0.0802  0.8653
 5125TIP3    H236791   6.098   3.844  12.240 -0.6967 -1.8771 -1.7109
 5126TIP3   OH236792   3.679   4.651   2.095 -0.2454  0.5368 -0.2255
 5126TIP3    H136793   3.744   4.703   2.143  1.4265 -1.1304 -0.5931
 5126TIP3    H236794   3.726   4.571   2.071 -2.1878 -0.3115 -1.3258
 5127TIP3   OH236795   2.372   1.258  15.816  0.0782  0.3401 -0.6111
 5127TIP3    H136796   2.452   1.205  15.815  1.1756  1.8998  1.7720
 5127TIP3    H236797   2.305   1.200  15.853  0.8822  0.0898  0.4608
 5128TIP3   OH236798   3.793   1.279   3.532 -0.0200 -0.1227  0.5552
 5128TIP3    H136799   3.728   1.339   3.497 -1.4902 -1.3502  1.1071
 5128TIP3    H236800   3.800   1.210   3.466  0.3747 -0.2431  0.7198
 5129TIP3   OH236801   0.018   0.520  16.126  0.1572 -0.0460  0.1237
 5129TIP3    H136802  -0.055   0.580  16.110  1.1349  1.3315  0.7378
 5129TIP3    H236803   0.078   0.535  16.053  0.3558 -0.3629  0.2195
 5130TIP3   OH236804   2.193   1.500   3.182  0.5280  0.1138  0.1964
 5130TIP3    H136805   2.259   1.489   3.251  0.4571 -2.0674 -0.0640
 5130TIP3    H236806   2.118   1.539   3.227  1.6100  1.6970  0.6922
 5131TIP3   OH236807   0.280   5.072  16.727 -0.1036  0.5400  0.4199
 5131TIP3    H136808   0.371   5.061  16.754  0.1778  1.0033 -0.3433
 5131TIP3    H236809   0.273   5.164  16.702 -1.1693  0.8990  1.9316
 5132TIP3   OH236810   3.729   5.188  10.510 -0.2325  0.0439  0.0174
 5132TIP3    H136811   3.660   5.253  10.521  0.0924  0.5473 -0.8959
 5132TIP3    H236812   3.715   5.153  10.422  0.1732 -0.4504  0.1445
 5133TIP3   OH236813   4.267   1.457   5.460  0.0757  0.3338 -0.0158
 5133TIP3    H136814   4.334   1.503   5.409  1.5043 -1.3502  0.2770
 5133TIP3    H236815   4.315   1.386   5.503 -2.1507 -1.7366 -0.8589
 5134TIP3   OH236816   1.800   4.193  13.099 -0.2628 -0.1485  0.2229
 5134TIP3    H136817   1.852   4.121  13.135  0.4946  0.4882  0.4134
 5134TIP3    H236818   1.816   4.190  13.005  1.2045  0.8661  0.4121
 5135TIP3   OH236819   0.755   4.991   1.524  0.2680  0.7546 -0.4533
 5135TIP3    H136820   0.707   4.916   1.560  0.8452 -0.0959 -1.4492
 5135TIP3    H236821   0.777   4.965   1.434  0.2814  2.2035 -0.8780
 5136TIP3   OH236822   5.871   1.791   2.658  0.0646  0.3292  0.7638
 5136TIP3    H136823   5.942   1.815   2.598 -0.4434 -1.2928 -0.5092
 5136TIP3    H236824   5.801   1.853   2.638  0.6132  1.0477  1.0590
 5137TIP3   OH236825   0.482   3.429  12.942  0.0957  0.2217  0.3304
 5137TIP3    H136826   0.513   3.351  12.895 -2.4615 -0.4996 -0.2380
 5137TIP3    H236827   0.387   3.426  12.933 -0.0720  3.1345  0.8013
 5138TIP3   OH236828   2.898   3.276   1.439  0.2497  0.4975 -0.2967
 5138TIP3    H136829   2.847   3.325   1.374 -2.0072 -1.3584  0.0260
 5138TIP3    H236830   2.860   3.302   1.523  0.4072 -0.2689  0.0090
 5139TIP3   OH236831   4.939   0.941  16.934 -0.5327  0.2674  0.5017
 5139TIP3    H136832   4.877   0.958  16.863  2.1966  1.2347 -1.7362
 5139TIP3    H236833   4.963   1.028  16.966 -1.4234 -0.1448  2.3941
 5140TIP3   OH236834   4.544   2.918  12.564  0.2009  0.2919 -0.0608
 5140TIP3    H136835   4.628   2.960  12.547  0.8271 -0.9202 -0.0059
 5140TIP3    H236836   4.566   2.837  12.610 -0.9359 -0.3846 -0.6784
 5141TIP3   OH236837   2.659   3.519  15.466  0.0706 -0.6007 -0.0561
 5141TIP3    H136838   2.746   3.558  15.471  0.2942 -1.0805 -0.1598
 5141TIP3    H236839   2.610   3.576  15.407  0.2764 -0.2576  0.1039
 5142TIP3   OH236840   2.281   2.290   3.743  0.6531 -0.0863 -0.5551
 5142TIP3    H136841   2.359   2.255   3.700  0.7223 -0.7280  0.0808
 5142TIP3    H236842   2.221   2.215   3.749  1.3656 -0.5028  2.1348
 5143TIP3   OH236843   0.177   4.364  10.736 -0.3407 -0.3301  0.5598
 5143TIP3    H136844   0.136   4.393  10.818 -1.0241 -0.2038  0.1771
 5143TIP3    H236845   0.103   4.342  10.679  0.1105  0.7735 -0.4652
 5144TIP3   OH236846   6.429   2.645  12.762  0.1096 -0.0038 -0.2670
 5144TIP3    H136847   6.464   2.715  12.817 -1.3081  0.1715  0.4329
 5144TIP3    H236848   6.420   2.685  12.675  0.6250  0.2588 -0.2007
 5145TIP3   OH236849   4.215   5.920  14.958 -0.1087 -0.4550  0.6317
 5145TIP3    H136850   4.284   5.855  14.947  0.4306 -0.2288  2.5134
 5145TIP3    H236851   4.177   5.900  15.043 -1.3811  0.3650  0.2716
 5146TIP3   OH236852   3.981   1.858   3.115 -0.0792  0.9111  0.6655
 5146TIP3    H136853   4.000   1.910   3.193  1.9192 -2.3898  2.5138
 5146TIP3    H236854   4.042   1.889   3.049 -0.7667  2.7053  0.8541
 5147TIP3   OH236855   5.644   0.572   0.784  0.2453 -0.4211 -0.7454
 5147TIP3    H136856   5.655   0.559   0.878 -0.0790  2.0154 -0.3349
 5147TIP3    H236857   5.559   0.534   0.764 -0.3508  0.3881  0.2303
 5148TIP3   OH236858   3.251   2.908   4.946 -0.4314  0.3742  0.0519
 5148TIP3    H136859   3.179   2.968   4.968 -0.2367  0.1608  1.2986
 5148TIP3    H236860   3.222   2.823   4.980 -0.7905 -0.3186 -1.8643
 5149TIP3   OH236861   2.866   4.129  16.500 -0.5099 -0.0070  0.1010
 5149TIP3    H136862   2.943   4.075  16.486 -0.0761  0.7431 -0.3933
 5149TIP3    H236863   2.886   4.179  16.580 -1.7025 -1.9788  1.6948
 5150TIP3   OH236864   0.872   4.169  13.952  0.3995 -0.1903  0.3080
 5150TIP3    H136865   0.936   4.213  13.897 -0.5601  0.4839 -0.2972
 5150TIP3    H236866   0.904   4.181  14.041 -0.1516  2.3231  0.2109
 5151TIP3   OH236867   2.813   2.180  12.442 -0.1020  0.4351  0.0513
 5151TIP3    H136868   2.724   2.196  12.475 -0.3515  0.7454 -0.7431
 5151TIP3    H236869   2.871   2.217  12.508 -0.6276  3.1983 -0.9789
 5152TIP3   OH236870   3.394   6.569  14.167  0.0247  0.1074  0.5002
 5152TIP3    H136871   3.481   6.559  14.206 -0.1404  0.8367  1.0819
 5152TIP3    H236872   3.335   6.567  14.242 -0.3945  0.3466  0.1728
 5153TIP3   OH236873   0.663   5.476  15.445  0.1679 -0.0259  0.1784
 5153TIP3    H136874   0.625   5.436  15.367  0.6075 -1.1023  0.5118
 5153TIP3    H236875   0.598   5.462  15.513 -0.0098  0.5021  0.1216
 5154TIP3   OH236876   2.272   5.205   2.442  0.1003  0.3954  0.2410
 5154TIP3    H136877   2.287   5.267   2.514 -0.2444 -0.6715  1.2413
 5154TIP3    H236878   2.192   5.158   2.466 -0.4257  0.5375 -1.2034
 5155TIP3   OH236879   6.131   1.187   1.575  0.0061 -0.8951  0.2385
 5155TIP3    H136880   6.149   1.118   1.638 -0.4487 -0.9141  0.3506
 5155TIP3    H236881   6.215   1.229   1.560  0.4904 -2.1388 -0.6209
 5156TIP3   OH236882   2.863   5.520   1.828 -0.2816  0.5205 -0.3513
 5156TIP3    H136883   2.916   5.593   1.858  1.6743 -0.7386 -0.6439
 5156TIP3    H236884   2.858   5.531   1.733 -2.1836  1.6850 -0.1439
 5157TIP3   OH236885   4.761   4.767   4.821  0.1525 -0.2831  0.2983
 5157TIP3    H136886   4.816   4.726   4.888  1.6345  0.4128 -0.4621
 5157TIP3    H236887   4.730   4.694   4.768 -1.0596 -0.8437  1.7371
 5158TIP3   OH236888   5.652   0.021   0.496  0.2812  0.0405 -0.7708
 5158TIP3    H136889   5.581   0.084   0.485  0.3116  0.0300 -1.0202
 5158TIP3    H236890   5.725   0.073   0.529 -0.0886 -0.0883  0.2692
 5159TIP3   OH236891   1.477   1.249  11.810 -0.3572  0.3548  0.5143
 5159TIP3    H136892   1.429   1.206  11.739  0.6963 -0.3438  0.2017
 5159TIP3    H236893   1.456   1.342  11.800  0.2740  0.3423 -1.1253
 5160TIP3   OH236894   0.085   5.681   3.668 -0.1113  0.1771  0.3954
 5160TIP3    H136895   0.021   5.729   3.721 -0.2545  1.9955 -1.3739
 5160TIP3    H236896   0.160   5.668   3.727 -2.4320 -2.9325  2.8244
 5161TIP3   OH236897   5.052   3.861   2.086 -0.2599  0.7985 -0.5731
 5161TIP3    H136898   5.145   3.862   2.109 -0.2213  1.8839 -0.7148
 5161TIP3    H236899   5.023   3.772   2.103  1.3541 -0.1816 -2.6981
 5162TIP3   OH236900   5.199   0.045  11.809  0.1122 -0.6365 -0.3353
 5162TIP3    H136901   5.124   0.068  11.863  0.2442  0.6671 -0.6653
 5162TIP3    H236902   5.247   0.128  11.799  1.3306 -1.3525 -0.5148
 5163TIP3   OH236903   0.490   4.412  14.814 -0.4008 -0.0952 -0.6475
 5163TIP3    H136904   0.440   4.490  14.791 -0.5463 -0.4221 -1.4356
 5163TIP3    H236905   0.426   4.353  14.853 -0.2207  0.3205  0.2893
 5164TIP3   OH236906   2.865   2.825   3.433  0.5176  0.0478 -0.0110
 5164TIP3    H136907   2.834   2.735   3.430  0.9657 -0.0815 -2.2295
 5164TIP3    H236908   2.952   2.821   3.393  1.4729  1.1231  1.8978
 5165TIP3   OH236909   2.382   0.241  16.703  0.7225 -0.5072  0.1757
 5165TIP3    H136910   2.401   0.268  16.613 -0.4960 -0.5749 -0.0966
 5165TIP3    H236911   2.328   0.312  16.738  0.2370 -1.0280  0.4904
 5166TIP3   OH236912   3.371   0.217  10.696 -0.3284 -0.1892  0.2244
 5166TIP3    H136913   3.293   0.170  10.666  0.4975 -0.7934 -1.0104
 5166TIP3    H236914   3.364   0.304  10.656 -0.4028 -0.2315  0.1460
 5167TIP3   OH236915   0.745   6.501  12.978 -0.2148  0.1872  0.6518
 5167TIP3    H136916   0.784   6.482  13.063 -0.3933  0.1673  0.7301
 5167TIP3    H236917   0.812   6.551  12.931 -0.0600  0.0697  0.7492
 5168TIP3   OH236918   2.579   1.715  16.628 -0.4538  0.0527  0.3640
 5168TIP3    H136919   2.586   1.776  16.554 -0.9465 -0.3603 -0.0210
 5168TIP3    H236920   2.534   1.765  16.696 -2.6815 -0.5191 -0.6509
 5169TIP3   OH236921   1.002   0.162  14.172  0.8820 -0.2799  0.2354
 5169TIP3    H136922   1.016   0.103  14.247  0.8473 -0.6240 -0.0251
 5169TIP3    H236923   1.075   0.144  14.113  0.8996 -0.0223  0.1785
 5170TIP3   OH236924   4.782   5.194  15.215  0.4472 -0.1492 -0.2565
 5170TIP3    H136925   4.850   5.213  15.149  1.6663  0.8111  1.2461
 5170TIP3    H236926   4.827   5.200  15.299 -1.2695 -0.6109  0.7246
 5171TIP3   OH236927   3.912   3.150  11.745  0.5528  0.0172 -0.6395
 5171TIP3    H136928   3.976   3.140  11.674  0.0365 -0.0331 -1.1002
 5171TIP3    H236929   3.827   3.144  11.702  0.2316  1.4349 -0.2322
 5172TIP3   OH236930   6.679   4.383  10.971  0.2685 -0.2819 -0.2420
 5172TIP3    H136931   6.682   4.349  10.881 -2.1290 -1.9513  0.2586
 5172TIP3    H236932   6.687   4.305  11.026 -3.2970  0.0804  0.9431
 5173TIP3   OH236933   2.497   3.580  13.525 -0.0012 -0.3881 -1.1258
 5173TIP3    H136934   2.503   3.489  13.495 -0.9422 -0.3387 -1.5046
 5173TIP3    H236935   2.403   3.597  13.528  0.0559 -0.3597  1.8194
 5174TIP3   OH236936   4.885   4.045  14.759 -0.4283  0.5639 -0.6185
 5174TIP3    H136937   4.813   4.080  14.811 -2.1339 -1.8443 -1.2480
 5174TIP3    H236938   4.964   4.070  14.807 -1.6582  3.1216  0.1710
 5175TIP3   OH236939   0.158   2.334  16.707 -0.3931  0.0974 -0.2540
 5175TIP3    H136940   0.245   2.373  16.695 -0.4633  0.0847 -0.8502
 5175TIP3    H236941   0.100   2.387  16.652 -0.8171  0.2822  0.3651
 5176TIP3   OH236942   1.253   4.625  16.773 -0.7729 -0.2362  0.4251
 5176TIP3    H136943   1.251   4.691  16.704  0.0111  0.9369  1.4811
 5176TIP3    H236944   1.339   4.584  16.766 -1.1128 -0.8752  0.0108
 5177TIP3   OH236945   6.235   4.072   0.258 -0.5212  0.3719 -0.4244
 5177TIP3    H136946   6.164   4.027   0.212  0.6217 -0.2490 -1.6179
 5177TIP3    H236947   6.315   4.032   0.224  0.4181  1.2651  0.6840
 5178TIP3   OH236948   6.729   2.745   4.208  0.5909  0.0118  0.2299
 5178TIP3    H136949   6.705   2.681   4.141 -1.6752  0.7108  0.3089
 5178TIP3    H236950   6.771   2.816   4.160 -0.0204  0.0103 -0.3178
 5179TIP3   OH236951   3.111   5.513  16.661 -0.1447 -0.3539  1.0740
 5179TIP3    H136952   3.077   5.582  16.718  0.0711  0.0774  0.6843
 5179TIP3    H236953   3.183   5.554  16.614 -0.7265 -0.5120  0.0193
 5180TIP3   OH236954   4.875   2.794  11.634 -0.1216  0.7395 -0.1212
 5180TIP3    H136955   4.809   2.763  11.572  0.4159 -0.6141 -0.0166
 5180TIP3    H236956   4.951   2.817  11.579 -0.6102  2.1421 -0.2268
 5181TIP3   OH236957   1.616   3.892  14.683  0.0859  0.1207 -0.2053
 5181TIP3    H136958   1.579   3.948  14.614  1.2893  1.0744 -0.0833
 5181TIP3    H236959   1.579   3.805  14.665 -0.2142  0.5204 -1.5886
 5182TIP3   OH236960   6.600   1.263   3.737  0.1225  0.2770 -0.3882
 5182TIP3    H136961   6.629   1.225   3.654  0.9134  0.4174 -0.1857
 5182TIP3    H236962   6.672   1.322   3.762  0.1817 -0.2578  0.7235
 5183TIP3   OH236963   0.057   1.831   4.875  0.2681  0.1932 -0.2118
 5183TIP3    H136964   0.002   1.776   4.820  1.7936 -1.6867  0.0811
 5183TIP3    H236965   0.007   1.843   4.955 -0.5168  0.1057 -0.6854
 5184TIP3   OH236966   2.941   6.042  10.961 -0.2805 -0.0990 -0.4907
 5184TIP3    H136967   2.920   5.951  10.943 -2.5061 -0.0377  1.6144
 5184TIP3    H236968   2.858   6.089  10.950  0.9948  1.8235 -2.3739
 5185TIP3   OH236969   6.069   3.214  12.747 -0.4395 -0.3101  0.1452
 5185TIP3    H136970   6.014   3.152  12.796 -0.4278 -1.2616 -1.0362
 5185TIP3    H236971   6.007   3.279  12.714 -0.7138 -0.7694 -0.2544
 5186TIP3   OH236972   3.784   4.940   3.226  0.3053  0.1728 -0.3744
 5186TIP3    H136973   3.831   4.989   3.159  0.1873  2.2270  0.9929
 5186TIP3    H236974   3.818   4.851   3.219  2.0375  0.9009 -1.5576
 5187TIP3   OH236975   4.519   4.544   3.115 -0.7886 -0.1515 -0.3343
 5187TIP3    H136976   4.451   4.609   3.132  0.2902  1.4998 -2.1012
 5187TIP3    H236977   4.595   4.575   3.164 -0.2339 -0.0135 -1.2718
 5188TIP3   OH236978   0.854   1.016   4.015 -0.0006  0.1322  0.0114
 5188TIP3    H136979   0.852   1.079   4.086  1.5209 -0.4812  0.6192
 5188TIP3    H236980   0.897   0.939   4.052  1.3845  0.0314 -1.7365
 5189TIP3   OH236981   4.035   4.562   1.571 -0.3150 -0.3127 -0.0503
 5189TIP3    H136982   4.105   4.626   1.559 -0.9361  0.3480 -0.2079
 5189TIP3    H236983   4.033   4.546   1.666 -0.4231  0.2086  0.0375
 5190TIP3   OH236984   2.060   5.252   2.880 -0.3510 -0.5055 -0.2657
 5190TIP3    H136985   1.969   5.248   2.849  0.3148 -1.2895 -2.1789
 5190TIP3    H236986   2.086   5.343   2.866 -0.3800 -0.6208 -1.1306
 5191TIP3   OH236987   2.258   1.628   5.570  0.3514  0.0722 -0.2330
 5191TIP3    H136988   2.351   1.630   5.594  0.1798  0.2365  0.4146
 5191TIP3    H236989   2.259   1.635   5.474  1.0182 -0.2275 -0.2558
 5192TIP3   OH236990   5.622   3.086  13.231  0.3190  0.5599  0.2250
 5192TIP3    H136991   5.700   3.136  13.205  1.7482 -2.1414 -0.8906
 5192TIP3    H236992   5.631   3.003  13.184 -2.7040 -0.2045  0.9492
 5193TIP3   OH236993   4.048   5.575   0.431  0.3055  0.0366 -0.7609
 5193TIP3    H136994   4.034   5.582   0.337 -1.7172 -0.3453 -0.5077
 5193TIP3    H236995   4.059   5.665   0.460 -2.1910  0.4275 -0.9262
 5194TIP3   OH236996   5.861   0.572  13.818 -0.2462  0.1726  0.2409
 5194TIP3    H136997   5.819   0.657  13.829 -0.1119  0.2401  0.2268
 5194TIP3    H236998   5.939   0.577  13.874 -0.1478  0.1187  0.1069
 5195TIP3   OH236999   1.476   2.578  16.171 -0.4854 -0.2412  0.1003
 5195TIP3    H137000   1.470   2.636  16.247  2.0658  1.7482 -1.1343
 5195TIP3    H237001   1.413   2.614  16.109 -0.0578  0.2590 -0.0498
 5196TIP3   OH237002   2.087   2.999   0.543  0.5937 -0.5766 -0.0595
 5196TIP3    H137003   2.004   3.044   0.528  0.8938 -0.3792 -1.1186
 5196TIP3    H237004   2.153   3.053   0.500  1.1499 -1.2428 -0.0566
 5197TIP3   OH237005   1.420   2.686  13.993 -0.6015  0.3192 -0.0864
 5197TIP3    H137006   1.420   2.677  13.898  1.4260  1.4999 -0.2323
 5197TIP3    H237007   1.425   2.596  14.027  1.6959  0.0283 -1.1510
 5198TIP3   OH237008   5.981   1.476  12.591  0.9207  1.0353  0.2235
 5198TIP3    H137009   6.070   1.480  12.625  0.8387  0.5120  0.5027
 5198TIP3    H237010   5.926   1.459  12.667  0.7354 -0.1328 -0.1685
 5199TIP3   OH237011   3.743   2.498  11.701  0.0060 -0.3849 -0.1737
 5199TIP3    H137012   3.672   2.482  11.763  0.4321 -0.6839  0.2374
 5199TIP3    H237013   3.735   2.591  11.678 -0.7251 -0.4968 -0.3903
 5200TIP3   OH237014   6.248   3.300   1.541 -0.2288 -1.0158 -0.7021
 5200TIP3    H137015   6.205   3.384   1.525  0.0975 -0.6102  0.4657
 5200TIP3    H237016   6.179   3.235   1.529 -0.5200 -0.5658 -1.4706
 5201TIP3   OH237017   3.794   5.797   5.593  0.4432 -0.0186  0.0247
 5201TIP3    H137018   3.809   5.803   5.499 -0.4631 -2.5730 -0.3096
 5201TIP3    H237019   3.719   5.855   5.609  0.1493 -0.1323 -0.9393
 5202TIP3   OH237020   3.541   0.433   6.162 -0.8592 -0.2987  0.1687
 5202TIP3    H137021   3.479   0.501   6.136 -0.2606  0.7192  1.3599
 5202TIP3    H237022   3.491   0.378   6.222 -1.3070 -0.8481 -0.6991
 5203TIP3   OH237023   5.761   1.483   4.353 -0.4897 -0.5215  0.1695
 5203TIP3    H137024   5.813   1.461   4.276 -1.0290 -0.4293 -0.2238
 5203TIP3    H237025   5.779   1.412   4.415 -1.0917 -1.3186 -0.5501
 5204TIP3   OH237026   0.508   6.174  13.110  0.4058  0.0267  0.5138
 5204TIP3    H137027   0.416   6.159  13.130  0.0898  1.0428 -0.1378
 5204TIP3    H237028   0.549   6.194  13.194 -0.1926  0.7136  0.6347
 5205TIP3   OH237029   1.592   1.733  12.400  0.3232  0.3656  0.2260
 5205TIP3    H137030   1.649   1.702  12.330 -0.3698 -0.8153  0.1698
 5205TIP3    H237031   1.652   1.761  12.469  0.9851 -1.8651  0.5950
 5206TIP3   OH237032   6.479   4.984   1.983 -0.9227  0.3452 -0.6562
 5206TIP3    H137033   6.542   5.052   2.006 -0.6007 -0.0282 -0.4270
 5206TIP3    H237034   6.448   5.009   1.896 -0.9986  0.9234 -0.4678
 5207TIP3   OH237035   5.474   3.112   3.145  0.2597 -0.2513  0.2121
 5207TIP3    H137036   5.567   3.135   3.146 -0.2624  2.0224 -0.6157
 5207TIP3    H237037   5.433   3.173   3.206 -0.6274 -1.5466  0.9229
 5208TIP3   OH237038   2.699   3.682  13.338  0.2567  0.2173  0.0736
 5208TIP3    H137039   2.778   3.655  13.385  1.0389  0.9567 -0.8005
 5208TIP3    H237040   2.629   3.669  13.401  1.1159 -0.1700  0.9666
 5209TIP3   OH237041   0.252   1.642   2.704  0.1078  0.0443  0.2379
 5209TIP3    H137042   0.225   1.663   2.614  1.5161  0.9033 -0.0086
 5209TIP3    H237043   0.319   1.574   2.694 -0.3755 -0.5119  0.7052
 5210TIP3   OH237044   2.549   6.661  13.347 -0.5112 -0.2218  0.1109
 5210TIP3    H137045   2.578   6.686  13.435 -2.4332  1.2912  0.3506
 5210TIP3    H237046   2.630   6.648  13.298  0.5871  0.3084  1.7319
 5211TIP3   OH237047   3.325   4.352   1.376 -0.1397 -0.1605  0.1681
 5211TIP3    H137048   3.381   4.329   1.302  0.3834 -0.2199  0.5831
 5211TIP3    H237049   3.368   4.313   1.452 -0.5507  0.0981  0.5338
 5212TIP3   OH237050   0.904   2.156  14.697 -0.4215 -0.0762  0.4895
 5212TIP3    H137051   0.891   2.250  14.688 -1.2044 -0.0724  1.5129
 5212TIP3    H237052   0.920   2.125  14.607  3.1362  1.4629  0.5399
 5213TIP3   OH237053   6.402   6.141  12.875  0.5301  0.1730  0.2959
 5213TIP3    H137054   6.397   6.078  12.803 -0.4602 -1.5166  1.7959
 5213TIP3    H237055   6.363   6.221  12.839 -0.4378 -0.7987 -0.8866
 5214TIP3   OH237056   6.766   4.310  12.143  0.2319 -0.0320 -0.6705
 5214TIP3    H137057   6.786   4.374  12.075 -1.0615 -0.1834 -1.2009
 5214TIP3    H237058   6.705   4.249  12.101  1.6232 -1.7567 -0.2665
 5215TIP3   OH237059   3.097   0.949   3.581 -0.3680  0.3205 -0.2576
 5215TIP3    H137060   3.092   0.890   3.506  0.5268  0.5649 -0.5250
 5215TIP3    H237061   3.083   1.037   3.544  0.8231  0.5161 -0.2685
 5216TIP3   OH237062   2.440   0.400  14.165 -0.0933  0.2500 -0.1987
 5216TIP3    H137063   2.353   0.381  14.200  0.0077 -0.0397 -0.1048
 5216TIP3    H237064   2.449   0.495  14.174  0.0763  0.1420  0.9088
 5217TIP3   OH237065   3.581   1.736   2.117 -0.4844 -0.3801  0.2659
 5217TIP3    H137066   3.522   1.734   2.041 -1.5427  0.7515  1.0261
 5217TIP3    H237067   3.522   1.729   2.192  0.4317  0.0127  1.0274
 5218TIP3   OH237068   0.025   0.173  11.507  0.0963  0.6027  0.6829
 5218TIP3    H137069   0.038   0.079  11.491 -1.3394  0.4931  0.0849
 5218TIP3    H237070  -0.043   0.176  11.575 -0.6748  1.2176 -0.1058
 5219TIP3   OH237071   2.145   5.872  12.503 -0.0276  0.3804  0.4017
 5219TIP3    H137072   2.198   5.921  12.566 -0.6435  0.3494  0.9503
 5219TIP3    H237073   2.208   5.816  12.457  0.6812  1.6704 -0.2245
 5220TIP3   OH237074   6.173   1.308   4.122 -0.0521  0.0736  0.2020
 5220TIP3    H137075   6.248   1.293   4.065 -0.0456 -1.0655  0.4972
 5220TIP3    H237076   6.190   1.395   4.161  0.5521  0.3112 -0.5685
 5221TIP3   OH237077   0.351   5.510   3.728  0.6441  0.6468 -0.4904
 5221TIP3    H137078   0.442   5.485   3.713  0.5192 -1.5193  2.0803
 5221TIP3    H237079   0.354   5.570   3.803 -0.2262 -1.2764  1.1256
 5222TIP3   OH237080   2.751   5.054  14.809  0.0262 -0.3411  0.1422
 5222TIP3    H137081   2.788   5.045  14.721  0.1223 -2.0233  0.3226
 5222TIP3    H237082   2.803   4.994  14.862 -1.1360 -0.6098  0.9855
 5223TIP3   OH237083   1.807   1.910  13.928  0.5882 -0.0865 -0.2138
 5223TIP3    H137084   1.869   1.856  13.880 -0.2523  0.2761 -1.7269
 5223TIP3    H237085   1.736   1.850  13.952  0.7746 -0.1586  0.1695
 5224TIP3   OH237086   4.662   6.182   0.078 -0.2018 -0.2170 -0.2495
 5224TIP3    H137087   4.618   6.097   0.089  0.3710 -0.3350  1.3280
 5224TIP3    H237088   4.698   6.179  -0.011  1.2984 -2.3485  0.3768
 5225TIP3   OH237089   6.597   6.435  15.917  0.4017 -0.2755  0.0213
 5225TIP3    H137090   6.527   6.371  15.929  1.0155 -1.0816 -0.7548
 5225TIP3    H237091   6.567   6.490  15.844 -0.2254  0.4789  0.8283
 5226TIP3   OH237092   4.214   4.096  10.891 -0.2583 -0.3194  0.2226
 5226TIP3    H137093   4.250   4.181  10.863  1.3460 -0.3834  1.9537
 5226TIP3    H237094   4.275   4.032  10.855 -0.5283 -0.6479  0.3554
 5227TIP3   OH237095   5.618   5.043   4.368 -0.7123  0.3695  0.5634
 5227TIP3    H137096   5.535   5.007   4.397 -0.2034  0.4140  2.1020
 5227TIP3    H237097   5.676   4.967   4.362 -0.9225  0.2907 -0.8135
 5228TIP3   OH237098   3.067   6.024  13.300  0.3863  0.2731  0.1320
 5228TIP3    H137099   3.054   6.118  13.294  2.4586  0.5441 -0.5338
 5228TIP3    H237100   3.011   5.987  13.231  0.9312  1.1480 -0.7778
 5229TIP3   OH237101   5.128   5.275  13.290 -0.1173  0.3682 -0.1672
 5229TIP3    H137102   5.062   5.215  13.257  1.1120  0.3628 -2.7789
 5229TIP3    H237103   5.205   5.220  13.307 -0.2000  0.6393  1.1171
 5230TIP3   OH237104   1.232   0.288   5.613  0.0694 -0.1075 -0.1312
 5230TIP3    H137105   1.220   0.245   5.529  1.1088 -0.0916 -0.2973
 5230TIP3    H237106   1.264   0.219   5.672 -1.0347 -0.2111  0.3605
 5231TIP3   OH237107   3.045   3.817  16.133  0.2429 -0.0669 -0.3077
 5231TIP3    H137108   3.137   3.790  16.131  0.3930  0.2079  1.9479
 5231TIP3    H237109   3.045   3.899  16.182 -1.2683 -0.2706  0.0470
 5232TIP3   OH237110   6.318   0.587  11.878  0.5068 -0.5018  0.4098
 5232TIP3    H137111   6.402   0.629  11.897 -1.3405  2.3251  2.6683
 5232TIP3    H237112   6.297   0.537  11.956 -1.1089  0.9516  0.9567
 5233TIP3   OH237113   1.700   5.739  13.271 -0.0030  0.2572  0.3644
 5233TIP3    H137114   1.616   5.736  13.316  0.9053  1.3868  2.2091
 5233TIP3    H237115   1.764   5.722  13.339  1.4232  2.1457 -0.4517
 5234TIP3   OH237116   4.107   4.327  16.446 -0.1525 -0.6025 -0.3275
 5234TIP3    H137117   4.073   4.268  16.379 -0.7054 -0.3016 -0.3139
 5234TIP3    H237118   4.118   4.411  16.402  2.4672 -1.1809 -0.8390
 5235TIP3   OH237119   2.822   2.030  11.327 -0.1149  0.8844 -0.3149
 5235TIP3    H137120   2.739   2.057  11.367  0.4093  0.7607  0.8663
 5235TIP3    H237121   2.807   2.038  11.233 -1.8994 -0.3640 -0.1646
 5236TIP3   OH237122   3.935   5.773   0.999 -0.6181  0.1475 -0.9114
 5236TIP3    H137123   3.973   5.703   0.944 -0.8392 -1.1093  0.4987
 5236TIP3    H237124   3.907   5.728   1.079  0.5008  2.0747  0.6221
 5237TIP3   OH237125   1.289   0.434  13.990  0.4139 -0.1028  0.4214
 5237TIP3    H137126   1.261   0.502  13.929  0.9664 -0.4018 -0.1691
 5237TIP3    H237127   1.384   0.443  13.994  0.3486  0.2029  1.5868
 5238TIP3   OH237128   5.044   3.815  13.732  0.2751 -0.6837 -0.2593
 5238TIP3    H137129   5.071   3.898  13.771  0.0465 -0.9193  0.4025
 5238TIP3    H237130   4.961   3.835  13.688  1.1084 -0.1502 -1.6042
 5239TIP3   OH237131   5.283   1.241   5.767  0.1502  0.1265  0.0536
 5239TIP3    H137132   5.272   1.317   5.825 -0.6320 -1.0298  1.4467
 5239TIP3    H237133   5.244   1.168   5.815  0.4218 -1.0690 -1.4972
 5240TIP3   OH237134   3.862   4.383   2.975 -0.0645  0.4567  0.5266
 5240TIP3    H137135   3.907   4.451   2.926  1.1396  0.4002  1.5373
 5240TIP3    H237136   3.793   4.428   3.023  0.4460  0.9024  0.8425
 5241TIP3   OH237137   3.377   2.909  13.295  0.1280 -0.0508  0.2646
 5241TIP3    H137138   3.466   2.891  13.265 -1.1028 -3.4819 -1.7509
 5241TIP3    H237139   3.353   2.831  13.346 -2.3742 -0.1490 -0.9722
 5242TIP3   OH237140   0.571   5.243   6.203 -0.0694 -0.8260  0.0706
 5242TIP3    H137141   0.555   5.338   6.198  0.7316 -0.7101 -0.5155
 5242TIP3    H237142   0.486   5.205   6.222 -0.5863 -0.0614 -0.6669
 5243TIP3   OH237143   4.316   0.795  16.397  0.2103 -0.2517 -0.3573
 5243TIP3    H137144   4.326   0.805  16.492  0.2533 -0.0945 -0.3787
 5243TIP3    H237145   4.221   0.804  16.382  0.2337 -0.0044 -0.3607
 5244TIP3   OH237146   4.766   6.073  16.466  0.3056 -0.6350 -0.1610
 5244TIP3    H137147   4.713   6.149  16.442  1.5613 -0.0496 -1.1917
 5244TIP3    H237148   4.717   5.998  16.432 -0.7448 -0.2547  0.4974
 5245TIP3   OH237149   2.550   0.841  10.904 -0.3797 -0.7594 -0.2804
 5245TIP3    H137150   2.605   0.918  10.888 -0.0092 -1.2416 -1.3294
 5245TIP3    H237151   2.600   0.767  10.870 -0.7618 -1.4687  0.6722
 5246TIP3   OH237152   5.941   0.322  15.489  0.0206  0.4448 -0.3901
 5246TIP3    H137153   6.006   0.253  15.480 -1.0060 -0.3650 -1.8295
 5246TIP3    H237154   5.881   0.308  15.416 -0.2087  2.8649 -0.7070
 5247TIP3   OH237155   4.555   0.926  15.153 -0.1144  0.1104 -0.1381
 5247TIP3    H137156   4.624   0.882  15.203 -0.1492 -0.0580 -0.2393
 5247TIP3    H237157   4.516   0.857  15.100  0.4435  0.4212 -0.9813
 5248TIP3   OH237158   3.554   1.558   2.397 -0.0622 -0.2386 -0.5754
 5248TIP3    H137159   3.638   1.566   2.441 -0.7026  2.0964  0.2993
 5248TIP3    H237160   3.570   1.497   2.325  2.0449 -0.7955  0.3422
 5249TIP3   OH237161   1.790   2.291   3.839  0.1685  0.0796  0.0685
 5249TIP3    H137162   1.833   2.317   3.758 -0.0226  0.6511  0.1431
 5249TIP3    H237163   1.787   2.372   3.891  0.0094 -0.2091  0.5144
 5250TIP3   OH237164   3.092   4.189  16.942  0.0504 -0.8686 -0.1308
 5250TIP3    H137165   3.123   4.269  16.983 -3.2961  0.4109  0.0150
 5250TIP3    H237166   3.112   4.120  17.005  3.6405 -0.3572 -0.5807
 5251TIP3   OH237167   2.538   2.093   1.521  0.3042  0.2048 -0.0140
 5251TIP3    H137168   2.619   2.145   1.523  0.4011  0.1279 -1.4386
 5251TIP3    H237169   2.567   2.004   1.504  0.0830 -0.2491  1.7930
 5252TIP3   OH237170   0.476   6.290  16.448  0.1844  0.1841 -0.4457
 5252TIP3    H137171   0.481   6.368  16.394 -0.4903  1.2970  1.0795
 5252TIP3    H237172   0.540   6.305  16.518 -1.0854  0.1081  0.7607
 5253TIP3   OH237173   2.472   2.735  16.991 -0.1620  0.0090 -0.1159
 5253TIP3    H137174   2.455   2.706  17.081 -0.3238 -2.2795 -0.8709
 5253TIP3    H237175   2.565   2.720  16.978 -0.2317 -0.0987 -0.4960
 5254TIP3   OH237176   5.268   0.835  12.696  0.3999 -0.5518  0.3462
 5254TIP3    H137177   5.254   0.921  12.656 -0.0661 -0.9838 -0.4195
 5254TIP3    H237178   5.182   0.807  12.725  0.3731 -1.2243 -0.3521
 5255TIP3   OH237179   5.525   3.763   5.076 -0.2407 -0.0530  0.3416
 5255TIP3    H137180   5.456   3.700   5.099 -0.2210  0.1265  0.9169
 5255TIP3    H237181   5.489   3.813   5.003 -0.1033 -0.9954 -0.3847
 5256TIP3   OH237182   6.286   0.539  16.209  0.0765  0.6531 -0.0351
 5256TIP3    H137183   6.375   0.527  16.240  0.1211  1.8784  0.3094
 5256TIP3    H237184   6.295   0.558  16.115  0.3112  2.6667  0.3770
 5257TIP3   OH237185   1.341   5.772   5.911 -0.1271  0.2740 -0.2105
 5257TIP3    H137186   1.410   5.788   5.975 -0.5563 -0.3097  0.3941
 5257TIP3    H237187   1.289   5.702   5.948 -0.0999 -0.3975 -1.4161
 5258TIP3   OH237188   5.652   2.754  14.441 -0.2131  0.5722 -0.5286
 5258TIP3    H137189   5.610   2.754  14.355 -0.8646 -0.6176 -0.2298
 5258TIP3    H237190   5.581   2.733  14.502  0.1914  1.6831  0.3315
 5259TIP3   OH237191   1.803   0.285   5.104 -0.2861  0.1020  0.4340
 5259TIP3    H137192   1.844   0.296   5.190  2.6708 -0.3802 -0.8344
 5259TIP3    H237193   1.724   0.338   5.108 -0.3316 -0.0982  3.5197
 5260TIP3   OH237194   1.560   0.863   2.073  0.2306 -0.4234  0.2997
 5260TIP3    H137195   1.571   0.951   2.039 -0.9684 -0.2727  0.2785
 5260TIP3    H237196   1.510   0.874   2.153 -2.2109 -1.2729 -1.0439
 5261TIP3   OH237197   4.841   4.729   5.478 -0.6128 -0.3571 -0.4392
 5261TIP3    H137198   4.882   4.705   5.561 -0.9915  0.1046 -0.1180
 5261TIP3    H237199   4.888   4.807   5.449  0.3729 -1.2429 -1.3013
 5262TIP3   OH237200   0.809   3.319   3.451  0.2684  0.1023  0.1337
 5262TIP3    H137201   0.776   3.292   3.537  0.1262 -0.2274 -0.0250
 5262TIP3    H237202   0.821   3.237   3.403 -0.6358  0.3484 -0.5227
 5263TIP3   OH237203   2.260   0.981  16.950  0.4628 -0.9100 -0.2444
 5263TIP3    H137204   2.283   1.044  16.882  0.1921  1.9934  2.2429
 5263TIP3    H237205   2.338   0.928  16.961  2.5168  2.2060  0.9773
 5264TIP3   OH237206   5.702   2.137   3.002  0.3962  0.1788  0.8092
 5264TIP3    H137207   5.704   2.150   2.907 -2.5836  1.6972  0.8669
 5264TIP3    H237208   5.655   2.055   3.014  0.6662  0.0468  0.9606
 5265TIP3   OH237209   3.050   1.143  16.301 -0.4608 -0.3489  0.6216
 5265TIP3    H137210   3.055   1.055  16.338 -0.3170  0.2672  2.0923
 5265TIP3    H237211   2.987   1.135  16.228 -2.1947 -1.1793  2.1707
 5266TIP3   OH237212   4.354   2.836   2.559 -0.7281  0.8105  0.4556
 5266TIP3    H137213   4.340   2.829   2.654 -0.8618 -0.2937  0.3623
 5266TIP3    H237214   4.373   2.929   2.545  1.3815  0.6376  1.8674
 5267TIP3   OH237215   1.535   1.838  13.755  0.9736  0.5431  0.5586
 5267TIP3    H137216   1.572   1.847  13.843  1.5169 -0.8494  0.4909
 5267TIP3    H237217   1.595   1.777  13.710  0.3804  0.7870 -0.5810
 5268TIP3   OH237218   6.470   0.482  13.701 -0.0255  0.0015  0.5362
 5268TIP3    H137219   6.476   0.398  13.656  0.8626  0.2338  0.2074
 5268TIP3    H237220   6.463   0.546  13.630  0.3261  0.2865  0.7543
 5269TIP3   OH237221   1.813   0.728  13.985 -0.2996 -0.3533  0.5676
 5269TIP3    H137222   1.819   0.669  14.060 -0.9029 -0.9662  0.1353
 5269TIP3    H237223   1.889   0.706  13.931  0.0451 -0.0232  0.9169
 5270TIP3   OH237224   1.118   3.129   5.955 -0.0092  0.7665  0.0770
 5270TIP3    H137225   1.124   3.183   6.033  0.4350  0.7135  0.0800
 5270TIP3    H237226   1.153   3.183   5.885 -0.2872  0.7665 -0.0640
 5271TIP3   OH237227   5.851   6.681   2.649  0.2042  0.0509  0.1648
 5271TIP3    H137228   5.919   6.632   2.695  1.5525  0.6431 -1.1559
 5271TIP3    H237229   5.856   6.769   2.685  0.4030  0.1937 -0.2080
 5272TIP3   OH237230   0.380   5.607  10.365 -0.0952  0.8013 -0.0395
 5272TIP3    H137231   0.349   5.692  10.396  0.2151  1.3864 -1.3154
 5272TIP3    H237232   0.474   5.618  10.354 -0.0915  0.3791 -0.4661
 5273TIP3   OH237233   3.214   3.521  15.856 -0.5803  0.1825 -0.3043
 5273TIP3    H137234   3.243   3.484  15.772 -1.7244 -0.9962 -0.1924
 5273TIP3    H237235   3.200   3.445  15.912 -0.1162  0.9494  0.8800
 5274TIP3   OH237236   6.353   4.647  12.512  0.1562  0.4172  0.4327
 5274TIP3    H137237   6.361   4.662  12.418 -0.7302  0.5112  0.3652
 5274TIP3    H237238   6.297   4.718  12.543  2.1808  1.6471  1.3956
 5275TIP3   OH237239   3.914   5.652  12.351  0.0450 -0.4461  0.0117
 5275TIP3    H137240   3.955   5.708  12.417  2.5421 -1.8639 -0.2973
 5275TIP3    H237241   3.853   5.597  12.401 -0.0842  0.3446  0.7421
 5276TIP3   OH237242   1.986   0.293  17.137  1.0249  0.7437  0.0651
 5276TIP3    H137243   1.980   0.200  17.159 -0.0519  0.6865 -0.4797
 5276TIP3    H237244   1.944   0.301  17.052  1.7862  1.6097 -0.2434
 5277TIP3   OH237245   4.004   5.301  14.517 -0.0015  0.5727  0.4853
 5277TIP3    H137246   4.003   5.397  14.517 -0.0219  0.5728  0.4913
 5277TIP3    H237247   3.924   5.276  14.469 -0.5805  0.5456  1.4579
 5278TIP3   OH237248   5.866   0.374  16.622 -0.0444 -0.0339  0.3406
 5278TIP3    H137249   5.806   0.442  16.593 -0.1232 -0.3698 -0.2971
 5278TIP3    H237250   5.875   0.316  16.547 -0.1471 -0.8496  0.9471
 5279TIP3   OH237251   6.303   1.140  11.821  0.2099 -0.0865  0.1196
 5279TIP3    H137252   6.366   1.070  11.801  1.1855  0.3567  1.5443
 5279TIP3    H237253   6.259   1.110  11.900 -1.1710 -0.2399 -0.6930
 5280TIP3   OH237254   4.771   0.627   1.408  0.2593  0.9002 -0.3033
 5280TIP3    H137255   4.761   0.599   1.317 -0.2727  0.1055 -0.0025
 5280TIP3    H237256   4.764   0.722   1.405  2.5208  1.0549 -1.3962
 5281TIP3   OH237257   6.475   5.599   6.007  0.1503  0.0484  0.2576
 5281TIP3    H137258   6.408   5.666   6.022  0.4400  0.9526 -2.2708
 5281TIP3    H237259   6.557   5.643   6.028  0.2858  0.3042 -0.7764
 5282TIP3   OH237260   3.163   6.744   2.554 -0.1548 -1.0184 -0.1505
 5282TIP3    H137261   3.212   6.684   2.610  1.0770  0.9118  0.8872
 5282TIP3    H237262   3.193   6.831   2.580 -1.5651  0.0361 -1.9485
 5283TIP3   OH237263   1.399   3.641   2.989 -0.4042  0.2666 -1.0648
 5283TIP3    H137264   1.479   3.654   3.040 -0.8279 -1.6771  0.1343
 5283TIP3    H237265   1.420   3.677   2.903  1.1341  1.4147 -0.2505
 5284TIP3   OH237266   6.359   4.733  11.283  0.3366 -0.3634 -0.4503
 5284TIP3    H137267   6.451   4.745  11.261 -0.3804  0.4752 -3.2721
 5284TIP3    H237268   6.324   4.822  11.291 -0.1562 -0.6715  1.0573
 5285TIP3   OH237269   1.411   5.046   2.196  0.5801  0.0762  0.0176
 5285TIP3    H137270   1.402   4.961   2.239  0.5380 -0.0804 -0.3055
 5285TIP3    H237271   1.368   5.107   2.256  0.5444 -0.1404  0.2128
 5286TIP3   OH237272   0.971   6.642  16.484  0.3709 -0.4979  0.2304
 5286TIP3    H137273   1.066   6.648  16.495  0.3265 -0.1439  0.4330
 5286TIP3    H237274   0.941   6.595  16.563  0.3522 -0.4112  0.2748
 5287TIP3   OH237275   1.139   4.381  14.781 -0.0076  0.1508  0.0676
 5287TIP3    H137276   1.219   4.360  14.733  1.4296  1.4471  1.8287
 5287TIP3    H237277   1.077   4.313  14.754  1.9938 -1.4917 -0.5553
 5288TIP3   OH237278   2.035   5.678  10.488  0.1609 -0.2700  0.0387
 5288TIP3    H137279   2.055   5.758  10.439 -0.6230 -0.9170 -1.3769
 5288TIP3    H237280   2.024   5.707  10.578  0.5774  1.1190 -0.3472
 5289TIP3   OH237281   6.669   1.049   2.876 -0.0231  0.1742  0.1216
 5289TIP3    H137282   6.759   1.050   2.844 -0.7783  0.6213 -2.0704
 5289TIP3    H237283   6.663   1.124   2.936  0.7810  0.7665 -0.5379
 5290TIP3   OH237284   0.648   0.321   2.063  0.3426 -0.7348 -0.1598
 5290TIP3    H137285   0.644   0.413   2.037  2.2166 -0.9208 -1.1682
 5290TIP3    H237286   0.581   0.278   2.010 -1.2372  0.1751  1.0271
 5291TIP3   OH237287   0.640   4.568  11.302 -0.6620  0.0142 -0.2134
 5291TIP3    H137288   0.651   4.662  11.313 -1.1282  0.0359  0.0426
 5291TIP3    H237289   0.552   4.557  11.266 -1.4734 -0.4800  1.8634
 5292TIP3   OH237290   3.734   1.622  10.960 -0.5759  0.0201 -0.7431
 5292TIP3    H137291   3.776   1.689  11.015 -0.0076 -1.7872  1.1085
 5292TIP3    H237292   3.794   1.609  10.887  0.0351  0.4837 -0.3284
 5293TIP3   OH237293   1.041   4.691  11.380  0.0078 -0.8650  0.6871
 5293TIP3    H137294   1.056   4.621  11.444 -0.2608 -1.0630  0.5333
 5293TIP3    H237295   1.108   4.756  11.399 -0.9055 -0.3099  2.0214
 5294TIP3   OH237296   2.698   2.103   0.559 -0.4562 -0.8115  0.4007
 5294TIP3    H137297   2.633   2.051   0.606 -0.6156 -0.6868  0.3179
 5294TIP3    H237298   2.777   2.050   0.562 -0.5486 -0.9422  0.5445
 5295TIP3   OH237299   5.246   1.113  12.663 -0.7506  0.1703  0.1486
 5295TIP3    H137300   5.320   1.146  12.612 -1.1020  1.2625  0.3443
 5295TIP3    H237301   5.275   1.120  12.754 -1.1635  0.7845  0.2365
 5296TIP3   OH237302   3.690   0.055  15.449  0.1542 -0.4035  0.1584
 5296TIP3    H137303   3.718  -0.024  15.495  1.8528  0.8956  1.4157
 5296TIP3    H237304   3.675   0.026  15.359  2.3394 -1.8430  0.2236
 5297TIP3   OH237305   0.052   5.897  13.910  0.0957  0.0064  0.0546
 5297TIP3    H137306  -0.001   5.967  13.872  2.0812  2.3042  1.3585
 5297TIP3    H237307   0.107   5.941  13.975  2.8781 -2.4288 -0.5273
 5298TIP3   OH237308   2.235   5.195  14.135  0.2954  0.1379  0.0738
 5298TIP3    H137309   2.312   5.193  14.078  0.2503  1.3800 -0.0537
 5298TIP3    H237310   2.272   5.190  14.224  0.5990  1.4309  0.0424
 5299TIP3   OH237311   0.093   3.433   1.052  0.0826 -0.0719  0.3957
 5299TIP3    H137312   0.140   3.507   1.090  1.6173 -2.1688  2.7812
 5299TIP3    H237313   0.074   3.459   0.962  1.0370  2.9818  1.0465
 5300TIP3   OH237314   5.455   0.460   6.204 -0.4388  0.0375  0.1455
 5300TIP3    H137315   5.384   0.417   6.156  0.4687 -2.3619  0.8877
 5300TIP3    H237316   5.500   0.513   6.137 -0.3778 -1.7325 -1.2524
 5301TIP3   OH237317   1.502   1.444  13.411  0.4625  0.2104 -0.0853
 5301TIP3    H137318   1.497   1.533  13.375  0.5736  0.7029  1.0903
 5301TIP3    H237319   1.563   1.451  13.484  0.4721 -0.8441  0.0171
 5302TIP3   OH237320   2.093   2.863   4.571  0.4296 -0.0046 -0.0314
 5302TIP3    H137321   2.104   2.768   4.569 -1.5267 -0.2600  0.1960
 5302TIP3    H237322   2.142   2.895   4.495  1.5705 -1.1297  0.2164
 5303TIP3   OH237323   2.045   6.605  11.130 -0.6336  0.2083  0.0864
 5303TIP3    H137324   2.104   6.568  11.064  0.0889 -1.2215  1.4928
 5303TIP3    H237325   1.967   6.630  11.081  0.3646  0.3487 -1.5011
 5304TIP3   OH237326   4.679   6.236  10.511  0.8441 -0.0584 -0.5944
 5304TIP3    H137327   4.730   6.155  10.513 -0.7971 -1.0955 -0.4979
 5304TIP3    H237328   4.660   6.251  10.419 -0.8571 -1.0625 -0.4194
 5305TIP3   OH237329   3.835   1.430   0.712 -0.3202  0.5937  0.1213
 5305TIP3    H137330   3.817   1.340   0.686  4.0466 -0.8485  1.5242
 5305TIP3    H237331   3.800   1.436   0.801 -0.1818  0.1103  0.2129
 5306TIP3   OH237332   0.284   4.434  16.373  0.7005  0.0900  0.0406
 5306TIP3    H137333   0.368   4.398  16.348  0.2754 -1.2523  0.5176
 5306TIP3    H237334   0.223   4.360  16.368 -0.4580  1.0362 -0.3048
 5307TIP3   OH237335   4.451   2.439  16.567  0.1260  0.0226  0.0913
 5307TIP3    H137336   4.433   2.525  16.529 -0.4700  0.8269  2.1344
 5307TIP3    H237337   4.370   2.389  16.555  0.2586 -0.0435 -0.5285
 5308TIP3   OH237338   1.042   5.516   4.379 -0.4488  0.3434  0.4844
 5308TIP3    H137339   1.095   5.548   4.306  0.3639 -0.0300  0.9070
 5308TIP3    H237340   0.991   5.444   4.343 -0.2048  0.2968  0.2330
 5309TIP3   OH237341   1.759   4.985   5.232 -0.3038  0.1601  0.1987
 5309TIP3    H137342   1.802   4.902   5.210  0.9676  0.9761 -0.4387
 5309TIP3    H237343   1.696   4.962   5.300  0.5656 -1.2052  0.5629
 5310TIP3   OH237344   5.275   3.513   4.919 -0.1443 -0.1000  0.3030
 5310TIP3    H137345   5.207   3.497   4.853 -1.1222  0.1244  1.2309
 5310TIP3    H237346   5.356   3.519   4.870 -0.6615 -1.3943 -0.7307
 5311TIP3   OH237347   0.791   5.030  12.704  0.2896  0.2816 -0.1864
 5311TIP3    H137348   0.875   5.004  12.666 -0.4814 -1.6289 -0.6909
 5311TIP3    H237349   0.746   4.947  12.720 -2.0954  1.2965 -1.3352
 5312TIP3   OH237350   1.680   2.648   6.094 -0.6173  0.4252  0.1006
 5312TIP3    H137351   1.709   2.710   6.161  0.8815 -0.3715  0.2229
 5312TIP3    H237352   1.652   2.703   6.021  0.2680  1.2709  0.3828
 5313TIP3   OH237353   0.608   3.578   4.891  0.0402  0.2371 -0.0999
 5313TIP3    H137354   0.581   3.629   4.968 -0.1738  1.2148 -0.8142
 5313TIP3    H237355   0.552   3.501   4.893  0.8275 -0.3176  1.3757
 5314TIP3   OH237356   5.008   5.711   3.730  0.6540 -0.0663 -0.2518
 5314TIP3    H137357   5.051   5.637   3.772  2.2390  0.2576 -1.2547
 5314TIP3    H237358   4.999   5.777   3.800  0.8557 -0.5249  0.2049
 5315TIP3   OH237359   5.093   5.119  14.241  0.9061 -0.0161 -0.4192
 5315TIP3    H137360   5.086   5.060  14.316  0.9472  1.2771  0.6226
 5315TIP3    H237361   5.146   5.071  14.178  0.4099 -1.3452  0.1498
 5316TIP3   OH237362   4.814   3.720   2.929 -0.6892 -0.6473  0.5488
 5316TIP3    H137363   4.791   3.739   3.020  0.8531  0.4576  0.7236
 5316TIP3    H237364   4.903   3.754   2.918 -1.1387 -0.0376 -1.5946
 5317TIP3   OH237365   6.686   5.072   4.496 -0.3989 -0.1346 -1.0025
 5317TIP3    H137366   6.676   5.137   4.566 -1.8002 -1.9495  0.5596
 5317TIP3    H237367   6.625   5.101   4.428 -1.8050 -0.3710  0.1369
 5318TIP3   OH237368   6.270   1.819   2.232 -0.4571 -0.7076 -0.2307
 5318TIP3    H137369   6.192   1.872   2.248 -0.1335 -0.5340  0.8019
 5318TIP3    H237370   6.257   1.740   2.284 -0.7179 -1.4481 -1.3947
 5319TIP3   OH237371   3.474   3.178   0.830 -0.0118  0.1221  0.1958
 5319TIP3    H137372   3.536   3.165   0.902 -1.0430 -0.7915  0.9189
 5319TIP3    H237373   3.498   3.264   0.794 -0.3270  1.1832  2.4612
 5320TIP3   OH237374   5.567   1.957  11.861 -0.0212 -0.0795 -0.4886
 5320TIP3    H137375   5.528   1.928  11.779 -0.9637 -1.1899  0.3196
 5320TIP3    H237376   5.563   2.052  11.858  1.0157 -0.0693 -2.2197
 5321TIP3   OH237377   1.322   2.098   1.065 -0.2341 -0.1689 -0.1053
 5321TIP3    H137378   1.409   2.119   1.100 -0.2168  0.6259 -0.6080
 5321TIP3    H237379   1.315   2.003   1.073  0.1552 -0.1009  1.1654
 5322TIP3   OH237380   2.924   2.212   0.776  0.2052  0.0383  0.3807
 5322TIP3    H137381   2.917   2.216   0.681 -1.4371  1.7862  0.5623
 5322TIP3    H237382   2.834   2.210   0.808  0.7282  0.0038  1.9287
 5323TIP3   OH237383   4.753   1.652  15.807 -0.4227  0.5359 -0.6958
 5323TIP3    H137384   4.745   1.618  15.717 -0.6486 -0.2109 -0.4005
 5323TIP3    H237385   4.741   1.575  15.862  0.9202  0.7893 -0.0469
 5324TIP3   OH237386   1.910   1.868   2.394  0.4971  0.0605 -0.8272
 5324TIP3    H137387   1.816   1.865   2.412  0.4300  1.2071 -0.9375
 5324TIP3    H237388   1.949   1.893   2.478  0.6978 -0.3747 -0.7920
 5325TIP3   OH237389   0.804   5.717  12.577  0.3640  0.2159 -0.1953
 5325TIP3    H137390   0.782   5.633  12.616 -0.9413  0.9713  0.7445
 5325TIP3    H237391   0.765   5.714  12.490  2.5495 -1.1457 -1.1404
 5326TIP3   OH237392   1.581   3.931   1.222  0.0873 -0.0273 -0.0794
 5326TIP3    H137393   1.557   3.898   1.308 -0.2322  0.1177 -0.1162
 5326TIP3    H237394   1.651   3.872   1.193  1.2009  0.8047  0.8958
 5327TIP3   OH237395   0.674   0.343   4.137 -0.0323  0.6419 -0.6855
 5327TIP3    H137396   0.752   0.365   4.188  0.4737  1.0582 -1.6319
 5327TIP3    H237397   0.674   0.406   4.065  0.0373 -0.8307 -1.9981
 5328TIP3   OH237398   0.228   5.879   5.308  0.2129 -0.1943 -0.1887
 5328TIP3    H137399   0.145   5.879   5.355  0.8770  0.5203  1.0331
 5328TIP3    H237400   0.226   5.800   5.255 -1.2131 -0.2172 -0.1223
 5329TIP3   OH237401   2.408   6.692  16.379  0.9853  0.3776  0.1191
 5329TIP3    H137402   2.424   6.780  16.411 -3.4169  0.9966  0.9162
 5329TIP3    H237403   2.451   6.635  16.443  1.0759  1.8816  1.4364
 5330TIP3   OH237404   0.858   0.958  12.652 -0.1437  0.7219  0.8031
 5330TIP3    H137405   0.920   0.947  12.580  0.9857  2.7228  1.4280
 5330TIP3    H237406   0.891   0.899  12.720 -1.1985 -1.1501 -0.2849
 5331TIP3   OH237407   5.597   6.127   5.054  0.2425 -0.3737  0.4274
 5331TIP3    H137408   5.660   6.062   5.085 -0.7329 -1.0187  1.0794
 5331TIP3    H237409   5.540   6.143   5.130 -1.0963 -0.6704 -0.4937
 5332TIP3   OH237410   0.347   0.417  16.244  0.0993 -0.8060  0.2560
 5332TIP3    H137411   0.427   0.450  16.203  0.8007 -1.7623  0.8374
 5332TIP3    H237412   0.315   0.491  16.296 -0.2736  0.1009 -1.2169
 5333TIP3   OH237413   2.390   4.949  13.314  0.4849 -0.6892  0.0754
 5333TIP3    H137414   2.379   4.855  13.299 -3.1690 -0.3467  0.2439
 5333TIP3    H237415   2.432   4.981  13.234  0.0359 -2.1859 -0.7840
 5334TIP3   OH237416   5.438   3.266   2.277 -0.4229 -0.3247  0.4016
 5334TIP3    H137417   5.466   3.345   2.231 -0.8754 -0.3817  0.0250
 5334TIP3    H237418   5.344   3.260   2.259 -0.7090 -0.0716  1.7315
 5335TIP3   OH237419   3.709   0.248  14.875  0.3043 -0.1446  0.5924
 5335TIP3    H137420   3.783   0.206  14.920  0.8376 -0.0993 -0.2290
 5335TIP3    H237421   3.714   0.214  14.786 -1.6401 -1.3865  0.9371
 5336TIP3   OH237422   6.414   5.376   0.225 -0.0238 -0.7409 -0.1687
 5336TIP3    H137423   6.394   5.285   0.245  0.2192 -0.4862  1.3060
 5336TIP3    H237424   6.505   5.387   0.251  1.0317 -0.9440 -3.4792
 5337TIP3   OH237425   5.964   5.992   2.046 -0.1136 -0.1152 -0.2682
 5337TIP3    H137426   5.910   5.915   2.033  0.0879 -0.1324 -0.9945
 5337TIP3    H237427   5.904   6.066   2.039 -0.5360 -0.2541  1.6859
 5338TIP3   OH237428   5.882   5.198  11.795 -0.1522 -0.0704 -0.1477
 5338TIP3    H137429   5.819   5.210  11.866 -0.1736 -0.9358 -0.0169
 5338TIP3    H237430   5.829   5.173  11.719 -0.1807  1.3575 -0.6113
 5339TIP3   OH237431   0.599   3.309   1.696 -0.1876  0.3626  0.1394
 5339TIP3    H137432   0.591   3.217   1.671  0.7072  0.2536  0.2508
 5339TIP3    H237433   0.692   3.330   1.685 -0.0461  0.7489  1.8369
 5340TIP3   OH237434   5.603   1.967   0.862 -0.0233 -0.5496 -0.6461
 5340TIP3    H137435   5.630   2.008   0.779 -0.0950 -0.4904 -0.6399
 5340TIP3    H237436   5.525   2.014   0.888  0.2827 -0.2371 -0.2868
 5341TIP3   OH237437   4.105   6.199  12.346 -0.3341  0.6799  0.0261
 5341TIP3    H137438   4.111   6.149  12.427  2.1815  1.6158  0.4731
 5341TIP3    H237439   4.063   6.139  12.284 -1.9442 -0.1812  1.8760
 5342TIP3   OH237440   2.549   1.983  13.598 -0.0860 -0.4182  0.5309
 5342TIP3    H137441   2.475   2.039  13.578  0.6701  0.2518 -0.4033
 5342TIP3    H237442   2.608   1.993  13.524 -0.2360 -2.9582  0.0167
 5343TIP3   OH237443   4.683   1.610   2.973  0.5395  0.3060  0.0104
 5343TIP3    H137444   4.634   1.543   3.021  1.6072 -0.6297 -0.1635
 5343TIP3    H237445   4.767   1.568   2.954  0.4549  0.9729 -1.9273
 5344TIP3   OH237446   3.188   5.060   1.746 -0.0843  0.6312  0.0851
 5344TIP3    H137447   3.245   4.984   1.734 -1.6606 -0.5309 -0.2458
 5344TIP3    H237448   3.138   5.066   1.664  0.6977  2.6164 -0.2813
 5345TIP3   OH237449   4.736   4.805   4.451  0.7232 -0.0443 -0.1213
 5345TIP3    H137450   4.755   4.898   4.465  0.4948  0.1938 -1.3820
 5345TIP3    H237451   4.822   4.763   4.459  0.9489  0.3675 -0.3204
 5346TIP3   OH237452   6.280   5.867   1.704  0.0372 -0.1074  0.0326
 5346TIP3    H137453   6.264   5.778   1.673 -1.4464 -0.6770  2.3029
 5346TIP3    H237454   6.249   5.867   1.795 -0.3954  2.8371 -0.0533
 5347TIP3   OH237455   1.909   2.632  16.181  0.2592 -0.3095 -0.0039
 5347TIP3    H137456   1.880   2.666  16.096  0.7405  0.3323  0.0929
 5347TIP3    H237457   1.906   2.537  16.170  1.6530 -0.2278 -1.2069
 5348TIP3   OH237458   3.623   6.422  15.945  0.1057  0.1407  0.2556
 5348TIP3    H137459   3.544   6.368  15.943 -0.0145  0.3088  0.4376
 5348TIP3    H237460   3.634   6.445  16.037  2.2883 -2.6928  0.7843
 5349TIP3   OH237461   3.017   3.574  12.289 -0.5444 -0.5848 -0.1623
 5349TIP3    H137462   3.074   3.540  12.358 -1.6556 -3.8934 -0.8226
 5349TIP3    H237463   2.939   3.605  12.336 -0.0601 -0.0917  0.3262
 5350TIP3   OH237464   4.126   1.160  11.327  0.1599  0.5018  0.3117
 5350TIP3    H137465   4.081   1.091  11.278 -1.0491  1.9861 -0.7052
 5350TIP3    H237466   4.147   1.227  11.262  0.7038  1.4242  1.4047
 5351TIP3   OH237467   6.425   4.024  11.642 -0.2466 -0.7127  0.3272
 5351TIP3    H137468   6.499   4.075  11.609 -0.0440 -0.8925  0.4993
 5351TIP3    H237469   6.357   4.089  11.661 -0.7634 -0.7013 -1.4555
 5352TIP3   OH237470   4.409   5.361  17.159  0.0668  0.0170  0.0329
 5352TIP3    H137471   4.426   5.311  17.239  1.0380  0.7676  0.3143
 5352TIP3    H237472   4.494   5.364  17.115 -0.6728 -1.2306 -1.5303
 5353TIP3   OH237473   1.236   2.286  16.295 -1.0223  0.1637  0.4238
 5353TIP3    H137474   1.237   2.223  16.366  1.2556 -0.3089  0.0017
 5353TIP3    H237475   1.303   2.351  16.319 -1.5769  1.0432 -0.3552
 5354TIP3   OH237476   6.458   6.719  16.832 -0.1762  0.5444 -0.5584
 5354TIP3    H137477   6.493   6.786  16.773 -1.6410  1.0328 -0.8826
 5354TIP3    H237478   6.518   6.719  16.907  1.3618  0.3353 -1.7608
 5355TIP3   OH237479   0.193   3.943  17.033  0.5071 -1.1128 -0.0456
 5355TIP3    H137480   0.158   4.003  17.099  0.1977  0.0423 -1.2294
 5355TIP3    H237481   0.288   3.942  17.049  0.5754  0.0954 -0.3303
 5356TIP3   OH237482   1.528   5.203  11.524 -0.1302  0.2370  0.1010
 5356TIP3    H137483   1.615   5.230  11.554  0.5770 -2.2251  0.3451
 5356TIP3    H237484   1.523   5.236  11.434  0.3878  1.8133  0.6295
 5357TIP3   OH237485   5.626   5.036   5.442  0.5811 -0.3592 -0.0002
 5357TIP3    H137486   5.560   5.032   5.510  0.6112 -0.9373 -0.0099
 5357TIP3    H237487   5.709   5.030   5.488  0.6207 -0.0622 -0.0281
 5358TIP3   OH237488   1.670   1.022   1.721  0.3745  0.1659 -0.6833
 5358TIP3    H137489   1.618   1.052   1.646 -0.7251  2.0172  0.7840
 5358TIP3    H237490   1.718   0.946   1.688 -2.6687 -1.1384 -2.3254
 5359TIP3   OH237491   1.072   3.327  15.623  0.2090  0.3469 -0.1020
 5359TIP3    H137492   1.093   3.421  15.614  0.6862  0.2054 -0.5078
 5359TIP3    H237493   1.060   3.297  15.533  0.8452 -0.1571 -0.0177
 5360TIP3   OH237494   0.147   1.728   2.187  0.8077  0.5057  0.8417
 5360TIP3    H137495   0.095   1.720   2.106  1.9899 -0.2561  0.1500
 5360TIP3    H237496   0.177   1.819   2.186  2.4352 -0.0146 -0.5981
 5361TIP3   OH237497   5.911   4.645   5.173 -0.2417  0.6415  0.6187
 5361TIP3    H137498   5.987   4.683   5.215 -0.8900  0.3207  2.1117
 5361TIP3    H237499   5.842   4.650   5.239 -1.2066 -0.1130 -0.3122
 5362TIP3   OH237500   6.224   1.771  11.769 -0.1915  0.6392 -0.3451
 5362TIP3    H137501   6.146   1.732  11.808  0.7157 -0.7457  0.1317
 5362TIP3    H237502   6.204   1.865  11.764 -1.5924  0.4000  0.4450
 5363TIP3   OH237503   2.863   1.749   3.375 -0.3850  0.4295 -0.6591
 5363TIP3    H137504   2.854   1.726   3.283  1.0973 -0.8770 -0.5058
 5363TIP3    H237505   2.939   1.699   3.405 -1.9257 -0.5693  1.7246
 5364TIP3   OH237506   5.767   4.315  10.781 -0.5015  0.1154  0.0020
 5364TIP3    H137507   5.716   4.323  10.700 -0.3824 -1.9113 -0.2993
 5364TIP3    H237508   5.857   4.306  10.752 -0.1376  1.9660  0.4799
 5365TIP3   OH237509   5.881   1.732   5.431 -0.1105 -0.2124 -0.4053
 5365TIP3    H137510   5.790   1.761   5.429 -0.4295 -1.1328 -4.6356
 5365TIP3    H237511   5.884   1.665   5.499 -2.2934  0.7224  0.6481
 5366TIP3   OH237512   2.808   2.587   4.638 -0.8061 -0.2428  0.2765
 5366TIP3    H137513   2.868   2.612   4.708 -1.0373 -1.0990  0.7885
 5366TIP3    H237514   2.854   2.516   4.591 -0.7664  0.1424 -0.2764
 5367TIP3   OH237515   2.288   3.935  16.636  0.1248 -0.3704  0.7574
 5367TIP3    H137516   2.226   3.919  16.565  0.0625  2.0041  0.2188
 5367TIP3    H237517   2.282   3.857  16.691 -0.7107 -1.7331 -1.1819
 5368TIP3   OH237518   4.210   1.296   5.227  0.0635  0.1874 -0.0542
 5368TIP3    H137519   4.200   1.334   5.314 -0.0038 -0.2669  0.1342
 5368TIP3    H237520   4.303   1.275   5.221  0.7940  3.5037 -1.4340
 5369TIP3   OH237521   2.136   6.076  14.340  0.2299 -0.3627 -0.1102
 5369TIP3    H137522   2.132   6.121  14.424  1.8519  0.5525 -0.5022
 5369TIP3    H237523   2.115   6.143  14.276 -1.0391 -1.0676 -0.4472
 5370TIP3   OH237524   3.385   0.852  11.973  0.6625  0.0090 -0.5080
 5370TIP3    H137525   3.452   0.802  12.019  0.6499  0.3072 -0.1698
 5370TIP3    H237526   3.410   0.844  11.880 -0.6831 -2.6123 -0.6768
 5371TIP3   OH237527   3.029   0.376  13.929  0.1975  0.4653 -0.4148
 5371TIP3    H137528   3.085   0.301  13.950 -2.7066 -1.8733 -0.6782
 5371TIP3    H237529   3.011   0.367  13.836  1.5419  2.7369 -0.9189
 5372TIP3   OH237530   5.212   2.147  11.235 -0.1530 -0.2219 -0.6301
 5372TIP3    H137531   5.275   2.093  11.281  0.8308  0.2683 -1.3941
 5372TIP3    H237532   5.262   2.190  11.166 -0.8311  1.8653  0.1139
 5373TIP3   OH237533   5.847   3.563  10.483  0.3684  0.1857  0.4406
 5373TIP3    H137534   5.883   3.648  10.460 -0.2037  0.3665  0.2048
 5373TIP3    H237535   5.784   3.543  10.413  1.1445 -0.8401  0.0123
 5374TIP3   OH237536   0.718   4.550  14.937 -0.0977 -0.3059  0.0906
 5374TIP3    H137537   0.736   4.515  15.024  0.4592 -1.8445 -0.6171
 5374TIP3    H237538   0.630   4.518  14.917  0.0849 -0.6197 -0.2189
 5375TIP3   OH237539   2.610   0.146  13.273 -0.8747 -1.1222 -0.1531
 5375TIP3    H137540   2.631   0.092  13.197  1.2702 -0.8340  0.2022
 5375TIP3    H237541   2.519   0.124  13.294 -0.8933 -2.5618 -1.6626
 5376TIP3   OH237542   5.374   0.727   4.509  0.0804 -0.5160 -0.1124
 5376TIP3    H137543   5.403   0.691   4.426  0.5784  1.2447 -0.7299
 5376TIP3    H237544   5.390   0.821   4.501 -0.4785 -0.2452  1.7220
 5377TIP3   OH237545   0.655   5.217   3.821  0.4178 -0.0589 -0.3239
 5377TIP3    H137546   0.573   5.204   3.774 -0.4277  2.1937  0.4347
 5377TIP3    H237547   0.644   5.302   3.865  1.6228 -1.5142  2.9652
 5378TIP3   OH237548   4.192   5.566  10.385 -0.5392 -0.3022  0.5836
 5378TIP3    H137549   4.218   5.475  10.375  2.3095  0.3896  1.3463
 5378TIP3    H237550   4.111   5.574  10.333 -0.5432 -3.1062  0.1109
 5379TIP3   OH237551   5.413   2.831   2.411  0.1953 -0.6214  0.5536
 5379TIP3    H137552   5.423   2.859   2.502  2.0464  2.4206 -0.5015
 5379TIP3    H237553   5.318   2.833   2.395  0.0136  1.2943  1.7057
 5380TIP3   OH237554   2.976   4.581  13.344 -0.3298 -0.1016 -0.0833
 5380TIP3    H137555   2.890   4.561  13.307  0.1444  0.1712 -1.3624
 5380TIP3    H237556   2.968   4.671  13.376 -0.3412  0.1487 -0.7774
 5381TIP3   OH237557   6.163   0.198  15.614  0.6731  0.2367 -0.0314
 5381TIP3    H137558   6.231   0.166  15.554  1.8037  3.3955 -0.5379
 5381TIP3    H237559   6.204   0.197  15.700 -0.2564 -2.2962  0.4299
 5382TIP3   OH237560   2.446   4.522   2.886  0.1989 -0.1819 -0.8128
 5382TIP3    H137561   2.475   4.440   2.926 -0.7076 -0.4297 -0.6535
 5382TIP3    H237562   2.354   4.506   2.863  0.3028  0.4513 -1.6808
 5383TIP3   OH237563   0.202   6.757   2.809  0.3941  0.3546 -0.7925
 5383TIP3    H137564   0.170   6.671   2.836  1.4508  0.1596 -0.1096
 5383TIP3    H237565   0.134   6.818   2.835 -0.5859 -0.3299 -1.7213
 5384TIP3   OH237566   1.060   0.492  13.112  0.4374 -0.6556  0.2795
 5384TIP3    H137567   1.121   0.544  13.059 -1.2064  1.1495  0.1046
 5384TIP3    H237568   1.004   0.449  13.048 -0.2189 -0.1255  0.4943
 5385TIP3   OH237569   1.541   4.691   3.656 -0.3823  0.5333  0.7604
 5385TIP3    H137570   1.448   4.704   3.676 -0.5611  0.7476 -0.1513
 5385TIP3    H237571   1.541   4.636   3.577  0.2367  1.5868  0.0136
 5386TIP3   OH237572   4.668   5.548   4.056  0.1532  0.2978  0.7550
 5386TIP3    H137573   4.731   5.502   4.110  1.5061 -1.6855 -2.3642
 5386TIP3    H237574   4.689   5.521   3.966 -1.4287  4.0980 -0.8699
 5387TIP3   OH237575   0.932   3.262   5.599  0.1344 -0.7175  0.1199
 5387TIP3    H137576   0.879   3.340   5.611 -0.7699 -1.2046 -0.6250
 5387TIP3    H237577   1.009   3.276   5.655  0.4097  1.0693 -0.6790
 5388TIP3   OH237578   5.340   3.872   2.172  0.7118 -0.6759  0.1800
 5388TIP3    H137579   5.325   3.778   2.178  0.1343 -0.4678  2.1605
 5388TIP3    H237580   5.434   3.880   2.155  0.4156 -1.6479 -2.1665
 5389TIP3   OH237581   0.947   6.227  11.487 -0.0291  0.0584  0.0115
 5389TIP3    H137582   0.896   6.243  11.567 -2.8017 -0.8829 -1.4861
 5389TIP3    H237583   0.963   6.133  11.487 -1.2995 -0.1709 -1.2369
 5390TIP3   OH237584   0.025   2.927   1.775 -0.3440  0.3660  0.0354
 5390TIP3    H137585   0.113   2.901   1.746 -0.0691  1.2363  0.0900
 5390TIP3    H237586  -0.015   2.965   1.697 -0.2178  1.1384  0.3449
 5391TIP3   OH237587   6.008   2.952  10.996  0.0897 -0.3909  0.0693
 5391TIP3    H137588   6.101   2.970  11.004  0.5592 -2.3433 -0.6818
 5391TIP3    H237589   5.993   2.937  10.903 -1.7644  3.7489 -0.3909
 5392TIP3   OH237590   6.346   6.152   5.113 -0.0966 -0.0178 -0.0202
 5392TIP3    H137591   6.298   6.171   5.194  0.8204  0.1906  0.4862
 5392TIP3    H237592   6.346   6.056   5.108 -2.0088  0.0129 -0.9159
 5393TIP3   OH237593   1.925   2.487   4.433 -0.5316  0.5943  0.1870
 5393TIP3    H137594   1.991   2.523   4.492 -0.6475  1.5206 -0.2382
 5393TIP3    H237595   1.971   2.475   4.350 -0.6138  0.1994  0.1989
 5394TIP3   OH237596   5.070   5.556   5.499  0.3171  0.6157 -0.1965
 5394TIP3    H137597   5.121   5.634   5.476  2.2579  0.0879  2.0747
 5394TIP3    H237598   4.980   5.586   5.503  0.7019  2.1116 -2.0630
 5395TIP3   OH237599   1.973   4.288   4.121  0.4072 -0.1833 -0.1946
 5395TIP3    H137600   1.902   4.299   4.057  0.6696  1.8152 -0.1830
 5395TIP3    H237601   2.042   4.346   4.090  0.9060  0.0971  1.3876
 5396TIP3   OH237602   0.324   2.884  16.432 -0.4619  0.2200  0.2634
 5396TIP3    H137603   0.332   2.794  16.464  2.9610  0.4432  0.2263
 5396TIP3    H237604   0.280   2.875  16.347  0.6418 -1.5258 -0.1502
 5397TIP3   OH237605   4.027   4.198   0.980 -0.0181  0.6316  0.3891
 5397TIP3    H137606   3.970   4.121   0.977 -0.6189  1.0660  0.7151
 5397TIP3    H237607   4.098   4.173   1.039 -0.7202  0.6699  1.2614
 5398TIP3   OH237608   2.476   0.488   0.668  0.0276 -0.0373 -0.8381
 5398TIP3    H137609   2.464   0.408   0.721 -0.4922  1.1384  0.8820
 5398TIP3    H237610   2.406   0.484   0.603 -1.7198  0.3100  0.9500
 5399TIP3   OH237611   5.462   4.157  12.321  0.0434 -0.5681  0.4274
 5399TIP3    H137612   5.518   4.086  12.350 -0.3277 -0.9453  0.2248
 5399TIP3    H237613   5.488   4.232  12.375  1.3099 -0.5157 -0.2182
 5400TIP3   OH237614   6.174   3.392  16.948 -0.0051  0.1175  0.0945
 5400TIP3    H137615   6.190   3.300  16.928 -0.8671 -0.1535  0.6211
 5400TIP3    H237616   6.108   3.420  16.884 -1.0925 -0.1376  1.0781
 5401TIP3   OH237617   1.256   0.622   1.873  0.0071 -0.0609  0.2707
 5401TIP3    H137618   1.349   0.598   1.877  0.3097  0.8916 -0.7709
 5401TIP3    H237619   1.240   0.669   1.955  1.2552  2.4658 -0.8623
 5402TIP3   OH237620   3.083   2.729  14.947  0.3363 -0.0097 -0.2622
 5402TIP3    H137621   3.161   2.676  14.932  0.0326 -0.1651 -1.3001
 5402TIP3    H237622   3.097   2.808  14.895 -1.4327 -1.2433 -2.7166
 5403TIP3   OH237623   2.782   2.667   4.297  0.2333 -0.0459  0.7123
 5403TIP3    H137624   2.829   2.610   4.359 -1.9465 -0.4473  2.0556
 5403TIP3    H237625   2.844   2.738   4.279  1.5021 -0.7418  2.1487
 5404TIP3   OH237626   5.747   3.915  15.683 -0.5253  0.4364  0.4844
 5404TIP3    H137627   5.667   3.918  15.735 -0.1207  0.8994  1.0788
 5404TIP3    H237628   5.778   3.825  15.692 -1.2302  0.1312 -0.1279
 5405TIP3   OH237629   3.344   5.743   0.254 -0.3570 -0.0835 -0.7901
 5405TIP3    H137630   3.274   5.785   0.305 -0.6976 -1.7183  0.1287
 5405TIP3    H237631   3.321   5.761   0.163  0.6622  3.5401 -0.4088
 5406TIP3   OH237632   2.798   5.259  12.096  0.7204  0.0540  0.1178
 5406TIP3    H137633   2.875   5.313  12.113 -0.7287  2.5030 -0.7362
 5406TIP3    H237634   2.829   5.169  12.103  3.9583  0.9620 -1.5112
 5407TIP3   OH237635   0.288   1.639  11.170 -0.3761 -0.7029 -0.8999
 5407TIP3    H137636   0.369   1.597  11.197  0.4196 -0.0176 -2.1756
 5407TIP3    H237637   0.280   1.618  11.077 -0.7929  0.6200 -1.1693
 5408TIP3   OH237638   5.556   2.224   1.966 -0.0732 -0.3636  0.3887
 5408TIP3    H137639   5.595   2.293   2.019 -1.2974  1.5668 -1.0960
 5408TIP3    H237640   5.580   2.247   1.876 -0.0334 -2.2039 -0.0832
 5409TIP3   OH237641   6.224   6.663   4.304 -0.2362  0.8813  0.2049
 5409TIP3    H137642   6.175   6.602   4.249  0.3631 -1.0321  1.7323
 5409TIP3    H237643   6.212   6.748   4.261 -1.0360 -0.2868 -2.0100
 5410TIP3   OH237644   0.197   0.628  13.332 -0.2216 -0.3076  0.3251
 5410TIP3    H137645   0.283   0.645  13.295 -1.0849  1.2317 -1.0634
 5410TIP3    H237646   0.210   0.556  13.394  1.9991 -0.2157 -0.0218
 5411TIP3   OH237647   5.153   1.026   3.437 -0.6396 -0.3209  0.6355
 5411TIP3    H137648   5.169   1.120   3.441 -2.3233 -0.0522  1.5253
 5411TIP3    H237649   5.141   1.007   3.344  1.1850  0.0680  0.2977
 5412TIP3   OH237650   1.856   3.865   5.750  0.4033 -0.3712 -0.1602
 5412TIP3    H137651   1.768   3.846   5.782  0.5011  0.6164  0.7113
 5412TIP3    H237652   1.844   3.886   5.657 -0.4916  1.2787  0.3171
 5413TIP3   OH237653   1.866   5.319   3.109 -0.3158 -0.8122  0.4838
 5413TIP3    H137654   1.793   5.293   3.166 -1.0913 -0.4611 -0.3547
 5413TIP3    H237655   1.943   5.311   3.166 -0.8874 -2.0380  1.1221
 5414TIP3   OH237656   1.376   0.075   4.074 -0.2824  0.3101  0.0094
 5414TIP3    H137657   1.449   0.015   4.061 -1.4315 -0.8650 -1.1890
 5414TIP3    H237658   1.307   0.022   4.113 -1.0911  0.9809 -0.4649
 5415TIP3   OH237659   1.728   3.799  13.716  0.1623 -0.2439  0.2271
 5415TIP3    H137660   1.708   3.863  13.648 -0.0245  0.0202  0.5281
 5415TIP3    H237661   1.657   3.808  13.779 -0.6159 -1.7425 -0.4237
 5416TIP3   OH237662   5.474   6.083  16.997  0.0724  0.0857 -0.0651
 5416TIP3    H137663   5.384   6.097  16.967 -0.6302 -2.6825  0.5887
 5416TIP3    H237664   5.486   6.146  17.067 -1.1619  0.8944 -0.5715
 5417TIP3   OH237665   4.542   6.507  14.726 -0.5368  0.4183 -0.0131
 5417TIP3    H137666   4.465   6.538  14.678 -0.2778  0.4877 -0.3848
 5417TIP3    H237667   4.508   6.438  14.783 -0.9779  0.8616  0.2624
 5418TIP3   OH237668   2.279   6.166  12.390  0.0316  0.2575 -0.0071
 5418TIP3    H137669   2.317   6.085  12.354 -1.1299 -0.3504  0.1139
 5418TIP3    H237670   2.246   6.141  12.476 -2.8367  0.1236 -1.0749
 5419TIP3   OH237671   6.128   3.576  12.623 -0.0485  0.2479 -0.0086
 5419TIP3    H137672   6.075   3.656  12.619 -0.2951 -0.0012 -2.9825
 5419TIP3    H237673   6.211   3.605  12.662  0.0096  2.0480 -1.3842
 5420TIP3   OH237674   0.214   5.510   4.330  0.1085 -0.2645  0.3459
 5420TIP3    H137675   0.119   5.510   4.324  0.0975  0.0522  0.4592
 5420TIP3    H237676   0.242   5.575   4.265  0.1839  0.4368  1.0561
 5421TIP3   OH237677   2.519   1.658   5.651  0.3853  0.7371  0.9290
 5421TIP3    H137678   2.541   1.700   5.568  1.7186 -0.3353  0.7156
 5421TIP3    H237679   2.601   1.617   5.680 -0.5151 -0.4744  1.8500
 5422TIP3   OH237680   2.339   0.268  13.788  0.4948 -0.3220 -0.7123
 5422TIP3    H137681   2.430   0.289  13.810 -0.0875  0.2386  1.2741
 5422TIP3    H237682   2.288   0.336  13.831 -0.9369 -1.2773 -0.8808
 5423TIP3   OH237683   0.766   0.235   5.917  0.0631 -0.2385 -0.2131
 5423TIP3    H137684   0.757   0.325   5.884  1.2001 -0.1575 -0.3015
 5423TIP3    H237685   0.844   0.237   5.971 -0.1620 -1.0810  0.1409
 5424TIP3   OH237686   3.528   4.846   0.788  0.3079  0.2520 -0.0960
 5424TIP3    H137687   3.610   4.850   0.837  0.7551  2.5297 -0.9802
 5424TIP3    H237688   3.481   4.926   0.813 -1.0771 -0.3792 -0.6032
 5425TIP3   OH237689   5.363   0.221   2.878 -0.0077  0.1902 -0.0825
 5425TIP3    H137690   5.403   0.215   2.791 -0.3415 -0.9606 -0.1680
 5425TIP3    H237691   5.344   0.314   2.889  2.0519  0.6621 -0.3161
 5426TIP3   OH237692   3.968   2.239   2.960  0.5869  0.0060  0.1090
 5426TIP3    H137693   4.000   2.248   3.050 -2.3574  0.5384  1.1399
 5426TIP3    H237694   4.003   2.316   2.915 -0.2737  1.2682  1.5305
 5427TIP3   OH237695   3.866   4.718  14.624  0.1422  0.4305 -0.4992
 5427TIP3    H137696   3.790   4.770  14.600  0.1726  0.9489  0.4814
 5427TIP3    H237697   3.937   4.781  14.630  0.3674  0.1497 -0.1487
 5428TIP3   OH237698   3.625   5.678  15.384  0.2861  0.0540  0.0909
 5428TIP3    H137699   3.557   5.665  15.450 -0.0175 -0.5325 -0.3350
 5428TIP3    H237700   3.701   5.708  15.434  0.1740 -0.7516  0.7595
 5429TIP3   OH237701   4.039   2.385  15.195 -0.0934 -0.0608 -0.4415
 5429TIP3    H137702   4.075   2.337  15.270  1.4849  2.1214  0.2523
 5429TIP3    H237703   4.028   2.319  15.127 -2.4776 -2.3051  1.9831
 5430TIP3   OH237704   6.761   4.755  16.667 -0.1336  0.4130 -0.0061
 5430TIP3    H137705   6.678   4.720  16.697  0.4367 -1.5750 -0.6341
 5430TIP3    H237706   6.810   4.774  16.747  0.3531 -2.2906  0.3845
 5431TIP3   OH237707   6.697   2.332  12.275 -0.5469 -0.1570 -0.9396
 5431TIP3    H137708   6.631   2.267  12.249  0.1081 -1.2733  0.1271
 5431TIP3    H237709   6.760   2.332  12.202  0.0330 -1.5416 -0.4596
 5432TIP3   OH237710   5.338   2.849  14.919  0.1638  0.1014  0.0177
 5432TIP3    H137711   5.414   2.884  14.872 -0.5476  0.7425 -0.6775
 5432TIP3    H237712   5.263   2.885  14.872 -0.5652 -0.0802  1.0430
 5433TIP3   OH237713   5.928   0.857  12.087  0.0490  0.3859  0.2503
 5433TIP3    H137714   5.907   0.890  12.175  1.7657  1.8842  0.1260
 5433TIP3    H237715   6.013   0.814  12.097  0.7954  1.5496 -0.8754
 5434TIP3   OH237716   3.108   4.785   1.123  0.5062  0.4603 -0.3494
 5434TIP3    H137717   3.131   4.694   1.104  1.2266  0.7823 -1.0314
 5434TIP3    H237718   3.159   4.807   1.200 -1.0231 -0.2637  0.9141
 5435TIP3   OH237719   0.998   2.125   4.553 -0.2172 -0.2382  0.4341
 5435TIP3    H137720   1.002   2.030   4.561  0.3527 -0.3954 -1.5056
 5435TIP3    H237721   1.075   2.148   4.502 -0.7754  1.1939  0.2169
 5436TIP3   OH237722   2.925   3.571  16.848  0.0240  0.1757 -0.0655
 5436TIP3    H137723   2.963   3.598  16.931  0.1638 -3.6831  1.2510
 5436TIP3    H237724   2.831   3.561  16.867  0.2142 -1.7300 -0.0426
 5437TIP3   OH237725   1.553   6.173   1.763 -0.1114  0.3369 -0.1412
 5437TIP3    H137726   1.529   6.146   1.852  1.2525  0.8366  0.3836
 5437TIP3    H237727   1.570   6.091   1.717 -0.6703  0.0840  0.0980
 5438TIP3   OH237728   2.476   1.256  11.752  0.3142  0.5544  0.1471
 5438TIP3    H137729   2.567   1.228  11.740  0.1813  0.7611 -1.4359
 5438TIP3    H237730   2.479   1.352  11.745  0.0926  0.6233  0.9356
 5439TIP3   OH237731   3.009   6.659  15.099  0.4706 -0.4932 -0.2604
 5439TIP3    H137732   3.003   6.684  15.007  3.1535 -0.1503 -0.3845
 5439TIP3    H237733   3.081   6.596  15.102  2.0813  1.3598  1.9521
 5440TIP3   OH237734   5.939   3.784  12.675 -0.1558 -0.0263  0.0218
 5440TIP3    H137735   5.897   3.756  12.756 -0.1103 -0.8076 -0.2127
 5440TIP3    H237736   5.947   3.879  12.683  0.0055 -0.1172  1.0086
 5441TIP3   OH237737   2.991   4.666   5.707  0.0847 -0.2797  0.0516
 5441TIP3    H137738   2.940   4.668   5.626  0.6336  2.3342 -0.2646
 5441TIP3    H237739   3.081   4.681   5.678  0.3654  0.0203  1.0728
 5442TIP3   OH237740   4.730   3.777  11.085  0.6409  0.1460  0.1362
 5442TIP3    H137741   4.780   3.837  11.030 -0.8463  1.3907  0.1117
 5442TIP3    H237742   4.641   3.779  11.049  0.0838 -0.4262  1.4444
 5443TIP3   OH237743   3.828   2.866   2.082  0.4129 -0.2275  0.2052
 5443TIP3    H137744   3.903   2.916   2.049  1.2263  1.0721  3.8148
 5443TIP3    H237745   3.860   2.776   2.089  1.5213  0.2332  1.2604
 5444TIP3   OH237746   1.005   4.064  16.639  0.9055  0.7564  0.0949
 5444TIP3    H137747   0.990   4.101  16.726 -1.8928 -0.4563  0.1714
 5444TIP3    H237748   0.928   4.088  16.589  0.9952 -1.3179 -1.0868
 5445TIP3   OH237749   0.226   5.367  11.677 -0.4470  0.0237  0.1682
 5445TIP3    H137750   0.318   5.352  11.655 -0.2022  0.2810  0.9959
 5445TIP3    H237751   0.228   5.424  11.753 -1.2790 -0.7200  0.7651
 5446TIP3   OH237752   2.765   3.357  11.674  0.2670  0.0058  0.4574
 5446TIP3    H137753   2.685   3.399  11.642 -0.3240  0.1173  2.0424
 5446TIP3    H237754   2.747   3.337  11.766  1.5450 -1.2552  0.4482
 5447TIP3   OH237755   6.697   4.187  11.124 -0.1077  0.2980  0.4671
 5447TIP3    H137756   6.785   4.172  11.156  0.2160 -1.2017 -1.0099
 5447TIP3    H237757   6.652   4.103  11.137 -1.1739  0.9032  0.7763
 5448TIP3   OH237758   0.282   2.395   3.104 -0.2718  0.8674  0.1910
 5448TIP3    H137759   0.333   2.426   3.029  0.0056 -1.1054 -0.4622
 5448TIP3    H237760   0.204   2.451   3.105 -0.8847  0.1568 -2.3391
 5449TIP3   OH237761   3.999   5.497  14.949 -0.1277 -0.3240 -0.3914
 5449TIP3    H137762   3.938   5.569  14.933 -1.4882 -0.8334  2.1870
 5449TIP3    H237763   3.945   5.418  14.945  0.5610 -0.8761  0.8272
 5450TIP3   OH237764   1.886   4.383   4.355  0.0201  0.2839 -0.4870
 5450TIP3    H137765   1.920   4.469   4.330  0.1648  0.1448 -0.7770
 5450TIP3    H237766   1.907   4.327   4.281  2.6570 -0.7105  0.9225
 5451TIP3   OH237767   2.906   6.704   4.506 -0.5975 -0.3681  0.5123
 5451TIP3    H137768   2.929   6.695   4.413 -1.7225 -1.0414  0.2901
 5451TIP3    H237769   2.932   6.794   4.528 -0.0999 -0.2835 -0.3906
 5452TIP3   OH237770   5.668   4.487  12.330 -0.3101 -0.2085  0.3786
 5452TIP3    H137771   5.659   4.422  12.401 -0.6766 -0.8430 -0.2429
 5452TIP3    H237772   5.606   4.556  12.354 -1.4245 -1.0532 -0.0086
 5453TIP3   OH237773   6.257   0.297  14.143  0.0622  0.0824 -0.6942
 5453TIP3    H137774   6.273   0.338  14.228 -0.6519  0.3883 -0.7047
 5453TIP3    H237775   6.287   0.362  14.080 -0.7133  0.4424 -0.7012
 5454TIP3   OH237776   3.133   6.167   6.038 -0.4773  0.3276  0.0384
 5454TIP3    H137777   3.156   6.076   6.019 -1.9382 -0.0178 -0.1245
 5454TIP3    H237778   3.153   6.178   6.131  2.4480  0.7108 -0.6028
 5455TIP3   OH237779   2.776   3.113   5.691 -0.6061 -0.1580  0.3494
 5455TIP3    H137780   2.776   3.188   5.751  0.1746 -0.6595  0.9802
 5455TIP3    H237781   2.779   3.036   5.748 -3.8821 -0.7815 -0.1996
 5456TIP3   OH237782   5.597   2.269   5.476 -0.0382  0.7064  0.3025
 5456TIP3    H137783   5.660   2.341   5.478  0.4114  0.3683 -1.2840
 5456TIP3    H237784   5.514   2.310   5.452  0.2894  0.6511 -0.9424
 5457TIP3   OH237785   2.870   0.478  10.995  0.3866 -0.0526  0.9145
 5457TIP3    H137786   2.867   0.433  10.911 -0.4703  0.1460  0.8274
 5457TIP3    H237787   2.851   0.410  11.060 -0.4817  0.0785  0.8152
 5458TIP3   OH237788   0.383   0.186   3.824 -0.2295  0.0150 -0.0100
 5458TIP3    H137789   0.329   0.211   3.749  0.2096  2.2701  0.3704
 5458TIP3    H237790   0.324   0.136   3.881 -1.6410  1.5259 -0.0976
 5459TIP3   OH237791   5.169   6.615  15.699  0.0081  0.7960  0.8200
 5459TIP3    H137792   5.084   6.640  15.664 -1.4509 -2.9331  1.5290
 5459TIP3    H237793   5.200   6.547  15.639  1.0783 -0.0636  2.3323
 5460TIP3   OH237794   4.373   6.180   1.258 -0.1773 -0.1071 -0.1140
 5460TIP3    H137795   4.442   6.117   1.236  0.3128  0.6514 -0.7968
 5460TIP3    H237796   4.306   6.167   1.191  0.3898  0.8053 -0.8551
 5461TIP3   OH237797   5.921   4.111   5.323  0.4246  0.2350  0.3324
 5461TIP3    H137798   5.896   4.140   5.235 -0.4568 -0.7807  0.2359
 5461TIP3    H237799   5.881   4.174   5.382 -0.7908 -0.2969  0.0920
 5462TIP3   OH237800   5.593   6.787   0.823  0.5050 -0.1045  0.6188
 5462TIP3    H137801   5.636   6.844   0.759  1.8411 -2.6612 -0.8305
 5462TIP3    H237802   5.613   6.827   0.908  1.5466  1.4990 -0.3484
 5463TIP3   OH237803   4.760   2.755  11.199 -0.6550  0.2245 -0.4191
 5463TIP3    H137804   4.751   2.681  11.139  1.3862 -0.0402 -0.4379
 5463TIP3    H237805   4.789   2.716  11.281  1.3713  1.0773 -0.7069
 5464TIP3   OH237806   0.325   6.784  16.585 -0.7842 -0.4635 -0.2818
 5464TIP3    H137807   0.232   6.780  16.563 -1.5188  2.5762  1.9836
 5464TIP3    H237808   0.358   6.860  16.536 -0.3283  0.5847  1.6000
 5465TIP3   OH237809   5.441   1.034   5.529  0.1390  0.5074 -0.3120
 5465TIP3    H137810   5.451   0.977   5.605  0.6451 -2.3179 -2.4606
 5465TIP3    H237811   5.346   1.047   5.521 -0.0317 -0.7191 -0.3001
 5466TIP3   OH237812   3.510   0.419   4.792 -0.0334 -0.2874  0.6532
 5466TIP3    H137813   3.502   0.503   4.747  3.9047 -0.0251  0.2361
 5466TIP3    H237814   3.508   0.441   4.885 -1.6803 -0.0790  0.5843
 5467TIP3   OH237815   6.535   0.866   3.152  0.6328 -0.4725  0.6344
 5467TIP3    H137816   6.580   0.795   3.108 -1.2276 -0.1537 -1.8969
 5467TIP3    H237817   6.491   0.914   3.082 -1.0497  1.0654  2.6576
 5468TIP3   OH237818   1.155   2.451   6.355 -0.8217 -0.3382  0.4290
 5468TIP3    H137819   1.244   2.427   6.378 -0.4306  0.9534  0.2889
 5468TIP3    H237820   1.100   2.393   6.408  0.0965  0.4719  2.2933
 5469TIP3   OH237821   2.926   6.459  13.171  0.2412  0.1770  0.2282
 5469TIP3    H137822   2.866   6.532  13.185  1.0003  0.7467  0.5941
 5469TIP3    H237823   2.870   6.385  13.150 -0.5856  0.7046  0.5472
 5470TIP3   OH237824   2.520   2.760   4.372  0.0724 -0.0292  0.5843
 5470TIP3    H137825   2.600   2.709   4.357  0.6846  0.4617  1.9846
 5470TIP3    H237826   2.451   2.713   4.326  0.9375 -1.1826  0.4588
 5471TIP3   OH237827   4.954   0.113  11.960 -0.3111  0.3169  0.2730
 5471TIP3    H137828   4.897   0.103  12.036 -1.5369  1.1668 -0.5172
 5471TIP3    H237829   4.994   0.199  11.971 -0.6153  0.5114 -0.1083
 5472TIP3   OH237830   4.230   1.737   1.692 -0.4184 -0.0745 -0.2322
 5472TIP3    H137831   4.223   1.642   1.705  1.1129  0.0358  1.4640
 5472TIP3    H237832   4.206   1.775   1.776  0.1730  1.0033 -0.5426
 5473TIP3   OH237833   2.020   0.283  16.646  0.6788 -0.2164  0.1433
 5473TIP3    H137834   2.098   0.320  16.687  0.3315 -0.8330  1.3905
 5473TIP3    H237835   2.040   0.190  16.636  0.5834 -0.1492 -0.6717
 5474TIP3   OH237836   4.867   2.356  17.007 -0.2017 -0.1187  0.5158
 5474TIP3    H137837   4.902   2.293  16.945 -1.5461 -1.4334  1.0504
 5474TIP3    H237838   4.800   2.307  17.056  0.4885  0.9992  2.6657
 5475TIP3   OH237839   1.859   0.494  14.174 -0.4330 -0.1110  0.4549
 5475TIP3    H137840   1.808   0.458  14.246  1.9570 -0.8173  1.8428
 5475TIP3    H237841   1.899   0.417  14.132 -1.2353  0.3482 -1.2046
 5476TIP3   OH237842   4.989   0.776  12.740  0.3975 -0.2700 -0.1926
 5476TIP3    H137843   4.985   0.683  12.762 -0.1005 -0.0549  0.6422
 5476TIP3    H237844   4.928   0.818  12.802 -1.7024  0.2438 -2.5107
 5477TIP3   OH237845   2.128   2.533  13.753 -0.1804 -0.0482  0.0056
 5477TIP3    H137846   2.060   2.601  13.746  0.5741  0.5057 -2.2476
 5477TIP3    H237847   2.079   2.451  13.764 -1.1511  0.5710  0.3481
 5478TIP3   OH237848   1.462   4.494  14.090  0.6940  0.5145  0.6776
 5478TIP3    H137849   1.539   4.550  14.104  0.4553  0.4185  2.5152
 5478TIP3    H237850   1.389   4.556  14.080  0.3424  0.5766  3.2495
 5479TIP3   OH237851   1.834   2.769   5.068  0.4815  0.8320  0.1919
 5479TIP3    H137852   1.812   2.715   5.144 -1.4528 -0.0484 -0.9602
 5479TIP3    H237853   1.912   2.728   5.031 -0.3213 -0.5349 -0.0225
 5480TIP3   OH237854   3.351   6.692  12.969  0.3494 -0.0037  0.2467
 5480TIP3    H137855   3.373   6.648  13.051 -1.6496 -3.3263 -0.9014
 5480TIP3    H237856   3.285   6.757  12.994 -2.2487 -2.8159  0.9797
 5481TIP3   OH237857   2.858   6.092   0.940 -0.4765  0.4251  0.1549
 5481TIP3    H137858   2.802   6.023   0.904 -0.7202  1.7698 -2.1368
 5481TIP3    H237859   2.947   6.061   0.925 -0.5942 -0.4911  1.3395
 5482TIP3   OH237860   1.690   6.553  14.573  1.0689 -0.4852 -0.1699
 5482TIP3    H137861   1.632   6.518  14.640 -0.8210  0.2372 -1.4145
 5482TIP3    H237862   1.765   6.587  14.623 -1.5481  2.6441  1.8953
 5483TIP3   OH237863   2.901   3.849  16.411  0.1497 -0.3589 -0.0522
 5483TIP3    H137864   2.993   3.846  16.436  0.1261 -0.0108  0.0930
 5483TIP3    H237865   2.859   3.781  16.464  0.0936  0.3968  0.9027
 5484TIP3   OH237866   6.435   3.920   0.135 -0.1362  0.5219 -0.3446
 5484TIP3    H137867   6.404   3.897   0.048 -1.1522  0.0425  0.1300
 5484TIP3    H237868   6.506   3.858   0.153 -1.1238 -0.5703 -0.1218
 5485TIP3   OH237869   4.289   3.362   2.244  0.2564  0.2300  0.0108
 5485TIP3    H137870   4.205   3.408   2.249 -0.0449 -0.4096  1.2716
 5485TIP3    H237871   4.296   3.335   2.153 -0.8561  0.4120 -0.1435
 5486TIP3   OH237872   0.432   2.672   1.835 -0.1606  0.1001 -0.1360
 5486TIP3    H137873   0.384   2.753   1.855 -2.4263 -1.1190 -0.4858
 5486TIP3    H237874   0.370   2.602   1.855  1.1067 -1.4876 -1.6547
 5487TIP3   OH237875   5.964   5.358  15.044  0.2694 -0.3769 -0.2227
 5487TIP3    H137876   6.056   5.382  15.051  0.6955 -2.0642  0.3979
 5487TIP3    H237877   5.930   5.371  15.133 -0.3987  1.3497 -0.7081
 5488TIP3   OH237878   4.908   4.201   4.788  0.5037  0.2740  0.1637
 5488TIP3    H137879   4.820   4.236   4.794  0.9947  1.1419  2.6880
 5488TIP3    H237880   4.896   4.108   4.770 -0.8386  1.0731 -3.3774
 5489TIP3   OH237881   1.515   3.743  13.484  0.1326  0.5599 -0.3134
 5489TIP3    H137882   1.584   3.808  13.499  0.7548  0.0835 -1.0739
 5489TIP3    H237883   1.437   3.781  13.525  1.0258  0.7472  1.2811
 5490TIP3   OH237884   4.214   3.972   2.189  0.5190  0.1663 -0.0609
 5490TIP3    H137885   4.120   3.981   2.207  0.3907 -1.7994  0.3681
 5490TIP3    H237886   4.245   4.062   2.176 -1.9165  0.6804 -2.7823
 5491TIP3   OH237887   2.973   0.562   4.436  0.3061  0.1756  0.3028
 5491TIP3    H137888   3.054   0.604   4.466  1.4371 -1.1014 -0.8596
 5491TIP3    H237889   2.937   0.624   4.372  1.4151 -0.1237 -0.6305
 5492TIP3   OH237890   3.635   1.553  16.422 -0.1151  0.0917 -0.2651
 5492TIP3    H137891   3.635   1.638  16.466  0.1953  0.3894 -0.8419
 5492TIP3    H237892   3.542   1.531  16.412 -0.2416  1.1821 -1.6993
 5493TIP3   OH237893   6.211   3.351  14.792 -0.6931 -0.1520  0.4771
 5493TIP3    H137894   6.287   3.294  14.779 -0.8920 -0.6978  1.6311
 5493TIP3    H237895   6.223   3.387  14.880 -2.9237 -2.0544  1.6215
 5494TIP3   OH237896   4.132   3.470   0.408 -0.3249 -0.0629 -0.4111
 5494TIP3    H137897   4.055   3.497   0.458  0.4028  0.4846  0.4209
 5494TIP3    H237898   4.170   3.551   0.376 -0.1870 -0.3448 -0.9688
 5495TIP3   OH237899   1.219   1.842   5.081  0.5294  0.2101  0.1998
 5495TIP3    H137900   1.263   1.910   5.132  0.6827  0.4417 -0.2458
 5495TIP3    H237901   1.227   1.763   5.135  2.2498  0.0437 -0.2555
 5496TIP3   OH237902   4.467   1.326  14.786 -0.2537 -0.4615  0.2035
 5496TIP3    H137903   4.397   1.282  14.833  0.9213 -0.5205  1.9323
 5496TIP3    H237904   4.483   1.406  14.836  1.6088 -0.9506  0.4348
 5497TIP3   OH237905   5.590   1.147   4.938 -0.3672 -0.0624  0.2329
 5497TIP3    H137906   5.635   1.155   5.022 -0.4882 -0.7672  0.3663
 5497TIP3    H237907   5.639   1.205   4.879  0.5759 -0.6410  0.4383
 5498TIP3   OH237908   3.015   5.696   5.028  0.4560  0.0564 -0.4019
 5498TIP3    H137909   3.072   5.643   4.974  1.6799  0.8172  0.1275
 5498TIP3    H237910   3.071   5.765   5.063 -0.3821 -0.2042  1.5399
 5499TIP3   OH237911   4.414   6.096   3.034  0.0769 -0.1165 -0.0409
 5499TIP3    H137912   4.487   6.059   2.985 -0.1072 -0.1625 -0.2827
 5499TIP3    H237913   4.345   6.109   2.968 -0.0917  0.0320  0.1636
 5500TIP3   OH237914   0.552   5.791  15.814 -0.4819 -0.4150 -0.5067
 5500TIP3    H137915   0.635   5.792  15.767  0.6504  0.7649  1.4584
 5500TIP3    H237916   0.539   5.698  15.837  0.7042 -0.4885 -0.1176
 5501TIP3   OH237917   3.041   3.682  14.855 -0.0134 -0.4121 -0.3185
 5501TIP3    H137918   3.007   3.653  14.770 -0.2264 -1.5939  0.1656
 5501TIP3    H237919   2.969   3.670  14.916 -0.5583  2.4164 -0.3238
 5502TIP3   OH237920   1.065   2.257  10.703  0.1534  0.4403 -0.2346
 5502TIP3    H137921   1.017   2.213  10.772  0.1894 -0.7136 -0.9353
 5502TIP3    H237922   1.145   2.205  10.692 -0.0730  0.3397 -1.4714
 5503TIP3   OH237923   0.548   3.276  13.698  0.0410  0.3156 -0.7592
 5503TIP3    H137924   0.511   3.246  13.780  1.8892  0.6696  0.2272
 5503TIP3    H237925   0.474   3.319  13.653 -0.7482  1.0200  1.1436
 5504TIP3   OH237926   5.455   5.406  14.424 -0.9721  0.0670 -0.1080
 5504TIP3    H137927   5.377   5.351  14.430 -0.1290 -1.1342  0.0334
 5504TIP3    H237928   5.465   5.443  14.512 -1.2216 -0.0012 -0.0504
 5505TIP3   OH237929   3.085   3.806   1.364  0.1110  0.0230  0.1650
 5505TIP3    H137930   3.141   3.871   1.408 -0.5470  1.2430 -0.7747
 5505TIP3    H237931   3.011   3.857   1.331 -0.4399 -1.2278 -0.5410
 5506TIP3   OH237932   2.099   0.874  16.252  0.4960 -0.5744  0.4888
 5506TIP3    H137933   2.059   0.935  16.315 -0.5728  1.8190 -2.4030
 5506TIP3    H237934   2.193   0.877  16.274  0.3087  1.2012  1.1694
 5507TIP3   OH237935   2.521   2.831  13.789 -0.5949  0.7936 -0.2469
 5507TIP3    H137936   2.496   2.738  13.783 -1.0844  0.9696 -0.9779
 5507TIP3    H237937   2.437   2.878  13.793 -0.3451  1.0962  1.9238
 5508TIP3   OH237938   0.140   1.595  12.639  0.7349 -0.0257 -0.0361
 5508TIP3    H137939   0.062   1.607  12.584 -0.4634  0.2632  1.6721
 5508TIP3    H237940   0.137   1.669  12.701  1.6534 -0.7513  0.8904
 5509TIP3   OH237941   0.881   0.232   2.922  0.0591 -0.0111  0.0718
 5509TIP3    H137942   0.895   0.241   3.017  0.4311  1.7005 -0.1256
 5509TIP3    H237943   0.930   0.154   2.898 -0.9923 -1.1343  1.4921
 5510TIP3   OH237944   5.581   2.798   4.406  0.5710 -0.1067 -0.2602
 5510TIP3    H137945   5.577   2.714   4.452  0.3687  0.5653  0.9767
 5510TIP3    H237946   5.544   2.781   4.320 -1.4096 -0.8158  0.7108
 5511TIP3   OH237947   0.345   1.142  17.187 -0.2307 -0.0835 -0.3401
 5511TIP3    H137948   0.330   1.157  17.280 -1.6677 -0.6170 -0.4656
 5511TIP3    H237949   0.355   1.048  17.179 -1.0630 -0.1349 -0.8449
 5512TIP3   OH237950   5.404   5.744  11.444 -0.2544 -0.3494  0.0506
 5512TIP3    H137951   5.328   5.785  11.485 -1.0516 -2.3042  0.5523
 5512TIP3    H237952   5.458   5.818  11.417 -1.9565  1.0616  0.3688
 5513TIP3   OH237953   5.094   0.636  11.892 -0.3886  0.0204 -0.7047
 5513TIP3    H137954   5.178   0.644  11.937 -1.8612  1.6821  1.8626
 5513TIP3    H237955   5.106   0.685  11.810  1.0301  0.5157 -0.2202
 5514TIP3   OH237956   0.607   2.145  14.729 -0.2485 -0.3206  0.9279
 5514TIP3    H137957   0.566   2.217  14.777 -0.4215  0.1712  0.0622
 5514TIP3    H237958   0.701   2.160  14.738 -0.2887  0.6891 -0.2304
 5515TIP3   OH237959   0.899   5.021  16.059  0.5561  0.2483 -0.1169
 5515TIP3    H137960   0.882   4.972  16.139  1.0773 -0.3332 -0.3586
 5515TIP3    H237961   0.968   5.083  16.083 -0.1509  0.9233  0.2086
 5516TIP3   OH237962   1.369   4.514  11.565  0.2679 -0.0719  0.1666
 5516TIP3    H137963   1.355   4.494  11.473  0.6616 -1.4997  0.3983
 5516TIP3    H237964   1.282   4.538  11.598 -0.3941 -2.0709 -0.0074
 5517TIP3   OH237965   5.544   0.935   1.936 -0.4752 -0.4487 -0.1687
 5517TIP3    H137966   5.611   0.994   1.970 -0.7715  0.1264 -0.5725
 5517TIP3    H237967   5.482   0.926   2.009 -0.3512 -0.3855 -0.0530
 5518TIP3   OH237968   4.956   1.223  12.427  0.0876 -0.2194  0.1517
 5518TIP3    H137969   5.046   1.254  12.424 -0.5962  1.6618 -2.0261
 5518TIP3    H237970   4.959   1.138  12.382  1.1810 -1.3554  2.2921
 5519TIP3   OH237971   2.996   5.571  11.479  0.2519 -0.1999  0.4817
 5519TIP3    H137972   2.964   5.482  11.494  1.1264 -0.4677  0.7504
 5519TIP3    H237973   3.028   5.570  11.389 -0.9820  0.2193  0.0271
 5520TIP3   OH237974   1.405   3.728   4.247  0.4895 -0.1100 -0.0042
 5520TIP3    H137975   1.445   3.768   4.324 -2.7058 -0.5984  2.0074
 5520TIP3    H237976   1.410   3.795   4.179  1.0091  1.2883  1.3977
 5521TIP3   OH237977   5.350   6.196  12.490 -0.3600 -0.4118 -0.4012
 5521TIP3    H137978   5.363   6.196  12.395 -1.1424  0.0453 -0.5117
 5521TIP3    H237979   5.331   6.104  12.511  0.1218 -0.5699 -0.6382
 5522TIP3   OH237980   2.637   3.664  16.764 -0.4479  0.0640  0.2678
 5522TIP3    H137981   2.672   3.726  16.828  1.5713 -1.0514  0.2968
 5522TIP3    H237982   2.601   3.593  16.816  0.2838 -0.3682  0.1877
 5523TIP3   OH237983   6.286   5.589   3.314  0.2871  0.1459 -0.0428
 5523TIP3    H137984   6.285   5.493   3.316  0.7484  0.1576  2.1371
 5523TIP3    H237985   6.379   5.612   3.307  0.1511  0.4339 -0.9440
 5524TIP3   OH237986   0.082   3.122   1.993  0.2454  0.3083 -0.1170
 5524TIP3    H137987   0.033   3.203   1.979 -1.7167 -0.8610 -0.1609
 5524TIP3    H237988   0.065   3.070   1.915  1.7249 -0.0372 -0.2149
 5525TIP3   OH237989   6.542   4.194  14.552 -0.0433 -0.2898 -0.1572
 5525TIP3    H137990   6.627   4.238  14.552  1.5804 -3.3537 -0.1523
 5525TIP3    H237991   6.511   4.201  14.462  0.4809  0.3080 -0.2920
 5526TIP3   OH237992   0.538   0.344  13.833  0.6231  0.1369 -0.2446
 5526TIP3    H137993   0.458   0.397  13.837  0.1103 -0.7014  0.6711
 5526TIP3    H237994   0.590   0.372  13.908  0.9361  0.2717 -0.5108
 5527TIP3   OH237995   4.887   0.855   4.308  0.3256  0.0942 -0.0799
 5527TIP3    H137996   4.831   0.918   4.263  1.8562  2.0233  0.6281
 5527TIP3    H237997   4.971   0.860   4.262  1.2057  0.3956  1.5106
 5528TIP3   OH237998   1.148   0.232   4.756  0.3738  0.1606 -0.1862
 5528TIP3    H137999   1.174   0.203   4.669 -0.6263 -1.0877 -0.0832
 5528TIP3    H238000   1.053   0.235   4.753  0.3672  0.9842  0.5966
 5529TIP3   OH238001   2.227   0.594   4.571 -0.1770  0.0741 -0.1291
 5529TIP3    H138002   2.235   0.642   4.654 -2.5800  0.4981 -0.1022
 5529TIP3    H238003   2.163   0.526   4.589  1.4454 -1.7035 -0.8540
 5530TIP3   OH238004   1.089   0.071   2.203  0.2352 -0.4376 -0.7722
 5530TIP3    H138005   1.001   0.096   2.176  0.9088  0.2540 -2.4052
 5530TIP3    H238006   1.143   0.148   2.183  0.8536  0.0103  2.2895
 5531TIP3   OH238007   4.893   5.618   2.275  0.1614 -0.0740 -0.4426
 5531TIP3    H138008   4.833   5.609   2.201 -1.4346  1.5924  0.5987
 5531TIP3    H238009   4.953   5.687   2.249  0.0784 -0.0184 -0.4847
 5532TIP3   OH238010   0.045   5.356  13.663 -0.3074  0.3230 -0.3956
 5532TIP3    H138011  -0.033   5.334  13.713 -0.4858  1.3283 -0.2283
 5532TIP3    H238012   0.031   5.446  13.634  0.4814  0.2783 -0.9457
 5533TIP3   OH238013   0.850   3.750   3.735  0.4703 -0.2376  0.5603
 5533TIP3    H138014   0.864   3.836   3.696  1.0820 -0.9210 -0.7934
 5533TIP3    H238015   0.797   3.704   3.670  2.4099 -1.7634 -0.0117
 5534TIP3   OH238016   2.321   2.601   2.237  0.1998 -0.0828  0.8024
 5534TIP3    H138017   2.339   2.537   2.168 -0.2998 -0.7784  1.3110
 5534TIP3    H238018   2.394   2.663   2.231  0.2829 -0.2637 -0.1936
 5535TIP3   OH238019   4.885   0.863   2.084 -0.4707 -0.3423 -0.6218
 5535TIP3    H138020   4.832   0.836   2.158 -0.6178 -0.6067 -0.8211
 5535TIP3    H238021   4.837   0.935   2.044  0.6839  1.2818  0.8260
 5536TIP3   OH238022   6.113   5.322   1.032  0.4981  0.0223  0.3076
 5536TIP3    H138023   6.102   5.230   1.058 -0.0556  0.1855  0.6370
 5536TIP3    H238024   6.078   5.326   0.944  0.1851  0.0026  0.4327
 5537TIP3   OH238025   2.982   6.374  16.694 -0.3050 -0.2397 -0.2874
 5537TIP3    H138026   3.043   6.334  16.755  1.1985 -0.5090 -1.9078
 5537TIP3    H238027   2.944   6.301  16.646  0.8426  0.0972 -1.7705
 5538TIP3   OH238028   5.909   5.021   3.170  0.6993 -0.2284  0.3799
 5538TIP3    H138029   5.828   5.068   3.153  0.7008  0.4675  2.1421
 5538TIP3    H238030   5.911   4.951   3.105 -1.7032 -0.7417  0.8085
 5539TIP3   OH238031   5.364   5.568   4.087 -0.2768  0.0975 -0.3769
 5539TIP3    H138032   5.327   5.638   4.035 -2.4993  0.3147  1.4260
 5539TIP3    H238033   5.319   5.489   4.056  1.0114 -0.3075 -1.2501
 5540TIP3   OH238034   3.320   1.094   0.051 -0.4495  0.0077  0.0028
 5540TIP3    H138035   3.279   1.069  -0.032  1.8470  0.7227 -1.4143
 5540TIP3    H238036   3.370   1.016   0.077  0.7424  0.5746 -0.5459
 5541TIP3   OH238037   5.941   2.721  12.568  0.1219  0.2733  0.1065
 5541TIP3    H138038   5.880   2.697  12.498 -0.8436 -1.5341  1.5493
 5541TIP3    H238039   6.021   2.674  12.547  0.6951  1.7602 -1.1671
 5542TIP3   OH238040   2.405   1.902  15.323 -0.2792  0.2200 -0.4966
 5542TIP3    H138041   2.399   1.967  15.252  1.3940  1.4403  0.4294
 5542TIP3    H238042   2.499   1.886  15.333 -0.6521 -2.2271 -0.5580
 5543TIP3   OH238043   3.380   6.763  15.531  0.2304  0.1271 -0.2492
 5543TIP3    H138044   3.349   6.742  15.443  2.0481  0.0231 -0.8854
 5543TIP3    H238045   3.434   6.841  15.519  0.2385  0.2912  0.8210
 5544TIP3   OH238046   1.734   4.870   3.620 -0.3825 -0.3987 -0.1044
 5544TIP3    H138047   1.711   4.960   3.642 -1.0520 -0.2314 -1.4283
 5544TIP3    H238048   1.652   4.822   3.626  0.2076 -1.1811  1.8221
 5545TIP3   OH238049   2.554   3.311   4.327  0.0685  0.4874  0.4039
 5545TIP3    H138050   2.517   3.230   4.292  1.8204 -0.5623  0.8669
 5545TIP3    H238051   2.498   3.333   4.401 -0.5755 -0.1618  0.1217
 5546TIP3   OH238052   1.276   4.672   4.484 -0.6617  0.4821  0.9679
 5546TIP3    H138053   1.303   4.601   4.543 -0.0938  1.7903  2.3292
 5546TIP3    H238054   1.346   4.737   4.492  0.8459 -0.4615 -3.3208
 5547TIP3   OH238055   6.317   0.946  12.357  0.6217  0.8177  0.1071
 5547TIP3    H138056   6.341   0.974  12.269 -0.7101 -0.6879 -0.7501
 5547TIP3    H238057   6.224   0.967  12.365  0.3955 -0.3462  0.6360
 5548TIP3   OH238058   2.153   1.810   6.191 -0.5268  0.2818 -0.1278
 5548TIP3    H138059   2.225   1.872   6.205 -1.7100  1.6769 -0.1247
 5548TIP3    H238060   2.158   1.787   6.099 -1.6801  2.4302 -0.7464
 5549TIP3   OH238061   0.501   5.242  11.684  0.5981  0.0995  0.0596
 5549TIP3    H138062   0.514   5.201  11.598 -2.8950 -1.9372  0.3868
 5549TIP3    H238063   0.490   5.168  11.743 -1.2138  1.5087  1.5196
 5550TIP3   OH238064   0.505   5.734  12.541  0.3722 -0.0156  0.1573
 5550TIP3    H138065   0.510   5.640  12.557  0.4795  0.0720  0.6368
 5550TIP3    H238066   0.555   5.747  12.460  1.9642 -0.1211  1.1011
 5551TIP3   OH238067   0.328   6.619   0.061  0.6011  0.7048  0.5226
 5551TIP3    H138068   0.307   6.526   0.053 -1.4786  1.1395  0.5277
 5551TIP3    H238069   0.420   6.625   0.036  0.3844 -1.1474 -0.8474
 5552TIP3   OH238070   2.403   4.291  16.105 -0.0516 -0.4483 -0.5554
 5552TIP3    H138071   2.326   4.286  16.048 -0.0637 -1.7596 -0.4511
 5552TIP3    H238072   2.433   4.381  16.097 -1.4899  0.0292 -0.7440
 5553TIP3   OH238073   3.956   1.546  15.269 -0.5699 -0.2391  0.3354
 5553TIP3    H138074   3.910   1.576  15.190 -1.4815  1.4334  1.4725
 5553TIP3    H238075   3.917   1.461  15.288 -1.8105  0.2659  0.1356
 5554TIP3   OH238076   2.819   5.078  10.689  0.2312  0.0390  0.6290
 5554TIP3    H138077   2.844   5.135  10.616  2.5836 -1.2985  0.3266
 5554TIP3    H238078   2.881   5.099  10.758  1.3801 -2.3466  0.3877
 5555TIP3   OH238079   5.038   5.447  12.493 -0.1947 -0.1598 -0.1109
 5555TIP3    H138080   5.094   5.381  12.452 -0.4246  0.6146 -1.7115
 5555TIP3    H238081   4.970   5.396  12.537 -0.3828 -0.9961 -1.3463
 5556TIP3   OH238082   5.192   0.275   3.348 -0.0527 -0.3340  0.5116
 5556TIP3    H138083   5.260   0.217   3.316  0.3577 -0.5468  1.7281
 5556TIP3    H238084   5.218   0.296   3.438 -1.0357  0.4276  0.6363
 5557TIP3   OH238085   0.251   5.664  13.463 -0.1946 -0.1969  1.0202
 5557TIP3    H138086   0.199   5.667  13.543 -0.5599 -1.4934  0.8296
 5557TIP3    H238087   0.342   5.660  13.493 -0.0170  3.8054  1.3716
 5558TIP3   OH238088   2.071   1.631   1.913 -0.3514  0.6573  0.1387
 5558TIP3    H138089   2.145   1.640   1.853 -0.7991  2.4839 -0.1832
 5558TIP3    H238090   2.092   1.687   1.987 -0.6441 -0.1387  0.8273
 5559TIP3   OH238091   5.050   3.229   1.110 -0.2120  0.0643 -0.8920
 5559TIP3    H138092   4.994   3.298   1.145 -0.3278 -0.4501 -0.0472
 5559TIP3    H238093   5.126   3.229   1.168 -0.8725 -1.4852 -0.0025
 5560TIP3   OH238094   0.541   0.482   1.715  0.5811 -0.3736  0.3345
 5560TIP3    H138095   0.627   0.452   1.745  0.0286 -1.5896  0.7482
 5560TIP3    H238096   0.533   0.447   1.627  0.1660 -0.9830  0.6101
 5561TIP3   OH238097   4.371   5.449  14.669  0.0616 -0.3725 -0.6995
 5561TIP3    H138098   4.345   5.358  14.685 -1.1448  0.0338 -0.3218
 5561TIP3    H238099   4.339   5.497  14.745  1.3014  0.2623 -0.5712
 5562TIP3   OH238100   0.006   4.829   2.118  0.4517 -0.3037 -0.1889
 5562TIP3    H138101   0.075   4.895   2.117  1.5001 -1.3251  1.7290
 5562TIP3    H238102   0.025   4.776   2.195 -2.7716 -0.3353  0.6363
 5563TIP3   OH238103   4.259   6.663   1.467  0.7951  0.5664 -0.8673
 5563TIP3    H138104   4.213   6.587   1.430 -0.7396  1.3010 -0.4964
 5563TIP3    H238105   4.310   6.697   1.394 -2.7299  2.4228 -2.5962
 5564TIP3   OH238106   0.397   3.157  12.036 -0.0019 -0.1530  0.3692
 5564TIP3    H138107   0.345   3.209  12.098  3.1150 -0.3562  3.3554
 5564TIP3    H238108   0.426   3.219  11.970  0.2239  1.0542  1.5806
 5565TIP3   OH238109   5.708   0.042   2.193  0.3361 -0.6616  0.1900
 5565TIP3    H138110   5.692  -0.034   2.249 -0.5144 -0.7819 -0.2082
 5565TIP3    H238111   5.634   0.043   2.132 -0.8721  1.7829  1.6071
 5566TIP3   OH238112   4.495   1.636  13.011 -0.3642 -0.0652  0.8472
 5566TIP3    H138113   4.510   1.684  13.093  0.4078  0.7243  0.2547
 5566TIP3    H238114   4.583   1.619  12.978 -0.6829 -0.1917  0.0702
 5567TIP3   OH238115   1.771   1.002   3.646 -0.0412 -0.0407 -0.0410
 5567TIP3    H138116   1.780   1.097   3.639  1.4389 -0.2608 -1.4416
 5567TIP3    H238117   1.680   0.988   3.671 -0.2553  1.7492  0.2273
 5568TIP3   OH238118   3.780   3.840  13.007 -0.5875  0.1882  0.7073
 5568TIP3    H138119   3.845   3.910  13.001  0.2876 -0.6550  0.2391
 5568TIP3    H238120   3.701   3.878  12.969 -0.2124  1.0360  0.7669
 5569TIP3   OH238121   5.702   0.264  12.816 -0.5626 -0.3596  0.2752
 5569TIP3    H138122   5.702   0.186  12.871 -0.4195 -2.2279 -2.2992
 5569TIP3    H238123   5.794   0.290  12.813 -0.5659 -0.2664  0.8804
 5570TIP3   OH238124   1.476   6.297  11.518 -0.2161  0.7871  0.2981
 5570TIP3    H138125   1.388   6.277  11.486  0.8891 -2.8247 -0.8117
 5570TIP3    H238126   1.463   6.359  11.589 -3.4927  1.7570 -1.0386
 5571TIP3   OH238127   4.339   6.436  15.314 -0.0970 -0.0843  0.0814
 5571TIP3    H138128   4.303   6.394  15.236  0.8960  0.3109 -0.5952
 5571TIP3    H238129   4.415   6.382  15.337  1.4457  1.5500 -1.0529
 5572TIP3   OH238130   3.561   2.134  12.612  0.3177 -0.0438  0.5168
 5572TIP3    H138131   3.650   2.147  12.577  0.5525  0.9422  1.4391
 5572TIP3    H238132   3.527   2.059  12.564  1.7233 -0.5389  0.2742
 5573TIP3   OH238133   0.239   0.930   4.783  0.1389  0.5415 -0.1150
 5573TIP3    H138134   0.330   0.961   4.785  0.2753  0.2220 -1.0169
 5573TIP3    H238135   0.233   0.869   4.856  0.5384  0.8530  0.1840
 5574TIP3   OH238136   5.242   6.645  12.346 -0.0953 -0.0632  0.3542
 5574TIP3    H138137   5.191   6.712  12.301 -1.2459 -1.9252 -1.2162
 5574TIP3    H238138   5.312   6.623  12.285  0.9609  0.5151  1.3426
 5575TIP3   OH238139   3.664   5.807   2.156  0.2729  0.3955 -0.3742
 5575TIP3    H138140   3.717   5.728   2.166 -1.1305 -0.4019  0.9376
 5575TIP3    H238141   3.723   5.870   2.115  1.4291 -1.3096 -1.4077
 5576TIP3   OH238142   0.544   4.412   4.852 -0.2601 -0.1124  0.4073
 5576TIP3    H138143   0.543   4.439   4.760  0.2001  1.3951  0.8202
 5576TIP3    H238144   0.452   4.403   4.876 -0.3680 -1.0683 -0.3518
 5577TIP3   OH238145   0.668   4.013   4.163 -0.3306 -0.1704 -0.0613
 5577TIP3    H138146   0.721   4.006   4.084 -1.1462 -0.8105 -0.5645
 5577TIP3    H238147   0.709   4.083   4.214  1.1264 -0.8016 -0.3304
 5578TIP3   OH238148   6.128   5.761   4.098 -0.0741 -0.0282 -0.5996
 5578TIP3    H138149   6.077   5.748   4.019 -0.4477  0.7641 -0.4991
 5578TIP3    H238150   6.188   5.686   4.102 -0.3674 -0.3007 -1.3823
 5579TIP3   OH238151   0.252   3.934  16.763 -0.1814 -0.6176  0.0625
 5579TIP3    H138152   0.168   3.962  16.726  0.0122  0.7755  0.6599
 5579TIP3    H238153   0.238   3.936  16.858  0.4573 -0.6278  0.1559
 5580TIP3   OH238154   6.481   3.958  14.339 -0.1600  0.0184  0.4484
 5580TIP3    H138155   6.534   3.903  14.397  0.2190 -0.5876 -0.4684
 5580TIP3    H238156   6.399   3.910  14.330  0.4498 -0.7800 -0.9570
 5581TIP3   OH238157   4.681   4.122  15.313 -0.1965  0.1987 -0.5051
 5581TIP3    H138158   4.710   4.068  15.239 -0.3574 -2.3814  1.2408
 5581TIP3    H238159   4.587   4.104  15.320 -0.1726  0.3823  0.3303
 5582TIP3   OH238160   1.483   4.090   3.303 -0.1021  0.4802  0.2191
 5582TIP3    H138161   1.532   4.084   3.385  0.2598 -0.1667 -0.0419
 5582TIP3    H238162   1.515   4.171   3.262  1.1856 -0.2316 -0.2188
 5583TIP3   OH238163   5.701   1.798  16.673  0.0411 -0.2903 -0.4459
 5583TIP3    H138164   5.780   1.845  16.699 -0.6791  1.1316 -0.8097
 5583TIP3    H238165   5.724   1.755  16.591  0.0834  1.1006 -1.1780
 5584TIP3   OH238166   3.804   0.364  10.972  0.1817 -0.5147  0.1028
 5584TIP3    H138167   3.893   0.353  10.936 -0.2994  0.4174 -1.4053
 5584TIP3    H238168   3.784   0.457  10.958  0.2859  0.1199  3.5815
 5585TIP3   OH238169   3.370   3.169  14.077 -0.4407  0.8609 -0.3121
 5585TIP3    H138170   3.278   3.150  14.094  0.0198 -0.7537  0.5016
 5585TIP3    H238171   3.387   3.250  14.125 -1.0692  0.3667  0.7755
 5586TIP3   OH238172   0.561   3.396  15.293 -0.9277 -0.2143 -0.1809
 5586TIP3    H138173   0.612   3.369  15.216 -0.5166 -0.7913  0.2956
 5586TIP3    H238174   0.578   3.490  15.300  0.1316 -0.4145  0.0101
 5587TIP3   OH238175   4.434   3.845   1.681  0.0719  0.7867  0.4647
 5587TIP3    H138176   4.419   3.916   1.619  1.4277 -0.2607 -1.1493
 5587TIP3    H238177   4.414   3.765   1.631  0.3536 -0.0399  1.6435
 5588TIP3   OH238178   4.136   0.819  15.492  0.2741 -0.7206 -0.0185
 5588TIP3    H138179   4.119   0.912  15.504  0.4148 -0.7185  0.1681
 5588TIP3    H238180   4.061   0.787  15.443 -0.6113 -0.8637  1.4034
 5589TIP3   OH238181   5.125   2.134   3.212 -0.0220 -0.2298 -0.0834
 5589TIP3    H138182   5.033   2.143   3.185 -0.0817  1.1078  0.4866
 5589TIP3    H238183   5.173   2.122   3.131 -0.6064  0.0504 -0.4769
 5590TIP3   OH238184   6.618   5.705  14.465 -0.0076  0.5996  0.3067
 5590TIP3    H138185   6.626   5.723  14.558  1.1043  1.4633  0.0489
 5590TIP3    H238186   6.705   5.723  14.429 -0.9874  2.3280 -1.2532
 5591TIP3   OH238187   1.891   2.428  13.575 -0.2043  0.2359 -0.3141
 5591TIP3    H138188   1.971   2.445  13.526 -0.4068  0.1288 -0.6845
 5591TIP3    H238189   1.839   2.372  13.517 -0.8870  0.9544 -0.4069
 5592TIP3   OH238190   1.308   1.620  12.824 -0.0692  0.1669 -0.4494
 5592TIP3    H138191   1.365   1.617  12.901 -1.5438  0.8913  0.7098
 5592TIP3    H238192   1.316   1.534  12.784  0.5122 -0.3096  0.6761
 5593TIP3   OH238193   6.001   4.939  11.855  0.2264 -0.7303 -0.1762
 5593TIP3    H138194   6.052   4.955  11.776  0.0472  0.0625 -0.1287
 5593TIP3    H238195   5.943   5.014  11.862 -0.2032 -1.1063  0.3631
 5594TIP3   OH238196   3.919   3.945  16.302 -0.1615 -0.2687  0.1796
 5594TIP3    H138197   3.982   3.873  16.305  0.4820  0.3286  1.4297
 5594TIP3    H238198   3.967   4.017  16.261 -0.7258 -0.4738 -0.8472
 5595TIP3   OH238199   4.456   0.698  14.979 -0.0152  0.2981  0.2484
 5595TIP3    H138200   4.549   0.689  14.958  0.9145  0.5963  3.8872
 5595TIP3    H238201   4.444   0.643  15.057 -2.5123  1.6087  0.8261
 5596TIP3   OH238202   6.623   0.427   1.789  0.1170  0.3722  0.2135
 5596TIP3    H138203   6.630   0.505   1.844 -0.1812 -0.4820  1.4893
 5596TIP3    H238204   6.712   0.410   1.759  0.1895  1.1627 -0.0264
 5597TIP3   OH238205   1.939   3.991   0.955 -0.1987  0.1419 -0.2810
 5597TIP3    H138206   1.993   4.034   0.888 -0.2809  1.1358  0.2739
 5597TIP3    H238207   1.999   3.976   1.029 -0.5033  0.5903  0.0618
 5598TIP3   OH238208   3.664   6.706  15.848  0.3210  0.1618  0.3646
 5598TIP3    H138209   3.760   6.706  15.841  0.2923  0.3410 -0.0974
 5598TIP3    H238210   3.642   6.617  15.875  0.6367  0.1872  0.7030
 5599TIP3   OH238211   5.461   0.758   6.291  0.5788  0.4483 -0.2511
 5599TIP3    H138212   5.434   0.818   6.221  1.5002 -0.4442 -1.3827
 5599TIP3    H238213   5.521   0.697   6.249  1.6228  0.2604  1.4570
 5600TIP3   OH238214   4.348   4.645   0.442 -0.0883 -0.0569 -0.1746
 5600TIP3    H138215   4.376   4.596   0.365  0.5731 -0.1710  0.1429
 5600TIP3    H238216   4.255   4.623   0.451 -0.2825  0.2753 -1.1797
 5601TIP3   OH238217   4.777   2.604   4.547  0.1577 -0.2054  0.2985
 5601TIP3    H138218   4.811   2.552   4.620 -1.2094 -0.4834  0.7569
 5601TIP3    H238219   4.682   2.609   4.563 -0.3928 -1.5147 -2.2139
 5602TIP3   OH238220   5.805   0.694  16.131  0.5159  0.7329  0.0784
 5602TIP3    H138221   5.875   0.630  16.138 -1.2933 -1.2802  0.3191
 5602TIP3    H238222   5.815   0.731  16.043  2.2704  0.9724  0.3643
 5603TIP3   OH238223   2.909   1.613  14.936  0.1784  0.1497 -0.0259
 5603TIP3    H138224   2.821   1.580  14.922 -0.1611  1.0810 -0.0792
 5603TIP3    H238225   2.955   1.540  14.979 -1.1205  0.2871  1.6691
 5604TIP3   OH238226   4.370   1.268   0.515 -0.7808 -0.1729 -0.7521
 5604TIP3    H138227   4.459   1.275   0.549 -0.8237 -0.4550 -0.5790
 5604TIP3    H238228   4.318   1.327   0.570 -0.5350  0.6970 -1.4407
 5605TIP3   OH238229   0.789   3.820  13.065  0.0168 -0.2289  0.5128
 5605TIP3    H138230   0.698   3.810  13.095 -0.2651  0.0866 -0.2145
 5605TIP3    H238231   0.842   3.789  13.138 -0.6121  1.9967  1.9701
 5606TIP3   OH238232   4.988   5.653   0.348 -0.4411 -0.6393 -0.1177
 5606TIP3    H138233   5.079   5.679   0.367 -1.2481  0.9579  1.7127
 5606TIP3    H238234   4.991   5.557   0.345  0.9594 -0.7082  1.9659
 5607TIP3   OH238235   0.644   0.179   3.837 -0.0291 -0.4019 -0.7905
 5607TIP3    H138236   0.669   0.269   3.856  0.2374 -0.6997  0.3177
 5607TIP3    H238237   0.549   0.181   3.827 -0.0152  0.0168 -0.8199
 5608TIP3   OH238238   3.438   5.613   4.626 -0.1494 -0.5309 -0.3335
 5608TIP3    H138239   3.408   5.522   4.629 -0.6662 -0.3678 -0.3950
 5608TIP3    H238240   3.392   5.650   4.550 -1.5981  0.3615  0.9619
 5609TIP3   OH238241   3.622   4.115  13.092  0.1462 -0.2394 -0.2582
 5609TIP3    H138242   3.561   4.177  13.052  1.9482  2.3719  0.8878
 5609TIP3    H238243   3.695   4.169  13.121  1.5753 -2.8761  1.2174
 5610TIP3   OH238244   0.127   4.708   1.914  0.2959  0.3658 -0.1619
 5610TIP3    H138245   0.172   4.631   1.948  1.8690  1.2507 -0.1663
 5610TIP3    H238246   0.072   4.738   1.987  1.6870  0.7485  0.7594
 5611TIP3   OH238247   5.968   2.150   5.072  0.3714  0.4995 -0.2090
 5611TIP3    H138248   6.009   2.068   5.045 -1.0650 -0.3892  0.2581
 5611TIP3    H238249   5.985   2.156   5.166  0.1113  0.5126 -0.1609
 5612TIP3   OH238250   5.962   2.687   4.902 -1.1918  0.5229 -0.6365
 5612TIP3    H138251   6.036   2.740   4.873 -1.2908  0.8869 -0.2285
 5612TIP3    H238252   5.991   2.596   4.892 -0.8757  0.6616 -0.9556
 5613TIP3   OH238253   3.664   5.174  14.618 -0.2102 -0.2590 -0.7347
 5613TIP3    H138254   3.635   5.088  14.589  0.3105  0.0797 -2.3233
 5613TIP3    H238255   3.696   5.217  14.538  1.1632  0.7507  0.3331
 5614TIP3   OH238256   0.036   0.074   3.036 -0.1196  0.2708 -0.5559
 5614TIP3    H138257  -0.005  -0.007   3.065 -0.3521  0.1616 -1.2032
 5614TIP3    H238258   0.029   0.132   3.112  0.2061 -0.3650 -0.0343
 5615TIP3   OH238259   0.339   1.757   3.898  0.3820  0.1554 -0.3931
 5615TIP3    H138260   0.265   1.783   3.843 -1.0279 -0.4119  1.1986
 5615TIP3    H238261   0.340   1.820   3.970 -0.5886 -1.7464  1.3376
 5616TIP3   OH238262   1.892   4.846  14.478  0.1783 -0.2744  0.3210
 5616TIP3    H138263   1.834   4.904  14.428  0.0539 -0.6034  0.0834
 5616TIP3    H238264   1.892   4.883  14.567  1.6659  1.2612 -0.2871
 5617TIP3   OH238265   2.368   2.222   1.904 -0.3655 -0.4330 -0.3020
 5617TIP3    H138266   2.440   2.159   1.902 -0.3207 -0.4400  1.1906
 5617TIP3    H238267   2.331   2.214   1.991 -1.5492  0.2943 -0.7201
 5618TIP3   OH238268   5.139   1.250  14.908 -0.0095  0.4723 -0.3830
 5618TIP3    H138269   5.104   1.200  14.981  0.8928 -0.4502 -0.5655
 5618TIP3    H238270   5.233   1.229  14.907  0.2893  1.7616 -0.7868
 5619TIP3   OH238271   2.989   4.036   5.722  0.0266  0.5276  0.5506
 5619TIP3    H138272   3.005   3.951   5.764  0.3376 -0.5504 -1.6433
 5619TIP3    H238273   3.043   4.034   5.643  1.0588  3.3474  1.1572
 5620TIP3   OH238274   3.813   5.647   4.223 -0.2228 -0.3999 -0.1252
 5620TIP3    H138275   3.837   5.579   4.286  0.9775  0.3751  0.2601
 5620TIP3    H238276   3.885   5.709   4.226 -0.6989  0.2294 -1.4338
 5621TIP3   OH238277   0.191   1.289   6.378 -0.3190  0.4227 -0.0013
 5621TIP3    H138278   0.224   1.284   6.468  0.7279 -2.6367 -0.4718
 5621TIP3    H238279   0.109   1.240   6.381 -1.5069  2.3926 -0.2205
 5622TIP3   OH238280   5.299   0.745  15.579 -0.1368  0.0230 -0.4651
 5622TIP3    H138281   5.366   0.680  15.556  0.6413 -0.0794  1.9690
 5622TIP3    H238282   5.348   0.827  15.586 -0.2517 -0.0442  1.2875
 5623TIP3   OH238283   5.914   3.137   3.407 -0.1463 -0.8478 -0.1406
 5623TIP3    H138284   5.835   3.090   3.380 -1.1277 -0.3375  1.7838
 5623TIP3    H238285   5.948   3.176   3.326 -1.0586 -2.2545 -1.2132
 5624TIP3   OH238286   3.402   5.390   4.983  0.0124 -0.1273 -0.7143
 5624TIP3    H138287   3.482   5.381   4.931  0.7652 -0.7844  0.5402
 5624TIP3    H238288   3.432   5.388   5.074 -1.3823  0.1134 -0.2388
 5625TIP3   OH238289   3.428   3.270  13.491 -0.1671 -0.4434 -0.3563
 5625TIP3    H138290   3.517   3.269  13.526 -0.1940  0.4951 -0.2378
 5625TIP3    H238291   3.437   3.235  13.402  0.0490 -1.9452  0.2361
 5626TIP3   OH238292   2.949   4.145  13.499 -0.0798 -0.2519  0.1720
 5626TIP3    H138293   2.967   4.058  13.534 -0.4396  0.6126  2.6185
 5626TIP3    H238294   2.915   4.129  13.411  0.5675 -2.5341  0.3006
 5627TIP3   OH238295   6.133   2.804   0.232 -0.4784 -0.2493 -0.2982
 5627TIP3    H138296   6.183   2.838   0.306 -1.6666 -0.1194  0.4559
 5627TIP3    H238297   6.130   2.877   0.170  1.3883 -0.6879 -0.9440
 5628TIP3   OH238298   1.815   1.283   1.008  0.2881 -0.2726 -0.3134
 5628TIP3    H138299   1.907   1.304   1.026 -0.2181  1.1044  0.7749
 5628TIP3    H238300   1.777   1.367   0.981 -1.4865 -0.0105  2.7753
 5629TIP3   OH238301   3.246   2.997  12.847  0.4060  0.2871 -0.0858
 5629TIP3    H138302   3.240   2.987  12.942  0.4392  0.1828 -0.0940
 5629TIP3    H238303   3.169   2.952  12.814  1.2469 -1.1052 -0.2069
 5630TIP3   OH238304   4.908   0.278   1.000  0.2580  0.0159 -0.1053
 5630TIP3    H138305   4.913   0.294   1.094  0.7170  1.0218 -0.2860
 5630TIP3    H238306   4.821   0.310   0.974  0.1418 -0.2358 -0.0243
 5631TIP3   OH238307   6.429   2.792   5.125  0.2589  0.2018 -0.2111
 5631TIP3    H138308   6.385   2.835   5.052  0.3522  0.1740 -0.2835
 5631TIP3    H238309   6.497   2.854   5.152 -0.8577  0.9547  0.9361
 5632TIP3   OH238310   2.873   1.317  13.459  0.2585  0.5656 -0.4751
 5632TIP3    H138311   2.780   1.296  13.461  0.1926  0.7604 -1.2192
 5632TIP3    H238312   2.878   1.401  13.412  0.9338 -0.1892 -1.7936
 5633TIP3   OH238313   6.500   0.831  16.661 -0.3924 -0.1158 -0.4504
 5633TIP3    H138314   6.408   0.809  16.670 -0.0409 -1.2625  0.4423
 5633TIP3    H238315   6.505   0.925  16.681 -1.6054  0.3579 -2.2818
 5634TIP3   OH238316   0.595   0.349   1.474 -0.8453  0.6757  0.1286
 5634TIP3    H138317   0.609   0.408   1.399 -1.9763 -0.1972 -0.7861
 5634TIP3    H238318   0.683   0.329   1.506 -0.3587  1.1233 -0.9167
 5635TIP3   OH238319   3.378   4.692  11.090  0.9116  0.5634 -0.3457
 5635TIP3    H138320   3.432   4.758  11.134 -0.4949  1.3623  0.2032
 5635TIP3    H238321   3.344   4.736  11.013  0.7531  0.1730 -0.4996
 5636TIP3   OH238322   5.446   6.192  13.843  0.4648  0.1863 -0.5785
 5636TIP3    H138323   5.369   6.137  13.856  2.6678 -2.2349  3.1068
 5636TIP3    H238324   5.500   6.144  13.780  0.9077 -0.2652  0.1435
 5637TIP3   OH238325   5.730   6.248   1.341 -0.2170 -0.0997 -0.2436
 5637TIP3    H138326   5.675   6.326   1.346 -0.2798 -0.1147 -0.6255
 5637TIP3    H238327   5.759   6.232   1.430  0.4979  0.8708 -0.2965
 5638TIP3   OH238328   2.333   5.133   2.170  0.3001  0.4544  0.2569
 5638TIP3    H138329   2.281   5.054   2.153  1.2723 -0.0193 -0.5171
 5638TIP3    H238330   2.298   5.166   2.253 -2.1721  0.9221 -0.9246
 5639TIP3   OH238331   1.811   1.057  15.163 -0.1283  0.2162 -0.6170
 5639TIP3    H138332   1.742   0.994  15.187 -0.7974  1.0087 -0.4449
 5639TIP3    H238333   1.883   1.002  15.131 -0.7956 -0.6302 -0.6954
 5640TIP3   OH238334   0.932   4.362  14.161  0.2546  0.2558  0.3818
 5640TIP3    H138335   0.912   4.417  14.236 -0.1854  0.9276 -0.2166
 5640TIP3    H238336   1.027   4.367  14.151  0.4122 -0.5260  1.4080
 5641TIP3   OH238337   6.314   0.017  13.073 -0.1671  0.0003 -0.5494
 5641TIP3    H138338   6.383  -0.049  13.068 -1.2475 -1.4238  2.3577
 5641TIP3    H238339   6.232  -0.033  13.071 -1.0120  1.2148  1.4231
 5642TIP3   OH238340   1.292   5.131  13.320 -0.2561 -0.0633  0.1130
 5642TIP3    H138341   1.350   5.093  13.254  1.8666  2.3356  0.4950
 5642TIP3    H238342   1.321   5.092  13.403 -1.6418 -1.6074 -0.1025
 5643TIP3   OH238343   1.061   2.428   2.920  0.0646  0.3289 -0.2876
 5643TIP3    H138344   1.127   2.423   2.989  0.0134  2.7622 -0.0210
 5643TIP3    H238345   1.109   2.415   2.839  0.5199 -0.0487  0.0441
 5644TIP3   OH238346   4.458   2.776  11.201 -0.1950 -0.1061  0.4056
 5644TIP3    H138347   4.410   2.800  11.122  0.1443 -2.1502 -0.4629
 5644TIP3    H238348   4.550   2.779  11.174 -0.0269  0.1096  1.0009
 5645TIP3   OH238349   6.772   3.665   5.814 -0.0790 -0.0482  0.2721
 5645TIP3    H138350   6.783   3.636   5.904 -1.1742 -1.1453  0.0734
 5645TIP3    H238351   6.776   3.584   5.762  1.2920  0.6476 -0.7431
 5646TIP3   OH238352   5.763   0.358   1.882 -0.3561  0.0553 -0.3690
 5646TIP3    H138353   5.810   0.417   1.822 -1.2056 -0.4575 -1.5606
 5646TIP3    H238354   5.833   0.306   1.923  0.3191  1.1841 -0.0718
 5647TIP3   OH238355   2.510   2.665   4.113 -0.3606  0.1785  0.1591
 5647TIP3    H138356   2.569   2.596   4.082 -0.5691  0.0193  0.1130
 5647TIP3    H238357   2.561   2.745   4.106  0.1210 -0.0652  0.8712
 5648TIP3   OH238358   1.178   6.235   4.995 -0.5641 -0.0329  0.4175
 5648TIP3    H138359   1.254   6.180   4.973 -0.7807  0.2192 -0.9933
 5648TIP3    H238360   1.212   6.324   4.990 -0.5826  0.0261  1.2785
 5649TIP3   OH238361   4.137   0.531  12.100 -0.1662 -0.4905  0.1181
 5649TIP3    H138362   4.161   0.622  12.119  0.5237 -0.0639 -2.5664
 5649TIP3    H238363   4.169   0.516  12.011 -0.7308 -3.2155  0.3278
 5650TIP3   OH238364   0.398   2.760   3.502 -0.2582 -0.0049  0.4778
 5650TIP3    H138365   0.377   2.708   3.580 -1.5715 -1.2832 -0.7091
 5650TIP3    H238366   0.385   2.851   3.531  0.2106 -0.4097  2.0264
 5651TIP3   OH238367   3.195   3.251  11.015  0.2464  0.3751 -0.0199
 5651TIP3    H138368   3.119   3.309  11.008  0.8529  1.3465  1.1941
 5651TIP3    H238369   3.198   3.226  11.107  0.3295 -1.1431 -0.4364
 5652TIP3   OH238370   0.248   1.402   6.133 -0.2626 -0.0470 -0.0255
 5652TIP3    H138371   0.219   1.394   6.224  0.0500  0.3850  0.1171
 5652TIP3    H238372   0.198   1.337   6.085 -0.3744 -0.3259  0.4731
 5653TIP3   OH238373   0.674   0.736   1.653 -0.0916  0.6679 -0.6794
 5653TIP3    H138374   0.607   0.683   1.611 -0.0467 -1.5319  1.8628
 5653TIP3    H238375   0.636   0.762   1.737  1.4086  1.2526 -0.1471
 5654TIP3   OH238376   0.335   5.281   1.210 -0.1896 -0.6613 -0.4769
 5654TIP3    H138377   0.283   5.285   1.130  1.0478 -2.1307 -1.3788
 5654TIP3    H238378   0.301   5.205   1.257  0.5002 -1.0733 -0.6328
 5655TIP3   OH238379   3.153   4.952   0.879  0.5899  0.1006  0.1197
 5655TIP3    H138380   3.097   4.950   0.801  0.0846  0.7483  0.4644
 5655TIP3    H238381   3.106   4.900   0.944  1.2374 -0.8392 -0.1454
 5656TIP3   OH238382   6.765   2.599  12.687 -0.8235 -0.8526 -0.0828
 5656TIP3    H138383   6.735   2.685  12.660 -0.7997 -0.9789 -0.5101
 5656TIP3    H238384   6.797   2.558  12.607  0.5365 -0.6985  0.3555
 5657TIP3   OH238385   4.494   3.925  11.592  1.2298 -0.0654  0.1950
 5657TIP3    H138386   4.582   3.895  11.569  0.9169 -0.9663  0.1341
 5657TIP3    H238387   4.487   4.012  11.554  1.3160 -0.8641 -1.6977
 5658TIP3   OH238388   5.771   2.991   3.768 -0.1651  0.2706 -0.6311
 5658TIP3    H138389   5.764   2.955   3.856  0.0282  3.3161  0.6869
 5658TIP3    H238390   5.865   3.000   3.753 -0.1793 -0.7168 -1.3698
 5659TIP3   OH238391   2.229   1.926  12.936  0.2806 -0.1277 -0.2622
 5659TIP3    H138392   2.272   1.926  13.022 -0.5878 -2.6615  0.1942
 5659TIP3    H238393   2.288   1.875  12.880  0.8964  1.5982 -1.2304
 5660TIP3   OH238394   0.545   5.428  12.109  0.0388  0.4893 -0.1960
 5660TIP3    H138395   0.490   5.491  12.156 -1.6323 -0.9512 -0.1679
 5660TIP3    H238396   0.541   5.456  12.017  0.4660  1.2531  0.0142
 5661TIP3   OH238397   2.882   6.318   0.821 -0.2308 -0.1709 -0.1610
 5661TIP3    H138398   2.874   6.241   0.878  0.4627  0.6408  1.0669
 5661TIP3    H238399   2.797   6.362   0.828 -0.4124 -0.4934 -0.3586
 5662TIP3   OH238400   5.773   4.626  13.915 -0.6327  0.6762  0.6848
 5662TIP3    H138401   5.822   4.544  13.919 -1.8751 -0.3013 -2.2230
 5662TIP3    H238402   5.702   4.614  13.978 -1.7814 -1.2087 -0.9102
 5663TIP3   OH238403   5.526   3.453  16.125 -0.1081  0.3296  0.5115
 5663TIP3    H138404   5.551   3.439  16.034 -0.0469  0.5420  0.4973
 5663TIP3    H238405   5.549   3.371  16.169 -4.0337 -1.3848 -0.4535
 5664TIP3   OH238406   5.283   3.283  17.116  0.2851 -0.6290  0.1099
 5664TIP3    H138407   5.339   3.355  17.143 -1.4117  0.8937 -0.3293
 5664TIP3    H238408   5.343   3.220  17.076  1.6226  1.2084 -0.8739
 5665TIP3   OH238409   4.758   0.515   2.589  0.5833 -0.5783  0.8546
 5665TIP3    H138410   4.803   0.564   2.658  2.7089 -2.5259  0.8967
 5665TIP3    H238411   4.665   0.524   2.611  1.1063  0.7595  2.6573
 5666TIP3   OH238412   3.068   3.209  11.976 -0.6873  0.1309  0.0409
 5666TIP3    H138413   3.030   3.261  12.047 -1.2900  2.5874 -2.0424
 5666TIP3    H238414   2.995   3.156  11.943 -0.7402  0.0538  0.2771
 5667TIP3   OH238415   3.284   4.646   5.633  0.2256 -0.0443 -0.4489
 5667TIP3    H138416   3.317   4.651   5.723 -0.5482  0.7760 -0.2027
 5667TIP3    H238417   3.279   4.552   5.614 -1.2558 -0.2666  0.9865
 5668TIP3   OH238418   5.453   5.007  16.743 -0.1186  0.2127 -0.3610
 5668TIP3    H138419   5.460   4.970  16.831  0.5459 -1.4689 -1.0987
 5668TIP3    H238420   5.366   4.983  16.713  0.6289 -1.5041 -1.1667
 5669TIP3   OH238421   3.648   0.921   4.135  0.1975  0.2621 -0.0508
 5669TIP3    H138422   3.666   1.015   4.141 -0.8581  0.6874 -2.8757
 5669TIP3    H238423   3.722   0.886   4.084 -0.6484 -0.0292 -1.0835
 5670TIP3   OH238424   4.973   3.100  15.026  0.1188 -0.5013 -0.1552
 5670TIP3    H138425   4.933   3.014  15.011 -0.0977 -0.0814 -2.0828
 5670TIP3    H238426   5.008   3.125  14.941 -2.1974  2.5426 -0.2867
 5671TIP3   OH238427   2.518   5.130   1.964  0.2458  0.2079  0.6670
 5671TIP3    H138428   2.606   5.093   1.979 -0.3231 -1.9854 -1.1895
 5671TIP3    H238429   2.471   5.111   2.045  0.9554 -0.2269  0.9866
 5672TIP3   OH238430   5.148   0.049   2.918  0.6191  0.1984 -0.2628
 5672TIP3    H138431   5.232   0.088   2.942  0.3373  0.5766  0.1118
 5672TIP3    H238432   5.087   0.079   2.986  0.5251 -1.3436  0.3644
 5673TIP3   OH238433   6.733   1.098   0.164  0.2603 -0.1147  0.4628
 5673TIP3    H138434   6.659   1.152   0.139  1.0752  1.6084  1.6750
 5673TIP3    H238435   6.713   1.011   0.127 -0.9526  1.0326 -1.6949
 5674TIP3   OH238436   2.693   3.418   2.802 -0.5178 -0.6637  0.8244
 5674TIP3    H138437   2.722   3.441   2.890 -1.2700 -4.7236  2.2419
 5674TIP3    H238438   2.597   3.417   2.808 -0.5440 -2.9631  0.6104
 5675TIP3   OH238439   2.941   1.439   4.044  0.4169  0.2606  0.0575
 5675TIP3    H138440   2.881   1.368   4.019  0.8630 -0.1746  0.2006
 5675TIP3    H238441   2.978   1.470   3.961 -1.7435  2.1127 -0.2455
 5676TIP3   OH238442   6.601   3.967   2.667  0.1157 -0.1365  0.5100
 5676TIP3    H138443   6.692   3.943   2.646 -0.3563 -1.6444  0.1591
 5676TIP3    H238444   6.576   4.026   2.596  0.6174 -0.2079  0.2667
 5677TIP3   OH238445   0.993   3.043  12.639  0.1268 -0.3307 -0.1050
 5677TIP3    H138446   1.047   3.045  12.717  1.0117 -0.2942 -0.7111
 5677TIP3    H238447   1.055   3.033  12.567 -0.6665 -0.2335 -0.8115
 5678TIP3   OH238448   0.372   5.794  16.128  0.3475 -0.2021 -0.3153
 5678TIP3    H138449   0.310   5.733  16.086 -1.5294  1.3817  0.0601
 5678TIP3    H238450   0.392   5.857  16.059  2.3072 -1.2342 -0.7120
 5679TIP3   OH238451   2.634   4.823  13.880  0.1880 -0.2008 -0.0809
 5679TIP3    H138452   2.609   4.820  13.787 -1.5074 -2.2352  0.4173
 5679TIP3    H238453   2.576   4.888  13.918 -0.3530 -0.6802 -0.0854
 5680TIP3   OH238454   4.699   3.276  16.179  0.2772 -0.5368 -0.2127
 5680TIP3    H138455   4.793   3.288  16.189 -0.0615  0.8845  1.5315
 5680TIP3    H238456   4.681   3.298  16.088  1.5601 -0.3476 -0.4280
 5681TIP3   OH238457   1.442   4.160   5.579 -0.4682 -0.5902  0.1347
 5681TIP3    H138458   1.505   4.109   5.630 -1.3685 -1.1871  0.6581
 5681TIP3    H238459   1.358   4.143   5.620 -0.9717  0.2488 -0.5289
 5682TIP3   OH238460   3.521   5.287   5.878  0.4667  0.0764  0.4722
 5682TIP3    H138461   3.503   5.195   5.899  0.3899  0.0163  0.1493
 5682TIP3    H238462   3.612   5.287   5.847  0.5994  0.1739  0.8540
 5683TIP3   OH238463   5.125   2.861   4.435  0.2562  0.2439 -0.9903
 5683TIP3    H138464   5.099   2.877   4.526 -0.7922  0.9311 -1.4013
 5683TIP3    H238465   5.216   2.889   4.431  0.8721 -1.4983  0.2947
 5684TIP3   OH238466   4.123   4.333  11.852 -0.5171  0.3698 -0.1354
 5684TIP3    H138467   4.039   4.309  11.814 -0.3130 -0.6870  0.0783
 5684TIP3    H238468   4.185   4.269  11.818  0.2737  1.3619 -0.5815
 5685TIP3   OH238469   6.786   4.857   5.832  0.2129  0.0663  0.1849
 5685TIP3    H138470   6.862   4.915   5.830  0.8594 -0.7990 -1.3673
 5685TIP3    H238471   6.711   4.914   5.817  0.7306  0.6702 -0.1202
 5686TIP3   OH238472   6.626   3.848   2.107  0.0722  0.6396  0.1455
 5686TIP3    H138473   6.607   3.938   2.134  2.3662  1.7254 -1.6942
 5686TIP3    H238474   6.556   3.825   2.047 -1.0935  0.7927  1.4104
 5687TIP3   OH238475   0.288   1.854  14.763  0.8463  0.3582  0.2423
 5687TIP3    H138476   0.326   1.929  14.809  2.2391 -0.4221  0.3977
 5687TIP3    H238477   0.317   1.778  14.813  0.7345 -0.3835 -0.7994
 5688TIP3   OH238478   5.881   0.577  11.292 -0.0946  0.6583 -0.1515
 5688TIP3    H138479   5.942   0.507  11.316 -1.3342  0.0518  1.2763
 5688TIP3    H238480   5.854   0.555  11.203 -0.9553 -1.0336  0.5061
 5689TIP3   OH238481   1.972   6.357   0.519  0.1036  0.3854 -0.0848
 5689TIP3    H138482   1.898   6.375   0.460 -0.0683 -1.8062 -0.5826
 5689TIP3    H238483   1.962   6.265   0.542  1.0007  0.8590  2.2618
 5690TIP3   OH238484   0.525   4.375   0.680 -0.2895 -0.7413  0.5122
 5690TIP3    H138485   0.550   4.467   0.679 -1.1226 -0.5119 -1.0144
 5690TIP3    H238486   0.608   4.328   0.666 -0.2550 -0.0923 -1.6654
 5691TIP3   OH238487   4.281   3.676   5.052 -0.2837  0.1239 -0.3420
 5691TIP3    H138488   4.344   3.730   5.005  1.0632  0.6453  1.9829
 5691TIP3    H238489   4.256   3.729   5.128 -1.9471 -0.9294 -0.1305
 5692TIP3   OH238490   6.598   1.466   1.938  0.7924 -1.3625  0.0960
 5692TIP3    H138491   6.591   1.495   1.847  0.0948  0.6585  0.7537
 5692TIP3    H238492   6.531   1.516   1.984  2.1355 -1.2321  1.9809
 5693TIP3   OH238493   6.154   3.859   3.486 -0.3954  0.0987  0.4000
 5693TIP3    H138494   6.147   3.905   3.570  0.1859  0.8733  0.0305
 5693TIP3    H238495   6.191   3.773   3.509  0.2904  0.5151  0.8781
 5694TIP3   OH238496   3.698   1.635   0.498  0.5449 -0.0325 -0.7735
 5694TIP3    H138497   3.645   1.629   0.418  0.6937 -0.8716 -0.8202
 5694TIP3    H238498   3.648   1.586   0.563 -1.1538  3.3066  0.5582
 5695TIP3   OH238499   1.834   4.784  14.969  0.5660  0.1291  0.0749
 5695TIP3    H138500   1.765   4.768  14.906 -0.2117 -0.5691  1.0812
 5695TIP3    H238501   1.902   4.829  14.920 -0.7263  1.0968 -0.8493
 5696TIP3   OH238502   1.627   6.040  12.665 -0.0847  0.2089  0.0402
 5696TIP3    H138503   1.635   5.963  12.722 -1.1640  0.0206 -0.0649
 5696TIP3    H238504   1.534   6.059  12.662 -0.0709  0.0573 -1.8682
 5697TIP3   OH238505   2.979   3.663   2.303 -0.0844 -0.0179 -0.1085
 5697TIP3    H138506   3.044   3.687   2.237 -0.1259  0.3681 -0.0094
 5697TIP3    H238507   2.937   3.585   2.267 -0.1909  0.2566 -0.5984
 5698TIP3   OH238508   6.299   3.289  13.241 -0.6684 -0.3001  0.3016
 5698TIP3    H138509   6.331   3.321  13.157  1.3252 -1.4162  0.6131
 5698TIP3    H238510   6.237   3.356  13.270 -0.2643  0.8134 -1.3546
 5699TIP3   OH238511   4.055   4.505   5.185 -0.2011  0.3316 -0.6580
 5699TIP3    H138512   4.093   4.563   5.119  1.9907  0.0957  0.3495
 5699TIP3    H238513   4.040   4.422   5.138  1.7101  0.0353 -0.8014
 5700TIP3   OH238514   1.908   6.521   0.763 -0.4749  0.2490  0.8207
 5700TIP3    H138515   1.956   6.456   0.711  1.7824  0.7028  2.2608
 5700TIP3    H238516   1.860   6.470   0.827  0.8722 -0.0462  1.6083
 5701TIP3   OH238517   1.410   5.316  12.342 -0.3600  0.2361 -0.1030
 5701TIP3    H138518   1.432   5.226  12.317 -1.7975 -0.0830 -0.2566
 5701TIP3    H238519   1.411   5.365  12.260 -1.0582  0.0488 -0.2202
 5702TIP3   OH238520   2.891   0.914  12.070 -0.1801  0.2598  0.3208
 5702TIP3    H138521   2.974   0.925  12.024 -0.5467  1.9129  0.0444
 5702TIP3    H238522   2.868   0.822  12.056  0.8114  0.1972 -0.9274
 5703TIP3   OH238523   1.382   6.727  14.032  0.1015  0.4328  0.5695
 5703TIP3    H138524   1.405   6.684  14.115 -0.3280 -0.3690  0.2862
 5703TIP3    H238525   1.329   6.802  14.057  3.9281  3.0393  1.3238
 5704TIP3   OH238526   1.972   4.860  14.157  0.7320  0.0597 -0.4262
 5704TIP3    H138527   1.993   4.868  14.250 -2.7302  0.8282  0.3466
 5704TIP3    H238528   2.001   4.771  14.134  1.9989  0.0017  1.2599
 5705TIP3   OH238529   6.351   2.691  17.235  0.1625  0.1398 -0.5139
 5705TIP3    H138530   6.275   2.644  17.198  1.1015 -1.2003 -0.7793
 5705TIP3    H238531   6.381   2.635  17.306  1.5338  0.1397 -1.0803
 5706TIP3   OH238532   2.217   3.995   6.060 -0.2995 -0.2400 -0.2355
 5706TIP3    H138533   2.226   3.929   6.129 -2.3620  0.3574  0.6132
 5706TIP3    H238534   2.271   3.960   5.988 -0.5589 -2.3697  0.5482
 5707TIP3   OH238535   6.316   3.061   2.371 -0.6624 -0.1403 -0.1527
 5707TIP3    H138536   6.311   2.994   2.439  3.5077 -0.9350 -0.5118
 5707TIP3    H238537   6.330   3.011   2.290  1.3066  1.0565 -0.5798
 5708TIP3   OH238538   1.141   0.872   5.199 -0.0010 -0.2965 -0.1349
 5708TIP3    H138539   1.059   0.914   5.172  0.5469 -0.2579 -1.8008
 5708TIP3    H238540   1.198   0.945   5.223  0.2458 -0.1839 -1.0240
 5709TIP3   OH238541   6.493   3.845  14.983  0.1708 -0.1449  0.1513
 5709TIP3    H138542   6.474   3.853  14.889  0.0675 -0.2416  0.1644
 5709TIP3    H238543   6.587   3.861  14.989  0.6899 -2.7485 -0.2912
 5710TIP3   OH238544   6.107   3.696   1.252 -0.2725  0.0294 -0.3002
 5710TIP3    H138545   6.043   3.690   1.181  0.5822  0.4018 -1.1093
 5710TIP3    H238546   6.192   3.687   1.209  0.4100  3.2013  0.2638
 5711TIP3   OH238547   4.623   4.467  15.633  0.2388  0.8345 -0.0451
 5711TIP3    H138548   4.704   4.516  15.615  0.0368  0.0215 -3.3913
 5711TIP3    H238549   4.651   4.376  15.640 -0.2569  0.6602 -0.3184
 5712TIP3   OH238550   3.654   4.966   6.307  0.3010 -0.3600 -0.0497
 5712TIP3    H138551   3.585   5.001   6.363 -0.7498 -1.6228 -0.5158
 5712TIP3    H238552   3.680   5.039   6.252  1.1303  0.8081  1.8594
 5713TIP3   OH238553   0.038   1.540  16.044 -0.0771  0.5295 -0.0150
 5713TIP3    H138554   0.012   1.625  16.082  1.7345  0.4631  1.4345
 5713TIP3    H238555   0.121   1.558  16.000  0.0027 -0.3758 -0.2407
 5714TIP3   OH238556   5.181   2.537   0.967  0.2331  0.2107  0.3421
 5714TIP3    H138557   5.244   2.540   0.895 -0.8449  1.1626 -0.5839
 5714TIP3    H238558   5.114   2.601   0.943 -0.2994  0.3272  2.0525
 5715TIP3   OH238559   4.331   1.056  16.711  0.0157 -0.5822  0.3075
 5715TIP3    H138560   4.383   1.081  16.634  1.1156 -0.8838  0.9355
 5715TIP3    H238561   4.285   1.137  16.735  0.9014 -0.0511  0.2710
 5716TIP3   OH238562   5.244   4.029   1.809  0.1427  0.6794  0.0044
 5716TIP3    H138563   5.225   4.095   1.876  0.2007 -1.5165  2.2697
 5716TIP3    H238564   5.339   4.029   1.801  0.2464 -0.0531  1.0377
 5717TIP3   OH238565   3.636   4.385  16.777 -0.1617 -0.2709  0.0335
 5717TIP3    H138566   3.597   4.436  16.847 -1.6583  0.3965 -1.2614
 5717TIP3    H238567   3.714   4.346  16.817 -0.5510  0.7180  1.8308
 5718TIP3   OH238568   5.664   1.257   1.873  0.6008 -0.4969  0.5368
 5718TIP3    H138569   5.638   1.323   1.809  2.6485  2.2789  2.4462
 5718TIP3    H238570   5.733   1.207   1.831  0.1985 -0.3342 -0.3219
 5719TIP3   OH238571   3.911   0.344  11.235 -0.1798  0.5392  0.4429
 5719TIP3    H138572   3.922   0.409  11.166  0.8988  2.1343  2.0722
 5719TIP3    H238573   3.996   0.301  11.241 -0.1045  0.7823  1.1426
 5720TIP3   OH238574   3.189   6.589   0.032 -0.1805 -0.1481 -0.2680
 5720TIP3    H138575   3.112   6.532   0.030 -0.7145  0.5789 -1.1195
 5720TIP3    H238576   3.262   6.531   0.047 -0.8941 -0.8724  0.4174
 5721TIP3   OH238577   5.946   1.287  11.403  0.1386  0.2925 -0.3181
 5721TIP3    H138578   6.030   1.242  11.397  0.0869  0.2649 -0.8580
 5721TIP3    H238579   5.881   1.217  11.396  0.0617 -0.0733  3.1049
 5722TIP3   OH238580   1.699   0.298  16.190 -0.3834  0.4647 -0.2201
 5722TIP3    H138581   1.782   0.285  16.237 -0.8999  0.2964  0.6610
 5722TIP3    H238582   1.701   0.389  16.163  0.7406  0.0748 -1.4759
 5723TIP3   OH238583   0.124   2.821  11.064 -0.1300  0.5695 -0.2413
 5723TIP3    H138584   0.052   2.792  11.120  0.8936 -0.5145  0.5172
 5723TIP3    H238585   0.091   2.809  10.975  0.0451 -2.4336  0.0408
 5724TIP3   OH238586   1.861   2.871   5.382 -0.5088 -0.0517  0.0421
 5724TIP3    H138587   1.948   2.899   5.354 -0.7502  0.1402 -0.5191
 5724TIP3    H238588   1.864   2.776   5.379 -0.1833 -0.0510  0.4285
 5725TIP3   OH238589   0.493   1.292   1.107  0.3169  0.3350 -0.3381
 5725TIP3    H138590   0.429   1.364   1.105  1.1831  1.1530  0.8114
 5725TIP3    H238591   0.563   1.322   1.049  1.0957  0.8169  0.8478
 5726TIP3   OH238592   5.521   2.569  12.692 -0.3006  0.0625 -0.3137
 5726TIP3    H138593   5.582   2.512  12.645  0.1665  0.0802  0.2669
 5726TIP3    H238594   5.435   2.529  12.677  0.2301 -1.9472  1.7252
 5727TIP3   OH238595   2.337   6.454  13.176 -0.5502 -0.2297 -0.0787
 5727TIP3    H138596   2.282   6.413  13.242 -0.8822 -2.0185 -1.4129
 5727TIP3    H238597   2.276   6.486  13.110 -0.0567 -3.1051 -2.0636
 5728TIP3   OH238598   0.701   1.646  16.369 -0.0200  0.0377  0.0993
 5728TIP3    H138599   0.782   1.617  16.411 -0.2805  2.1906  2.2093
 5728TIP3    H238600   0.718   1.636  16.275  1.6801 -2.0613  0.5890
 5729TIP3   OH238601   1.221   4.282  16.685 -0.2918 -0.4906  0.2529
 5729TIP3    H138602   1.207   4.354  16.623  0.0543 -1.6117 -1.1590
 5729TIP3    H238603   1.150   4.220  16.666  1.8728 -2.5408 -1.5752
 5730TIP3   OH238604   2.196   2.057  12.663  0.3858  0.5628  0.1370
 5730TIP3    H138605   2.149   2.010  12.732  0.2195 -0.7583 -0.8488
 5730TIP3    H238606   2.288   2.048  12.685  0.3936 -0.9123 -0.4530
 5731TIP3   OH238607   2.887   0.306  15.650 -0.4265 -0.6915 -0.2585
 5731TIP3    H138608   2.942   0.230  15.631 -0.2523 -0.6919  0.2232
 5731TIP3    H238609   2.814   0.300  15.588  0.1563 -0.6486 -0.9568
 5732TIP3   OH238610   1.533   1.975   1.321  0.3344  0.3440 -0.2691
 5732TIP3    H138611   1.507   1.929   1.401  1.7415  0.1423  0.0888
 5732TIP3    H238612   1.627   1.959   1.313  0.2425  0.4659 -1.9063
 5733TIP3   OH238613   5.804   2.118  13.771  0.5643  0.1433  0.1325
 5733TIP3    H138614   5.722   2.111  13.821 -0.6551  0.7372 -1.7331
 5733TIP3    H238615   5.826   2.211  13.774  1.7275 -0.1634  1.4670
 5734TIP3   OH238616   5.951   4.752   1.139 -0.2078  0.2023 -0.3083
 5734TIP3    H138617   5.858   4.731   1.145 -0.0386  0.2210  4.0779
 5734TIP3    H238618   5.993   4.694   1.203  2.5325  1.5626 -0.7921
 5735TIP3   OH238619   1.267   0.191   4.513  0.4733  0.3424  0.0833
 5735TIP3    H138620   1.351   0.227   4.540  0.1479  2.3326 -1.5013
 5735TIP3    H238621   1.288   0.103   4.480  2.0883  1.2759 -1.3874
 5736TIP3   OH238622   1.331   0.939  13.807  0.4851 -0.1098  0.0967
 5736TIP3    H138623   1.328   1.015  13.866  3.5715  1.2623 -1.4123
 5736TIP3    H238624   1.403   0.886  13.840  2.7517  1.0576 -2.8232
 5737TIP3   OH238625   1.394   4.833  16.124  0.7241 -0.0049  0.0379
 5737TIP3    H138626   1.381   4.750  16.077  2.9896 -0.2991 -0.1280
 5737TIP3    H238627   1.369   4.813  16.214 -2.1461  0.1260 -0.7081
 5738TIP3   OH238628   1.352   0.780  11.301  0.0566  0.0654  0.5083
 5738TIP3    H138629   1.280   0.812  11.356 -0.1128 -1.1345  0.9889
 5738TIP3    H238630   1.425   0.837  11.324  0.1439 -0.7681  2.4033
 5739TIP3   OH238631   1.111   0.902   4.853  0.5413  0.6204 -0.3439
 5739TIP3    H138632   1.084   0.866   4.769  0.1389  0.3907 -0.1167
 5739TIP3    H238633   1.036   0.889   4.911  1.7178 -1.5059  0.7422
 5740TIP3   OH238634   0.161   3.053  13.917  0.2069 -0.3136  0.5284
 5740TIP3    H138635   0.207   3.128  13.957  0.2908 -0.4731  0.7312
 5740TIP3    H238636   0.222   3.020  13.851 -0.2641  0.4599 -0.3166
 5741TIP3   OH238637   6.234   1.417  12.647  0.6576 -0.0963  0.0902
 5741TIP3    H138638   6.278   1.480  12.705  0.8761 -1.0302  0.9482
 5741TIP3    H238639   6.286   1.337  12.655  0.7956 -0.1982 -1.5407
 5742TIP3   OH238640   2.279   2.161   0.257  0.0192  0.0796  0.0908
 5742TIP3    H138641   2.346   2.179   0.191 -2.8867  2.7134 -2.3142
 5742TIP3    H238642   2.279   2.065   0.265  3.3869 -0.0324 -0.4826
 5743TIP3   OH238643   3.625   5.311  17.218  0.4949 -0.3702  0.2504
 5743TIP3    H138644   3.663   5.395  17.192  0.2265 -0.6138 -0.9387
 5743TIP3    H238645   3.693   5.270  17.272  0.5629  0.6673  0.9750
 5744TIP3   OH238646   6.084   6.586   2.763 -0.0186  0.1506 -0.1357
 5744TIP3    H138647   6.077   6.631   2.846  3.1088  2.4168 -1.0042
 5744TIP3    H238648   6.126   6.502   2.784 -0.5938  0.0791  0.7311
 5745TIP3   OH238649   6.231   0.763   6.733 -0.6353 -0.0954 -0.8433
 5745TIP3    H138650   6.158   0.716   6.693 -0.8391  0.0998 -0.7004
 5745TIP3    H238651   6.274   0.698   6.788  0.7301 -0.8724 -2.7527
 5746TIP3   OH238652   2.347   2.896  15.385  0.1249  0.2857  0.4549
 5746TIP3    H138653   2.336   2.988  15.363  0.3378 -0.0663 -1.1399
 5746TIP3    H238654   2.314   2.848  15.309 -0.3907 -0.9767  1.4355
 5747TIP3   OH238655   3.856   4.035   0.102 -0.1517 -0.0553  0.2114
 5747TIP3    H138656   3.774   4.052   0.055  0.1938  2.4231  0.4423
 5747TIP3    H238657   3.828   4.005   0.189 -0.8041  0.0731  0.0473
 5748TIP3   OH238658   3.845   6.523   3.204  0.1420 -0.1012  0.5968
 5748TIP3    H138659   3.829   6.524   3.110  1.3064  0.5253  0.3984
 5748TIP3    H238660   3.823   6.612   3.233  0.7878  0.0104  0.7448
 5749TIP3   OH238661   1.400   0.573   2.404 -0.2531  0.5856 -0.4363
 5749TIP3    H138662   1.313   0.542   2.380  0.6510 -0.8013 -2.0531
 5749TIP3    H238663   1.452   0.494   2.415  0.6713  1.3796  1.1196
 5750TIP3   OH238664   4.073   4.003   3.445 -0.1643 -0.0361  0.4280
 5750TIP3    H138665   4.037   4.055   3.373 -0.4149 -0.5357  0.1859
 5750TIP3    H238666   4.061   3.912   3.416  0.7023 -0.2166  0.6339
 5751TIP3   OH238667   4.233   4.773   0.681  0.2482 -0.1651 -0.2890
 5751TIP3    H138668   4.284   4.786   0.762 -0.5150  0.4416  0.0979
 5751TIP3    H238669   4.294   4.729   0.622  1.4999  1.3403 -0.1351
 5752TIP3   OH238670   6.457   1.852  17.148  0.1617  0.1001 -0.1701
 5752TIP3    H138671   6.436   1.945  17.139  0.3637  0.0913 -0.7549
 5752TIP3    H238672   6.498   1.845  17.234  1.5806  0.8269 -0.7682
 5753TIP3   OH238673   3.885   2.298  11.549  0.2787  0.3556 -0.0892
 5753TIP3    H138674   3.842   2.356  11.612  1.0389 -0.2210  0.9728
 5753TIP3    H238675   3.951   2.353  11.507  1.2154  0.1993  1.1443
 5754TIP3   OH238676   1.028   0.761   0.585 -0.1019 -0.0349  0.3366
 5754TIP3    H138677   1.022   0.855   0.601 -0.1206  0.1408 -0.6622
 5754TIP3    H238678   1.077   0.754   0.503 -0.7226 -0.8702  0.0324
 5755TIP3   OH238679   5.139   2.314   5.376  0.2116 -0.4807  0.0751
 5755TIP3    H138680   5.094   2.239   5.416 -0.6540  1.0055  1.9456
 5755TIP3    H238681   5.109   2.314   5.285  2.1675 -3.8962 -0.6604
 5756TIP3   OH238682   6.183   5.589  14.333 -0.1836  1.0882 -0.6577
 5756TIP3    H138683   6.156   5.671  14.374 -1.1208  0.3863  0.1457
 5756TIP3    H238684   6.236   5.545  14.400 -0.3760  0.6599 -0.7819
 5757TIP3   OH238685   2.783   6.778   3.251 -0.2141 -0.2052  0.5583
 5757TIP3    H138686   2.789   6.690   3.287 -1.6451 -0.6929 -0.3324
 5757TIP3    H238687   2.855   6.826   3.291  0.2626 -1.6410  1.4451
 5758TIP3   OH238688   1.553   6.537   3.040  0.3303 -0.0463  0.0172
 5758TIP3    H138689   1.609   6.460   3.032  0.5581  0.1358 -0.1597
 5758TIP3    H238690   1.502   6.522   3.119 -0.2524 -0.7789 -0.4976
 5759TIP3   OH238691   5.426   0.365   4.628 -0.2999 -0.1153 -0.3014
 5759TIP3    H138692   5.473   0.432   4.577 -0.7449  0.8666  0.5484
 5759TIP3    H238693   5.349   0.411   4.662 -0.8560 -1.1936 -0.0860
 5760TIP3   OH238694   6.265   1.229   2.840  0.1051 -0.1710 -0.0551
 5760TIP3    H138695   6.200   1.164   2.815 -1.5956  1.5982 -0.2795
 5760TIP3    H238696   6.232   1.266   2.922  0.8642  0.6884 -0.1314
 5761TIP3   OH238697   0.884   1.700  14.866 -0.2331 -0.2838  0.4676
 5761TIP3    H138698   0.820   1.766  14.892  0.8879  1.4816 -1.1078
 5761TIP3    H238699   0.965   1.727  14.909  0.4120 -0.2010 -0.7826
 5762TIP3   OH238700   2.898   4.885   4.113 -0.1746 -0.5658 -0.0544
 5762TIP3    H138701   2.953   4.962   4.130 -0.1159 -0.1247 -2.1220
 5762TIP3    H238702   2.853   4.870   4.196 -0.3373  1.8294  0.3462
 5763TIP3   OH238703   1.947   2.683   3.009 -0.3928 -0.1371  0.0171
 5763TIP3    H138704   2.038   2.699   3.033 -0.3059 -0.0824 -0.3429
 5763TIP3    H238705   1.904   2.658   3.091  0.0606 -0.6678  0.0941
 5764TIP3   OH238706   0.141   5.337  13.371 -0.4578  0.3695 -0.6491
 5764TIP3    H138707   0.097   5.337  13.456  0.2587 -0.7783 -0.2706
 5764TIP3    H238708   0.234   5.339  13.393 -0.2964  2.0940 -1.4398
 5765TIP3   OH238709   1.907   5.625   0.725  0.7593  0.9554 -0.1841
 5765TIP3    H138710   1.879   5.567   0.796  1.6193  0.6210 -0.1151
 5765TIP3    H238711   1.931   5.707   0.768  2.0887  0.4738  0.0138
 5766TIP3   OH238712   5.079   3.117   6.161 -0.3404 -0.1294 -0.4449
 5766TIP3    H138713   5.144   3.048   6.167  1.1797  1.2445 -0.7401
 5766TIP3    H238714   5.011   3.082   6.103 -0.3645 -1.9479  0.6630
 5767TIP3   OH238715   6.448   1.907   4.287  0.7641 -0.4376 -0.1157
 5767TIP3    H138716   6.487   1.877   4.205  0.0701 -1.1001 -0.2110
 5767TIP3    H238717   6.458   1.833   4.347  1.1661  0.0020  0.3621
 5768TIP3   OH238718   1.106   4.156  13.123  0.4149 -0.0258  0.6906
 5768TIP3    H138719   1.023   4.147  13.076 -0.1795 -1.2497  1.9598
 5768TIP3    H238720   1.088   4.222  13.190  1.0729  1.2237 -0.3388
 5769TIP3   OH238721   2.256   2.226   1.128  0.0743 -0.3555 -0.1271
 5769TIP3    H138722   2.266   2.182   1.044  1.3619 -1.5032  0.6234
 5769TIP3    H238723   2.266   2.157   1.193  0.3661  0.7407  1.0086
 5770TIP3   OH238724   3.033   3.428   1.762 -0.0046 -0.4545  0.1916
 5770TIP3    H138725   3.033   3.345   1.810 -1.8217 -0.9774 -0.6748
 5770TIP3    H238726   3.060   3.405   1.673 -0.1395 -0.0740  0.0493
 5771TIP3   OH238727   2.741   4.388   1.277  0.1069 -0.4329  0.1324
 5771TIP3    H138728   2.675   4.323   1.250 -0.9256 -0.0808  1.7509
 5771TIP3    H238729   2.777   4.420   1.194 -0.1833 -2.2349 -0.7250
 5772TIP3   OH238730   2.038   1.174  16.943  0.2506  0.1294  0.5225
 5772TIP3    H138731   2.111   1.112  16.949  0.6291  0.6802  1.8875
 5772TIP3    H238732   2.024   1.186  16.849  2.5117  0.7009  0.2226
 5773TIP3   OH238733   4.958   4.744  10.824 -0.2182  0.1058 -0.2378
 5773TIP3    H138734   4.926   4.832  10.845  0.0618  0.1383  0.0553
 5773TIP3    H238735   4.878   4.692  10.810 -0.3904  0.2744  0.1188
 5774TIP3   OH238736   1.567   2.108   5.779 -0.0119  0.7544 -0.3781
 5774TIP3    H138737   1.628   2.068   5.841 -2.2203 -2.3751 -0.0893
 5774TIP3    H238738   1.513   2.166   5.833 -0.8023 -0.6420  0.3623
 5775TIP3   OH238739   2.008   4.541  15.702 -0.4237  0.0295  0.6627
 5775TIP3    H138740   2.061   4.573  15.630 -0.0241 -1.2627  0.3847
 5775TIP3    H238741   1.918   4.566  15.679 -0.4126 -1.1868 -0.7283
 5776TIP3   OH238742   2.396   3.868  14.519 -0.5123  0.3007  0.0251
 5776TIP3    H138743   2.339   3.941  14.544  2.4938  2.2885  1.3140
 5776TIP3    H238744   2.442   3.899  14.441  0.3960 -0.4288  0.2676
 5777TIP3   OH238745   0.393   4.151   0.330 -0.1255 -0.3497  0.0288
 5777TIP3    H138746   0.298   4.137   0.326 -0.1679 -0.2029  0.4281
 5777TIP3    H238747   0.427   4.070   0.369 -0.2035  0.0237  0.8840
 5778TIP3   OH238748   0.092   5.539   3.970 -0.1073  0.2087  0.0132
 5778TIP3    H138749   0.011   5.577   4.004 -0.1853  1.3877 -1.4318
 5778TIP3    H238750   0.161   5.575   4.025 -0.5001 -0.3451  0.8805
 5779TIP3   OH238751   5.705   0.393  11.895  0.1828 -0.7348  0.1435
 5779TIP3    H138752   5.676   0.342  11.970 -0.3946 -0.6629 -0.0229
 5779TIP3    H238753   5.626   0.439  11.866  0.3166 -1.0461 -0.7254
 5780TIP3   OH238754   1.075   5.200   1.107  0.3447 -0.3037  0.8561
 5780TIP3    H138755   1.108   5.141   1.039  0.0184 -0.8875  1.2023
 5780TIP3    H238756   1.143   5.201   1.173  1.3848  1.5334 -0.2169
 5781TIP3   OH238757   4.533   0.968  15.975  0.2738 -0.1286 -0.1734
 5781TIP3    H138758   4.513   1.018  15.896  1.2491  1.4109  0.5300
 5781TIP3    H238759   4.466   0.994  16.037 -1.7995 -2.9506 -1.1042
 5782TIP3   OH238760   1.067   3.129   4.349  0.1178 -0.4567 -0.0963
 5782TIP3    H138761   1.092   3.100   4.437 -0.0558  0.3070  0.2092
 5782TIP3    H238762   1.050   3.223   4.359 -1.8543 -0.7533 -0.5059
 5783TIP3   OH238763   4.662   5.714  16.029 -0.4464 -0.3180  0.9477
 5783TIP3    H138764   4.629   5.625  16.021  0.8300 -0.7263  0.0838
 5783TIP3    H238765   4.754   5.704  16.056  0.5051  0.6349 -1.7201
 5784TIP3   OH238766   2.900   3.850   6.225 -0.0918  0.0515  0.0113
 5784TIP3    H138767   2.941   3.777   6.272 -0.4994  0.5249  1.1384
 5784TIP3    H238768   2.823   3.872   6.279 -0.8580  0.2746 -1.1628
 5785TIP3   OH238769   6.397   0.182   4.635  0.4826 -0.0388 -0.7389
 5785TIP3    H138770   6.324   0.152   4.580 -0.9257 -0.0288  1.0738
 5785TIP3    H238771   6.379   0.275   4.650  0.5086 -0.1791  0.2312
 5786TIP3   OH238772   6.670   6.779  13.612  0.1756  0.2589 -0.2896
 5786TIP3    H138773   6.712   6.833  13.545 -0.5317  2.2091  0.7904
 5786TIP3    H238774   6.742   6.751  13.668  0.5025  0.5097 -0.5809
 5787TIP3   OH238775   2.639   6.719   2.763 -0.0653 -0.2344  0.2777
 5787TIP3    H138776   2.698   6.667   2.818 -0.3947 -0.9586 -0.0491
 5787TIP3    H238777   2.673   6.808   2.769  0.9958 -0.6207  0.1953
 5788TIP3   OH238778   2.072   5.354  14.339 -0.2523 -0.4824  0.3823
 5788TIP3    H138779   2.107   5.327  14.255 -1.5574  1.9450 -1.0257
 5788TIP3    H238780   2.124   5.431  14.363 -1.3881  0.2212  0.6397
 5789TIP3   OH238781   5.309   3.438   2.489  0.5245  0.4619  0.3699
 5789TIP3    H138782   5.323   3.351   2.452  1.5546  0.9310 -0.3840
 5789TIP3    H238783   5.268   3.422   2.574 -0.3022 -0.7068 -0.2422
 5790TIP3   OH238784   3.931   2.312  12.320  0.4308 -0.1886  0.7783
 5790TIP3    H138785   3.979   2.272  12.248 -0.7740  0.6917 -0.5366
 5790TIP3    H238786   3.998   2.331  12.386  1.8107  0.5120 -0.7784
 5791TIP3   OH238787   3.672   1.264  13.493  0.1631 -0.5059 -0.2347
 5791TIP3    H138788   3.656   1.230  13.405 -0.3727 -0.4839 -0.1479
 5791TIP3    H238789   3.613   1.214  13.549  0.9966 -0.9934  0.2109
 5792TIP3   OH238790   3.217   1.602  15.411 -0.0786  0.2594  0.4637
 5792TIP3    H138791   3.256   1.517  15.391  0.6995  0.2890  1.8119
 5792TIP3    H238792   3.267   1.634  15.486 -0.1450  2.0600 -0.2497
 5793TIP3   OH238793   4.449   0.728  13.757  0.1773 -0.1137  0.7662
 5793TIP3    H138794   4.419   0.700  13.843 -2.6997 -1.3272 -0.5728
 5793TIP3    H238795   4.523   0.787  13.775 -0.6399 -0.0086  4.0338
 5794TIP3   OH238796   3.416   3.654   5.205 -0.2168 -0.1338  0.0833
 5794TIP3    H138797   3.403   3.671   5.112 -1.0159  1.6378  0.4921
 5794TIP3    H238798   3.511   3.658   5.217 -0.2465  2.6640 -0.1554
 5795TIP3   OH238799   0.998   5.187   0.158 -0.0355  0.7630  0.0482
 5795TIP3    H138800   1.074   5.241   0.182 -0.6413  1.1461  1.1049
 5795TIP3    H238801   1.033   5.126   0.093  1.3332  0.5548  0.9473
 5796TIP3   OH238802   6.000   5.697   5.726 -0.1164 -0.4123  0.0299
 5796TIP3    H138803   5.991   5.719   5.819 -0.8096 -2.1407  0.3856
 5796TIP3    H238804   5.962   5.772   5.680  2.0169  1.3508  1.0668
 5797TIP3   OH238805   3.022   6.394  14.048 -0.5270 -0.2102  0.4150
 5797TIP3    H138806   3.010   6.417  14.141 -4.4111 -0.6834  0.1180
 5797TIP3    H238807   3.031   6.299  14.048 -0.4230 -0.2002  0.3134
 5798TIP3   OH238808   2.516   3.853   5.079 -0.4569 -0.2823 -0.3037
 5798TIP3    H138809   2.536   3.816   4.993 -1.0661 -2.2498  0.3843
 5798TIP3    H238810   2.602   3.864   5.120 -0.2739 -1.1181 -0.4462
 5799TIP3   OH238811   4.884   0.337  14.524  0.0208  0.3581 -0.2480
 5799TIP3    H138812   4.948   0.388  14.474  1.1992 -1.2058 -0.3572
 5799TIP3    H238813   4.899   0.247  14.497 -2.0233 -0.0786 -0.0206
 5800TIP3   OH238814   0.967   1.264   4.848 -0.3923  1.0668  0.1940
 5800TIP3    H138815   1.020   1.276   4.926  1.2997 -1.3840 -0.4908
 5800TIP3    H238816   0.877   1.259   4.880  0.2704  0.1562  1.9956
 5801TIP3   OH238817   4.906   6.489  16.184 -0.0037  0.4100  0.4032
 5801TIP3    H138818   4.905   6.558  16.118  1.2237 -0.3857 -0.4698
 5801TIP3    H238819   4.879   6.533  16.265 -2.1585  1.2422 -0.7422
 5802TIP3   OH238820   6.011   4.713  15.905  0.7918  0.6898 -0.0676
 5802TIP3    H138821   6.073   4.668  15.962  1.3282  0.7070 -0.6303
 5802TIP3    H238822   5.948   4.753  15.964  0.3379 -0.7689  0.4353
 5803TIP3   OH238823   1.757   0.905   6.617  0.2852  0.3343  0.0934
 5803TIP3    H138824   1.746   0.994   6.582  1.1217  0.9470  1.3300
 5803TIP3    H238825   1.773   0.918   6.711 -1.3202 -1.2393  0.5980
 5804TIP3   OH238826   3.820   3.760  13.741  0.3915 -0.0929 -0.4142
 5804TIP3    H138827   3.808   3.667  13.758 -0.5224 -0.0895 -0.9970
 5804TIP3    H238828   3.732   3.798  13.749  1.1110  1.1276  2.2385
 5805TIP3   OH238829   3.462   4.050   4.037  0.3427 -0.2963 -0.5443
 5805TIP3    H138830   3.389   4.109   4.053  1.1424  0.7498 -0.6491
 5805TIP3    H238831   3.450   4.020   3.947 -1.6213 -2.5376  0.4342
 5806TIP3   OH238832   1.899   0.296  16.399  0.6876 -0.2581  0.0098
 5806TIP3    H138833   1.923   0.381  16.361  1.6310 -0.4658  0.1207
 5806TIP3    H238834   1.950   0.292  16.481 -1.1627  0.0985  1.2070
 5807TIP3   OH238835   1.485   5.502   0.528  0.6648 -0.3452  0.3748
 5807TIP3    H138836   1.441   5.436   0.583  0.1789 -0.4478 -0.1283
 5807TIP3    H238837   1.571   5.513   0.568  0.9394 -1.6659  0.1798
 5808TIP3   OH238838   6.572   1.568   5.328 -0.0655 -0.2333  0.1886
 5808TIP3    H138839   6.508   1.634   5.355  0.3955 -0.0652  0.8676
 5808TIP3    H238840   6.644   1.619   5.291 -0.0012 -0.3891  0.0983
 5809TIP3   OH238841   2.227   2.864  16.014  0.2011 -0.2822 -0.3672
 5809TIP3    H138842   2.170   2.940  16.026 -0.4249 -0.8979  0.6565
 5809TIP3    H238843   2.288   2.867  16.088  1.3547  0.2298 -1.3216
 5810TIP3   OH238844   4.040   3.621   4.950  0.0798 -0.7258 -0.2230
 5810TIP3    H138845   4.047   3.539   4.900  1.0169 -1.1569  0.5909
 5810TIP3    H238846   4.130   3.639   4.977 -0.2351  0.1977  0.2094
 5811TIP3   OH238847   3.463   1.859   0.531  0.5182 -0.1336 -0.2353
 5811TIP3    H138848   3.549   1.826   0.556  1.1824  0.9504 -1.0243
 5811TIP3    H238849   3.465   1.862   0.435 -1.6072 -3.2372 -0.4295
 5812TIP3   OH238850   6.404   1.184   0.480  0.2453  0.2172  0.2131
 5812TIP3    H138851   6.449   1.124   0.540 -0.5437  0.0937  0.6833
 5812TIP3    H238852   6.318   1.197   0.519 -0.8602 -1.1067 -1.6895
 5813TIP3   OH238853   4.132   4.714  11.316 -0.2153 -0.1774 -0.5277
 5813TIP3    H138854   4.121   4.729  11.222  2.7774 -2.5189 -1.3009
 5813TIP3    H238855   4.219   4.750  11.336 -1.5948  2.0669  1.8063
 5814TIP3   OH238856   4.711   4.721  13.452  0.2106  0.0474  0.3637
 5814TIP3    H138857   4.635   4.729  13.510  0.2012  0.3060  0.3132
 5814TIP3    H238858   4.757   4.643  13.484  0.7320  0.7443  1.3162
 5815TIP3   OH238859   3.184   6.293  12.484  0.0024  0.1606  0.7120
 5815TIP3    H138860   3.139   6.374  12.463 -0.3192 -0.1405  0.2266
 5815TIP3    H238861   3.221   6.264  12.400  1.6119  0.7221  1.2111
 5816TIP3   OH238862   4.032   0.015   5.596 -0.0705  0.5757 -0.1740
 5816TIP3    H138863   4.007   0.104   5.622  1.3014  1.2085 -0.9342
 5816TIP3    H238864   3.957  -0.017   5.546 -0.5573  1.3248  0.0641
 5817TIP3   OH238865   0.230   0.915  14.212 -0.1226 -0.4533  0.5943
 5817TIP3    H138866   0.305   0.924  14.154  0.5159 -0.6326  1.3761
 5817TIP3    H238867   0.266   0.875  14.291 -0.7367  0.8980  1.5840
 5818TIP3   OH238868   2.705   3.680  17.059  0.3312  0.0207  0.1815
 5818TIP3    H138869   2.610   3.668  17.056  0.5205 -1.5698 -0.1369
 5818TIP3    H238870   2.717   3.773  17.078 -1.2826  0.3986 -0.5020
 5819TIP3   OH238871   1.301   3.077   2.918 -0.1573 -0.4101 -0.2323
 5819TIP3    H138872   1.334   3.126   2.994 -0.6079  1.2041 -1.0566
 5819TIP3    H238873   1.324   2.986   2.937 -0.0115  0.0002  1.7106
 5820TIP3   OH238874   5.530   2.830   5.957 -0.2196  0.0809 -1.1308
 5820TIP3    H138875   5.602   2.848   6.018  0.5873 -0.9228 -1.7795
 5820TIP3    H238876   5.572   2.823   5.871 -1.3591  1.5114 -1.8116
 5821TIP3   OH238877   5.095   2.635   5.067 -0.2776 -0.2977  0.1545
 5821TIP3    H138878   5.161   2.637   5.136  0.8825 -0.9271 -0.9204
 5821TIP3    H238879   5.014   2.610   5.112 -0.0134  1.3719  1.6457
 5822TIP3   OH238880   5.468   0.079   2.522  0.3393 -0.4835 -0.4786
 5822TIP3    H138881   5.534   0.009   2.518 -0.5014 -1.5813  3.0362
 5822TIP3    H238882   5.389   0.038   2.488 -0.2195 -1.4075  1.8222
 5823TIP3   OH238883   6.120   2.863   4.753  0.4901  0.4196  0.1422
 5823TIP3    H138884   6.152   2.928   4.691 -0.3956 -0.3522 -1.1403
 5823TIP3    H238885   6.132   2.904   4.839 -2.0378  3.1638 -0.7120
 5824TIP3   OH238886   1.043   1.885   3.635 -0.2201 -0.2777  0.2167
 5824TIP3    H138887   0.961   1.843   3.609  0.1598 -0.7668 -0.2203
 5824TIP3    H238888   1.108   1.815   3.629  0.6344  0.6432 -1.6849
 5825TIP3   OH238889   2.650   5.539  16.763 -0.0829  0.2116  0.1482
 5825TIP3    H138890   2.716   5.495  16.710 -1.3662  0.0408 -1.3454
 5825TIP3    H238891   2.579   5.559  16.702 -1.5022  0.2275  1.7601
 5826TIP3   OH238892   2.818   0.757  14.563 -0.3097  0.0453  0.4608
 5826TIP3    H138893   2.857   0.741  14.477 -0.5286  1.1179  0.1609
 5826TIP3    H238894   2.893   0.764  14.622 -0.1231  0.1914  0.2081
 5827TIP3   OH238895   6.587   3.436   0.065  0.4804  0.6298  0.5193
 5827TIP3    H138896   6.527   3.463  -0.004  0.8911  0.5687  0.1309
 5827TIP3    H238897   6.582   3.340   0.066  0.8385  0.6062  0.2398
 5828TIP3   OH238898   6.167   3.207   0.258 -0.1725  0.1680 -0.9185
 5828TIP3    H138899   6.093   3.245   0.306 -0.9653 -0.2773 -1.7903
 5828TIP3    H238900   6.172   3.258   0.178  0.3330  0.0457 -0.9672
 5829TIP3   OH238901   6.684   4.069  17.094 -0.1676  0.3341 -0.7244
 5829TIP3    H138902   6.624   4.131  17.135  1.0465  1.5048 -0.7043
 5829TIP3    H238903   6.746   4.046  17.164 -0.8689 -1.2471 -0.6040
 5830TIP3   OH238904   5.560   3.174   2.511  0.3033  0.7924  1.1698
 5830TIP3    H138905   5.540   3.206   2.423  0.6368 -1.4399  0.2403
 5830TIP3    H238906   5.487   3.116   2.532  0.9390  0.2035  1.7655
 5831TIP3   OH238907   2.569   2.239  11.703 -0.1889 -0.0594  0.2428
 5831TIP3    H138908   2.528   2.318  11.740 -0.7772  0.6953 -1.9091
 5831TIP3    H238909   2.499   2.174  11.703  0.3472 -0.6383  2.1854
 5832TIP3   OH238910   6.261   5.864  13.692 -0.2363  0.3057  0.6668
 5832TIP3    H138911   6.306   5.894  13.613  0.7534 -2.6588  0.0251
 5832TIP3    H238912   6.331   5.853  13.757 -0.5529 -0.5331  0.8781
 5833TIP3   OH238913   2.805   5.262  13.799  0.2814 -0.5598  0.5469
 5833TIP3    H138914   2.751   5.310  13.862  0.7876  1.3634 -0.4232
 5833TIP3    H238915   2.874   5.222  13.852  1.5878  2.2839  1.1197
 5834TIP3   OH238916   1.656   3.514  13.701 -0.5643 -0.1873  0.5326
 5834TIP3    H138917   1.647   3.609  13.692 -0.8813 -0.1560  1.1296
 5834TIP3    H238918   1.611   3.494  13.784 -1.2803 -0.9643 -0.0324
 5835TIP3   OH238919   3.632   3.946   1.502 -0.1126 -0.0648  0.2170
 5835TIP3    H138920   3.618   3.920   1.410 -0.0657 -1.5321  0.6017
 5835TIP3    H238921   3.727   3.941   1.513  0.2547  3.6276 -0.6233
 5836TIP3   OH238922   1.995   4.660   4.691 -0.0363  0.3623  0.0614
 5836TIP3    H138923   1.955   4.655   4.778 -1.1350  3.3401 -0.1961
 5836TIP3    H238924   1.921   4.651   4.631  0.4848  0.0280 -0.5302
 5837TIP3   OH238925   0.325   3.331   1.157  0.1422 -0.3184  0.2329
 5837TIP3    H138926   0.239   3.352   1.121  0.7417  0.7981 -0.5888
 5837TIP3    H238927   0.308   3.309   1.248 -0.9536  0.4858  0.2349
 5838TIP3   OH238928   0.973   6.627  12.870  0.2257  0.7101 -0.6427
 5838TIP3    H138929   0.996   6.719  12.882  2.0512  0.2910 -0.7301
 5838TIP3    H238930   1.044   6.591  12.817  0.0902 -1.0001  0.2881
 5839TIP3   OH238931   6.108   3.095  13.067  0.1514  0.3398 -0.0503
 5839TIP3    H138932   6.052   3.136  13.001  1.4863  1.7402 -0.3730
 5839TIP3    H238933   6.140   3.169  13.120 -2.8644 -0.9591  3.7985
 5840TIP3   OH238934   0.157   5.007  12.746 -0.0510  0.1932  0.1203
 5840TIP3    H138935   0.148   5.078  12.682  0.8292  1.3861  1.2869
 5840TIP3    H238936   0.219   4.946  12.705 -0.3473  0.3856 -0.6326
 5841TIP3   OH238937   0.489   5.687  16.362  0.4787  0.2808  0.0883
 5841TIP3    H138938   0.452   5.743  16.294 -0.7829 -0.4736  0.1446
 5841TIP3    H238939   0.494   5.600  16.322  1.5069  0.2188  0.3274
 5842TIP3   OH238940   5.177   3.255   4.397 -0.3114  0.3269 -0.0649
 5842TIP3    H138941   5.235   3.180   4.388 -0.2168  0.3209  0.5397
 5842TIP3    H238942   5.089   3.218   4.397 -0.2041 -0.1886  3.5471
 5843TIP3   OH238943   3.677   2.237   5.668 -0.0281 -0.5067  0.4258
 5843TIP3    H138944   3.612   2.222   5.737 -1.0084 -2.7244 -0.9478
 5843TIP3    H238945   3.627   2.235   5.587  1.8990 -3.3490 -0.7515
 5844TIP3   OH238946   1.283   3.447  14.664  0.3577 -0.1025 -0.1083
 5844TIP3    H138947   1.276   3.352  14.675  1.0812 -0.4335 -2.2556
 5844TIP3    H238948   1.275   3.460  14.569 -1.0559  2.1013  0.2856
 5845TIP3   OH238949   0.652   4.877  12.102  0.0521  0.0009 -0.1779
 5845TIP3    H138950   0.686   4.887  12.191 -0.8184 -0.6104  0.2281
 5845TIP3    H238951   0.558   4.863  12.113 -0.2358  0.9991 -1.2579
 5846TIP3   OH238952   6.732   0.154   2.661  0.2694 -0.3774 -0.7615
 5846TIP3    H138953   6.686   0.077   2.626  0.8587 -0.7387 -0.7504
 5846TIP3    H238954   6.809   0.163   2.605  0.1005  0.3307 -0.8890
 5847TIP3   OH238955   6.094   2.614  13.185  0.6783  0.1509  0.3288
 5847TIP3    H138956   6.171   2.605  13.130  0.8040  1.6765  0.2402
 5847TIP3    H238957   6.127   2.639  13.271  0.2577  1.4043  0.1360
 5848TIP3   OH238958   5.814   0.613   3.942  0.2732 -0.3003 -0.2060
 5848TIP3    H138959   5.841   0.686   3.886 -0.4977  1.2354  1.4105
 5848TIP3    H238960   5.879   0.545   3.924  0.0693  0.1556 -2.9535
 5849TIP3   OH238961   1.799   2.168  13.800  0.0682 -0.4433 -0.5243
 5849TIP3    H138962   1.821   2.088  13.849 -0.4023  0.0131  0.4409
 5849TIP3    H238963   1.871   2.228  13.819 -0.7386  0.1729  0.6228
 5850TIP3   OH238964   3.043   2.993  10.388  0.1986 -0.0524  0.0730
 5850TIP3    H138965   3.076   3.030  10.470  1.1307  0.7710 -0.6761
 5850TIP3    H238966   3.097   2.915  10.373 -2.4701 -2.4629  2.2222
 5851TIP3   OH238967   1.505   4.029   2.104  0.3046 -0.4124  0.2775
 5851TIP3    H138968   1.547   4.109   2.137  1.7331 -0.8713 -0.4102
 5851TIP3    H238969   1.478   4.051   2.015  3.2145 -1.5347 -0.9563
 5852TIP3   OH238970   1.735   2.807  12.733 -0.2706  0.1204 -0.6916
 5852TIP3    H138971   1.675   2.876  12.761 -0.4827 -0.2310 -0.2675
 5852TIP3    H238972   1.679   2.732  12.715 -0.0020 -0.0684 -0.7518
 5853TIP3   OH238973   1.400   5.563   3.143 -0.2176  0.4708  0.5669
 5853TIP3    H138974   1.310   5.595   3.144 -0.3760  0.0196  1.9097
 5853TIP3    H238975   1.409   5.516   3.226  0.7984 -0.7374 -0.2122
 5854TIP3   OH238976   3.131   6.196  15.184  0.0816  0.2581  0.0251
 5854TIP3    H138977   3.060   6.136  15.161  1.6985 -1.0888 -1.5981
 5854TIP3    H238978   3.112   6.276  15.135 -1.5311  0.7455  1.4018
 5855TIP3   OH238979   6.689   0.872   2.083 -0.3651 -0.0743  0.1156
 5855TIP3    H138980   6.627   0.915   2.142  0.0975 -0.5896  0.9936
 5855TIP3    H238981   6.741   0.816   2.140  1.2672  0.7470 -0.5288
 5856TIP3   OH238982   0.481   5.938  14.595 -0.5137  0.1183  0.1827
 5856TIP3    H138983   0.509   6.002  14.530  1.6645  0.2349  1.1846
 5856TIP3    H238984   0.449   5.864  14.544 -0.8908  1.0807 -0.9937
 5857TIP3   OH238985   1.053   5.008  17.175 -0.4093  0.4068  0.1777
 5857TIP3    H138986   0.997   5.068  17.125  1.2937  2.0108  0.1747
 5857TIP3    H238987   1.087   4.947  17.109  0.1971  1.2544 -0.2986
 5858TIP3   OH238988   6.138   2.503  17.031  0.0745  0.2573  0.1369
 5858TIP3    H138989   6.117   2.469  17.118  1.1546 -0.2840  0.1915
 5858TIP3    H238990   6.054   2.502  16.985 -0.3390 -0.3249  0.8782
 5859TIP3   OH238991   6.252   0.811   2.858  0.3972  0.5793  0.0698
 5859TIP3    H138992   6.244   0.835   2.765 -0.3238 -0.1728 -0.0634
 5859TIP3    H238993   6.335   0.763   2.862  0.9315  1.4928  0.0002
 5860TIP3   OH238994   0.955   4.603  14.291 -0.4938  0.5775 -0.0260
 5860TIP3    H138995   0.933   4.652  14.370 -0.3330  2.4407 -1.0905
 5860TIP3    H238996   0.923   4.658  14.219 -0.3505 -0.9233 -1.2677
 5861TIP3   OH238997   5.672   4.850  15.615  0.2281 -0.3574 -0.0739
 5861TIP3    H138998   5.706   4.872  15.702  0.0048  1.5476 -0.4259
 5861TIP3    H238999   5.631   4.932  15.585 -0.0903 -1.1242 -1.7748
 5862TIP3   OH239000   1.161   2.482   5.794  0.5992 -0.4430  0.2742
 5862TIP3    H139001   1.171   2.502   5.887  1.9348  1.2504 -0.1984
 5862TIP3    H239002   1.232   2.530   5.751  0.7108 -2.1027 -1.5124
 5863TIP3   OH239003   4.426   5.469   4.649 -0.3972  0.2844  0.1980
 5863TIP3    H139004   4.444   5.482   4.743 -0.5597  0.1438  0.2500
 5863TIP3    H239005   4.512   5.476   4.608 -0.2028 -0.4766  0.4602
 5864TIP3   OH239006   4.666   4.560   0.000  0.1899 -0.4115  0.3020
 5864TIP3    H139007   4.576   4.540   0.025 -0.0309 -4.2971 -3.1503
 5864TIP3    H239008   4.658   4.621  -0.073  0.4370 -0.1647  0.4731
 5865TIP3   OH239009   3.497   2.029   2.577 -0.0804  0.2312 -0.3225
 5865TIP3    H139010   3.484   1.935   2.566 -2.2572  0.3165  1.0223
 5865TIP3    H239011   3.574   2.050   2.525  0.8832 -2.4308 -0.0204
 5866TIP3   OH239012   2.518   3.742   2.020  0.0970  0.2496  0.7592
 5866TIP3    H139013   2.595   3.794   2.040 -0.0718  0.7852  0.0331
 5866TIP3    H239014   2.490   3.772   1.934 -0.8819  0.0067  0.9843
 5867TIP3   OH239015   5.715   1.158  14.652 -0.4154 -0.2620 -0.0630
 5867TIP3    H139016   5.688   1.250  14.646 -0.8408 -0.3588  0.3663
 5867TIP3    H239017   5.709   1.126  14.562 -0.9156 -0.0482 -0.1101
 5868TIP3   OH239018   0.339   6.149  13.831 -0.1446  0.1663  0.1618
 5868TIP3    H139019   0.283   6.088  13.879 -0.8194  0.1612 -0.6106
 5868TIP3    H239020   0.280   6.215  13.797 -0.0758 -1.1320 -2.6767
 5869TIP3   OH239021   0.017   6.784  17.188  0.0445 -0.4064  0.3852
 5869TIP3    H139022   0.085   6.845  17.215 -1.0311  1.2597 -0.5863
 5869TIP3    H239023   0.018   6.715  17.255  0.7038  1.1178  1.9663
 5870TIP3   OH239024   4.995   1.239   4.262  0.3807  0.5317 -0.1143
 5870TIP3    H139025   4.964   1.214   4.349 -2.5616 -0.8161 -1.4521
 5870TIP3    H239026   4.960   1.327   4.249  1.0370  0.8320  0.1858
 5871TIP3   OH239027   3.875   1.424  14.788  0.3322 -0.2063 -0.0374
 5871TIP3    H139028   3.869   1.490  14.857 -0.4370  0.8096 -1.0581
 5871TIP3    H239029   3.785   1.407  14.762  0.4553 -2.2327  0.7115
 5872TIP3   OH239030   6.416   2.206   1.791 -0.1509 -0.2181  0.2339
 5872TIP3    H139031   6.472   2.152   1.848 -0.5642 -0.1779  0.6777
 5872TIP3    H239032   6.444   2.296   1.808 -0.4685 -0.1853  0.5844
 5873TIP3   OH239033   1.295   3.888   6.286  0.3018  0.0225 -0.4370
 5873TIP3    H139034   1.375   3.892   6.337 -0.0994 -1.1969  0.3228
 5873TIP3    H239035   1.228   3.859   6.348 -0.6837  0.8526 -1.1001
 5874TIP3   OH239036   2.915   5.171  15.488  0.0116 -0.6379 -0.2312
 5874TIP3    H139037   2.921   5.144  15.580 -0.1719 -0.2456 -0.1008
 5874TIP3    H239038   2.995   5.221  15.472 -0.1286 -0.4009 -0.1826
 5875TIP3   OH239039   1.780   3.192   0.207  0.2975  0.1172  0.3747
 5875TIP3    H139040   1.699   3.210   0.160 -0.5451  0.5142  1.9592
 5875TIP3    H239041   1.839   3.263   0.183  0.0631  0.0178 -0.5023
 5876TIP3   OH239042   0.785   4.412  13.007 -0.0059  0.2396 -0.4926
 5876TIP3    H139043   0.692   4.399  13.024  0.3339 -1.1540  0.3384
 5876TIP3    H239044   0.822   4.324  13.005  1.3252  0.7911 -0.6595
 5877TIP3   OH239045   4.214   6.141  17.020 -0.4169 -0.5127 -0.0192
 5877TIP3    H139046   4.299   6.121  17.060 -0.3535  1.2817  0.8219
 5877TIP3    H239047   4.149   6.119  17.087 -0.4527  0.3513  0.2383
 5878TIP3   OH239048   0.996   6.393   2.453 -0.8081 -0.2362 -0.7755
 5878TIP3    H139049   0.970   6.301   2.457  0.9553 -0.7898 -1.6191
 5878TIP3    H239050   0.991   6.424   2.543 -0.8249 -1.3098 -0.4065
 5879TIP3   OH239051   4.709   5.678   2.497  0.6142  0.6803 -0.6259
 5879TIP3    H139052   4.765   5.623   2.443  0.4704  2.2464 -2.4354
 5879TIP3    H239053   4.723   5.767   2.463  0.8116  1.7649  2.1909
 5880TIP3   OH239054   3.788   0.667   5.096  0.6484 -0.1737  0.6272
 5880TIP3    H139055   3.824   0.686   5.009 -1.7681  1.7919  0.0195
 5880TIP3    H239056   3.803   0.747   5.146  0.2515 -0.5923  1.4205
 5881TIP3   OH239057   1.639   1.451  16.639 -0.1636 -0.2716 -0.5917
 5881TIP3    H139058   1.681   1.366  16.652  0.2933 -0.1017 -0.9582
 5881TIP3    H239059   1.564   1.449  16.699  1.2584  0.0450  1.2417
 5882TIP3   OH239060   3.976   0.797   1.550  0.5726  0.0256 -0.0632
 5882TIP3    H139061   4.014   0.721   1.505 -0.3896 -0.0897 -0.7106
 5882TIP3    H239062   4.044   0.825   1.611  0.4224 -2.1696  1.1461
 5883TIP3   OH239063   5.610   1.939  12.366 -0.0513  0.7633 -0.4462
 5883TIP3    H139064   5.546   1.971  12.303 -1.5039  0.7812  1.0039
 5883TIP3    H239065   5.680   2.005  12.366 -0.0339  0.7449 -2.0236
 5884TIP3   OH239066   3.965   0.932   0.712  0.9138 -0.3239 -0.1756
 5884TIP3    H139067   4.041   0.987   0.693  0.6452 -0.6797 -2.5306
 5884TIP3    H239068   3.985   0.849   0.668  0.3454 -1.3489  1.4730
 5885TIP3   OH239069   1.055   1.115  14.394 -0.3822  0.4139 -0.2249
 5885TIP3    H139070   0.998   1.140  14.322 -2.8374 -0.4141  1.3822
 5885TIP3    H239071   1.000   1.121  14.472  1.7842 -0.2079  1.4096
 5886TIP3   OH239072   3.813   4.494  15.586  0.5092 -0.2541  0.2109
 5886TIP3    H139073   3.813   4.580  15.544  0.0537  0.0789  0.8741
 5886TIP3    H239074   3.862   4.508  15.667 -1.1904 -0.1346  1.2564
 5887TIP3   OH239075   0.598   4.997  16.065 -0.2452 -0.1561 -0.2186
 5887TIP3    H139076   0.617   5.090  16.076  0.0281 -0.0109 -1.7258
 5887TIP3    H239077   0.680   4.960  16.030  0.1788 -1.2823  1.8983
 5888TIP3   OH239078   5.239   1.845  13.409 -0.4853 -0.2512  0.0074
 5888TIP3    H139079   5.181   1.865  13.336  1.1357  0.4862 -1.1186
 5888TIP3    H239080   5.181   1.831  13.484 -2.0355  1.5588 -0.8324
 5889TIP3   OH239081   1.711   0.618   6.229 -0.1420  0.4355  0.3171
 5889TIP3    H139082   1.661   0.679   6.283  0.9973  0.8618  0.9035
 5889TIP3    H239083   1.649   0.549   6.206 -0.7919  0.5683  1.6691
 5890TIP3   OH239084   2.984   1.631  16.409 -0.2461  0.3166 -0.3445
 5890TIP3    H139085   3.010   1.539  16.415  0.7070  0.6224  0.4425
 5890TIP3    H239086   2.955   1.653  16.498  1.2976  1.2849 -0.0741
 5891TIP3   OH239087   3.996   3.739   4.712  0.0873 -0.3718  0.2292
 5891TIP3    H139088   4.004   3.717   4.805 -1.2231  2.2122  1.0176
 5891TIP3    H239089   4.063   3.686   4.669  2.0781 -0.1847  2.9113
 5892TIP3   OH239090   1.920   3.518   2.096 -0.0877 -0.2949  0.2016
 5892TIP3    H139091   1.984   3.586   2.119 -0.1975 -0.6484  1.5552
 5892TIP3    H239092   1.904   3.472   2.178 -0.4729 -1.5705 -0.5914
 5893TIP3   OH239093   5.184   5.647  17.068  0.1221  0.0287  0.2310
 5893TIP3    H139094   5.140   5.674  17.148 -2.2078  0.9880 -1.3082
 5893TIP3    H239095   5.157   5.556  17.056  1.8520 -0.6705  1.3961
 5894TIP3   OH239096   4.249   5.260   3.444 -0.6373  0.2380  0.1658
 5894TIP3    H139097   4.311   5.197   3.407 -0.6463  0.2227  0.1769
 5894TIP3    H239098   4.172   5.207   3.466 -0.6417  0.2514  0.1828
 5895TIP3   OH239099   4.443   3.147   2.828 -0.0236  0.2832  0.3399
 5895TIP3    H139100   4.434   3.134   2.923  2.0921 -0.1105  0.5205
 5895TIP3    H239101   4.419   3.238   2.814 -1.0403  0.1482  1.1617
 5896TIP3   OH239102   1.574   6.375  15.913  0.4052  0.3916 -0.7079
 5896TIP3    H139103   1.603   6.466  15.924  0.5258  0.2785 -0.0561
 5896TIP3    H239104   1.479   6.381  15.911  0.3643  0.4085  0.6317
 5897TIP3   OH239105   1.056   4.829  15.863 -0.4980  0.4904  0.4682
 5897TIP3    H139106   1.072   4.895  15.931  0.6351 -0.3593  1.0455
 5897TIP3    H239107   1.084   4.746  15.903 -0.5084 -0.1236 -0.7777
 5898TIP3   OH239108   5.523   4.806   3.781 -0.4201  0.6913  0.3083
 5898TIP3    H139109   5.470   4.731   3.805  0.4433 -0.2196 -0.5981
 5898TIP3    H239110   5.575   4.777   3.706 -0.4178  2.3393 -0.3531
 5899TIP3   OH239111   6.011   1.844   2.025  0.3041 -0.2753 -0.0708
 5899TIP3    H139112   6.107   1.846   2.023  0.3109  2.4613  1.3765
 5899TIP3    H239113   5.986   1.931   2.056 -2.5839 -1.7098  1.7859
 5900TIP3   OH239114   2.125   4.922  12.968  0.4904 -0.0094  0.1897
 5900TIP3    H139115   2.103   4.960  12.883  1.1217  0.8766  0.4062
 5900TIP3    H239116   2.126   4.828  12.954 -1.9010  0.0063 -0.1823
 5901TIP3   OH239117   6.137   4.650   4.206 -0.7546  0.0421  0.3901
 5901TIP3    H139118   6.085   4.696   4.140 -1.8521 -0.3677  0.9511
 5901TIP3    H239119   6.182   4.581   4.158 -0.7665  0.3712 -0.0948
 5902TIP3   OH239120   3.032   0.174   3.683 -0.1627 -0.1157  0.3295
 5902TIP3    H139121   3.067   0.118   3.752 -1.4296 -1.3399  0.0018
 5902TIP3    H239122   3.081   0.149   3.605  2.2247  2.2154  1.0082
 5903TIP3   OH239123   3.245   5.496  14.608  0.2123  0.2477  0.2222
 5903TIP3    H139124   3.303   5.469  14.680  2.1032  2.1742 -0.5239
 5903TIP3    H239125   3.231   5.416  14.558  1.4055 -0.4583  0.9945
 5904TIP3   OH239126   3.600   4.626   3.699  0.1432  0.2452  0.0157
 5904TIP3    H139127   3.507   4.605   3.705  0.7752 -2.1449  2.7391
 5904TIP3    H239128   3.637   4.556   3.646  0.6169  0.3711  0.1768
 5905TIP3   OH239129   2.791   6.200   0.414  0.4163  1.0334  0.5010
 5905TIP3    H139130   2.874   6.239   0.385 -0.4127  1.7963 -0.9075
 5905TIP3    H239131   2.759   6.154   0.337 -0.1151  0.1166  1.2623
 5906TIP3   OH239132   5.149   1.982  15.064 -0.3198  0.2818  0.7813
 5906TIP3    H139133   5.129   1.968  14.971  0.4376  1.8129  0.3522
 5906TIP3    H239134   5.169   1.895  15.098  1.3184 -0.0925 -0.9889
 5907TIP3   OH239135   3.132   0.768  12.212 -0.4289 -0.1179  0.1071
 5907TIP3    H139136   3.160   0.742  12.124  0.5932  0.3787  0.2809
 5907TIP3    H239137   3.103   0.687  12.253 -0.5561 -0.4121 -0.5623
 5908TIP3   OH239138   2.668   4.779  15.264 -0.0569 -0.3208 -0.3481
 5908TIP3    H139139   2.646   4.855  15.317  0.2960  0.6769 -1.6187
 5908TIP3    H239140   2.596   4.770  15.201 -1.4072 -2.6170  1.4475
 5909TIP3   OH239141   4.060   0.963   4.992 -0.2333  0.2433 -0.1140
 5909TIP3    H139142   4.147   0.987   4.958 -0.8087  0.1523 -1.6874
 5909TIP3    H239143   4.069   0.871   5.018  0.1517  0.2487 -0.2267
 5910TIP3   OH239144   6.047   0.397  11.640 -0.1170  0.2210  0.0193
 5910TIP3    H139145   6.079   0.382  11.729  0.6609 -2.1291 -0.6125
 5910TIP3    H239146   5.978   0.331  11.629  1.4301 -1.1227 -1.9170
 5911TIP3   OH239147   0.815   6.519   1.851  0.4959  0.8688  0.5090
 5911TIP3    H139148   0.822   6.454   1.921 -0.2417  0.2848  0.0612
 5911TIP3    H239149   0.855   6.476   1.775 -0.4728  0.7084  0.0698
 5912TIP3   OH239150   1.263   6.197   2.382 -0.1002  0.3468 -0.2261
 5912TIP3    H139151   1.292   6.235   2.299  1.9020  1.5321  0.9751
 5912TIP3    H239152   1.234   6.108   2.359  0.4647  0.6412 -2.1700
 5913TIP3   OH239153   5.097   5.386   4.287  0.2150 -0.1772  0.1467
 5913TIP3    H139154   5.177   5.391   4.339  1.0601  1.0722 -1.2306
 5913TIP3    H239155   5.098   5.299   4.248 -0.7867 -1.3931  2.7531
 5914TIP3   OH239156   6.571   3.656   4.264 -0.2494  0.1996 -0.0744
 5914TIP3    H139157   6.641   3.592   4.251  0.8650  0.8924  2.3552
 5914TIP3    H239158   6.595   3.730   4.208 -0.3543 -0.5589 -1.1416
 5915TIP3   OH239159   5.784   3.702  14.564  0.7788 -0.3020  0.1991
 5915TIP3    H139160   5.699   3.740  14.587  2.1655  2.8382  0.4111
 5915TIP3    H239161   5.763   3.622  14.518 -2.3744  1.2767 -1.2451
 5916TIP3   OH239162   1.776   1.106  11.515  0.2921  0.2053  0.8058
 5916TIP3    H139163   1.862   1.067  11.536 -0.7899 -1.7171  1.8509
 5916TIP3    H239164   1.779   1.193  11.555  1.5917 -0.0259  1.2423
 5917TIP3   OH239165   6.573   5.283   4.697 -0.3985 -0.0805  0.8521
 5917TIP3    H139166   6.562   5.338   4.619 -0.7944 -1.0736  0.2064
 5917TIP3    H239167   6.550   5.341   4.769  0.4793  1.0083  0.2850
 5918TIP3   OH239168   6.236   3.735   2.936  0.0223 -0.1639 -0.0838
 5918TIP3    H139169   6.234   3.821   2.979 -1.2010 -0.2339  0.0258
 5918TIP3    H239170   6.328   3.719   2.919  0.3264  0.8648  0.5303
 5919TIP3   OH239171   1.714   3.906   4.267 -0.5864 -0.6279  0.3770
 5919TIP3    H139172   1.686   3.979   4.322  0.9023 -0.0426  0.3866
 5919TIP3    H239173   1.671   3.921   4.183 -0.4236  0.1767  0.4366
 5920TIP3   OH239174   6.586   2.407   4.292  0.0089  0.0459  0.4162
 5920TIP3    H139175   6.557   2.473   4.229 -0.6735 -1.2374 -0.6414
 5920TIP3    H239176   6.505   2.377   4.333  0.2193 -0.7895  0.2284
 5921TIP3   OH239177   1.361   3.678   0.319 -0.4072  0.1034  0.3547
 5921TIP3    H139178   1.271   3.691   0.349 -0.5980 -0.7986  0.1711
 5921TIP3    H239179   1.356   3.603   0.260  0.6101 -0.5223  1.0502
 5922TIP3   OH239180   3.159   4.706   2.426 -0.2847 -0.2018 -0.3405
 5922TIP3    H139181   3.214   4.738   2.355  1.6150  0.3261  1.3296
 5922TIP3    H239182   3.081   4.672   2.382  2.2924 -3.0340 -2.9614
 5923TIP3   OH239183   2.375   2.497   5.851  0.0731 -0.2848 -0.2551
 5923TIP3    H139184   2.429   2.509   5.928 -0.3620  1.8088 -0.2541
 5923TIP3    H239185   2.285   2.510   5.882 -0.2265 -0.8951 -0.8292
 5924TIP3   OH239186   3.985   4.986  15.194  0.5034 -0.0077 -0.5313
 5924TIP3    H139187   3.984   4.892  15.213  1.6116  0.0695 -0.0436
 5924TIP3    H239188   3.920   5.023  15.254  0.7020 -0.3452 -0.1056
 5925TIP3   OH239189   5.118   4.055  13.855 -0.0736 -0.1406 -0.0060
 5925TIP3    H139190   5.124   4.068  13.950 -0.8268 -2.2070  0.3500
 5925TIP3    H239191   5.208   4.062  13.824 -0.1641  4.0166  0.3246
 5926TIP3   OH239192   5.895   0.725   5.819  0.3243  0.3264 -0.5934
 5926TIP3    H139193   5.870   0.707   5.728  0.6432 -0.5224 -0.5185
 5926TIP3    H239194   5.888   0.820   5.827 -2.4407  0.1505 -0.6948
 5927TIP3   OH239195   6.673   2.857  12.625 -0.1596 -0.0285  0.3566
 5927TIP3    H139196   6.600   2.911  12.655  0.3015  2.1046 -2.1906
 5927TIP3    H239197   6.669   2.861  12.530  3.7878  0.8538  0.1536
 5928TIP3   OH239198   1.596   3.945  13.200  0.3148 -0.0590 -0.1043
 5928TIP3    H139199   1.533   3.973  13.266 -0.2570 -1.3384 -0.0968
 5928TIP3    H239200   1.561   3.978  13.117  0.9576  1.4204  0.1972
 5929TIP3   OH239201   5.010   4.538  13.960  0.5694 -1.0896  0.0102
 5929TIP3    H139202   5.097   4.512  13.990  0.3042 -1.5850  0.3618
 5929TIP3    H239203   4.950   4.479  14.006  0.0281 -0.5409  0.0071
 5930TIP3   OH239204   2.297   1.644  11.105 -0.4514 -0.2490  0.2624
 5930TIP3    H139205   2.234   1.709  11.074  0.7081  1.0426  0.5774
 5930TIP3    H239206   2.351   1.625  11.028 -1.1018 -1.2331  0.0359
 5931TIP3   OH239207   3.231   3.351   1.091  0.1003 -0.9549 -0.5192
 5931TIP3    H139208   3.307   3.338   1.147  0.4186  0.0507 -0.7166
 5931TIP3    H239209   3.173   3.408   1.142  0.6714  0.4816 -1.4640
 5932TIP3   OH239210   4.645   3.587  12.120 -0.0888  0.0610 -0.3860
 5932TIP3    H139211   4.623   3.529  12.047 -0.6843  1.0965 -1.0357
 5932TIP3    H239212   4.665   3.671  12.079 -2.2841  1.1803  0.7539
 5933TIP3   OH239213   5.368   0.097  12.101 -0.4936  0.1779 -0.3299
 5933TIP3    H139214   5.454   0.060  12.080 -0.8616 -0.4728 -0.6802
 5933TIP3    H239215   5.358   0.171  12.041 -1.8609 -2.1144 -3.0017
 5934TIP3   OH239216   0.685   6.317  14.498 -0.1790 -0.3837 -0.4190
 5934TIP3    H139217   0.709   6.348  14.410  0.4502 -0.2127 -0.1882
 5934TIP3    H239218   0.656   6.227  14.484  1.5925 -0.9538 -0.5687
 5935TIP3   OH239219   3.855   0.110   3.199 -0.0598  0.5090 -0.2191
 5935TIP3    H139220   3.951   0.106   3.198 -0.0986 -0.6226 -0.2969
 5935TIP3    H239221   3.835   0.191   3.245  0.9478 -0.3023  1.7278
 5936TIP3   OH239222   1.138   5.959   4.364 -0.7408  0.0124 -0.1107
 5936TIP3    H139223   1.107   5.894   4.427 -0.0432 -0.4225 -0.2038
 5936TIP3    H239224   1.135   6.042   4.412 -1.3381 -0.1388  0.1104
 5937TIP3   OH239225   4.126   4.086   4.309  0.4342  0.1694 -0.4598
 5937TIP3    H139226   4.076   4.068   4.230 -1.7946  0.7549  0.7969
 5937TIP3    H239227   4.069   4.060   4.381  1.3244  2.2029  1.0554
 5938TIP3   OH239228   5.285   5.640   1.754  0.0197  0.5896 -0.0351
 5938TIP3    H139229   5.324   5.700   1.818 -1.6704  0.5903  1.0170
 5938TIP3    H239230   5.210   5.602   1.799 -1.1656  0.5337 -1.9956
 5939TIP3   OH239231   3.445   2.580   0.315 -0.2283  0.7223  0.0239
 5939TIP3    H139232   3.429   2.513   0.381  1.1103  1.2290  0.8964
 5939TIP3    H239233   3.409   2.544   0.234 -0.3337 -0.6595  0.6752
 5940TIP3   OH239234   1.956   3.866   3.110  0.3015 -0.4771  0.3027
 5940TIP3    H139235   1.950   3.921   3.032  1.5710 -1.2224 -0.3264
 5940TIP3    H239236   2.018   3.910   3.167 -0.1425 -0.2670  0.6324
 5941TIP3   OH239237   1.320   2.303  12.334  0.0162 -0.3008  0.7317
 5941TIP3    H139238   1.370   2.382  12.317 -1.1980  0.6325  1.3875
 5941TIP3    H239239   1.317   2.257  12.250 -0.0703  0.8211  0.1102
 5942TIP3   OH239240   1.140   4.449  16.472  0.5784 -0.1951 -0.3759
 5942TIP3    H139241   1.091   4.408  16.401 -0.6074  1.5879 -0.6134
 5942TIP3    H239242   1.134   4.543  16.454  1.9480  0.1721  0.9970
 5943TIP3   OH239243   2.240   6.310   0.360  0.2645  0.2025 -0.3359
 5943TIP3    H139244   2.222   6.377   0.294 -3.0562 -1.3083 -1.0696
 5943TIP3    H239245   2.180   6.331   0.432 -0.7714 -1.9291 -0.5600
 5944TIP3   OH239246   0.932   1.785  16.838  0.3119 -0.1148  0.9233
 5944TIP3    H139247   1.026   1.783  16.855  0.5492 -0.0396 -0.2825
 5944TIP3    H239248   0.917   1.873  16.803 -0.2814  0.0107  1.4960
 5945TIP3   OH239249   3.742   4.968  12.424 -0.0104  0.6196 -0.3469
 5945TIP3    H139250   3.785   4.930  12.347  0.3792  0.2007  0.0712
 5945TIP3    H239251   3.798   5.042  12.449  0.8151 -0.2789  0.5477
 5946TIP3   OH239252   4.493   1.085  14.547 -0.3347  0.1622  0.3777
 5946TIP3    H139253   4.415   1.135  14.569 -1.0359 -0.0059 -1.6594
 5946TIP3    H239254   4.489   1.007  14.603 -0.2735  1.3663  2.1119
 5947TIP3   OH239255   3.124   0.927  15.708 -0.3577 -0.0936  0.1029
 5947TIP3    H139256   3.085   0.840  15.697 -0.7139 -0.0440  0.9273
 5947TIP3    H239257   3.217   0.914  15.687  0.0988 -1.2307  2.5836
 5948TIP3   OH239258   5.850   2.194  14.104  0.1650  0.3231  0.4846
 5948TIP3    H139259   5.773   2.170  14.053 -0.4842  1.8398  0.7299
 5948TIP3    H239260   5.879   2.277  14.066  2.0311 -0.5245  0.0117
 5949TIP3   OH239261   5.289   1.292   4.868  0.2125  0.2226 -0.7210
 5949TIP3    H139262   5.332   1.338   4.795  1.6241 -1.7436 -1.1826
 5949TIP3    H239263   5.340   1.211   4.878 -0.7981 -0.1603  1.5784
 5950TIP3   OH239264   4.707   3.547   4.180  0.0969 -0.6463  0.1641
 5950TIP3    H139265   4.622   3.530   4.222  0.0760 -1.7137 -0.3087
 5950TIP3    H239266   4.746   3.616   4.234 -1.0901 -0.1122  0.3663
 5951TIP3   OH239267   4.826   3.617  16.608 -0.2739  0.2766  0.3945
 5951TIP3    H139268   4.854   3.696  16.655 -0.5311 -0.9660  2.7512
 5951TIP3    H239269   4.737   3.601  16.640 -0.9217  0.0355 -1.4548
 5952TIP3   OH239270   0.082   2.050  13.260 -0.6082 -0.3526  0.3749
 5952TIP3    H139271   0.020   1.984  13.290  1.5451 -1.4566  2.6185
 5952TIP3    H239272   0.168   2.015  13.284  0.6073  3.4495  2.1342
 5953TIP3   OH239273   3.168   3.742   0.799 -0.0697 -0.4922 -0.1460
 5953TIP3    H139274   3.210   3.659   0.818 -1.6115 -1.4693 -0.9245
 5953TIP3    H239275   3.119   3.727   0.718 -0.8727  0.9753  0.0411
 5954TIP3   OH239276   0.071   5.041  16.555 -0.7465 -0.6694 -0.7193
 5954TIP3    H139277   0.029   4.956  16.566 -1.8545 -0.0978 -0.5159
 5954TIP3    H239278   0.160   5.028  16.588 -1.2733 -1.4203  0.4349
 5955TIP3   OH239279   2.864   0.500  16.297 -0.4775  0.2491 -0.1308
 5955TIP3    H139280   2.927   0.434  16.267  1.1803  1.6344  0.1959
 5955TIP3    H239281   2.897   0.583  16.261 -0.9230  1.3013  1.8318
 5956TIP3   OH239282   0.091   0.045   6.575 -0.0040  0.4341 -0.3911
 5956TIP3    H139283   0.008   0.071   6.614 -0.3382  0.9767 -1.4608
 5956TIP3    H239284   0.074  -0.041   6.537 -0.2452  0.7923 -1.1092
 5957TIP3   OH239285   4.455   2.021  12.167  0.0721 -0.0214  0.2322
 5957TIP3    H139286   4.531   1.975  12.203  0.5172 -0.5259 -1.3088
 5957TIP3    H239287   4.400   1.952  12.131 -0.2659  0.4882 -0.2332
 5958TIP3   OH239288   2.507   2.939  14.987 -0.1560 -0.8524  0.8045
 5958TIP3    H139289   2.430   2.891  14.957  0.8899 -1.7040 -0.5515
 5958TIP3    H239290   2.479   2.980  15.069 -1.7812 -1.8545  0.7679
 5959TIP3   OH239291   0.204   4.286  15.288  0.0766  0.5047  0.6476
 5959TIP3    H139292   0.147   4.343  15.235  1.0673  1.2344  0.3642
 5959TIP3    H239293   0.146   4.253  15.357 -1.0290  0.1973 -0.3886
 5960TIP3   OH239294   6.555   0.698  14.920  0.4427 -0.3894  0.0147
 5960TIP3    H139295   6.569   0.792  14.913  0.3745 -0.4473 -0.9475
 5960TIP3    H239296   6.619   0.669  14.985 -1.0298  0.6521  1.9916
 5961TIP3   OH239297   3.363   5.497  13.481  0.4986  0.1581 -0.5977
 5961TIP3    H139298   3.401   5.548  13.410  1.8898 -0.4451 -0.3055
 5961TIP3    H239299   3.271   5.522  13.483  1.0643  2.3325 -0.7585
 5962TIP3   OH239300   4.554   5.079  13.909  0.3102  0.1308 -0.4957
 5962TIP3    H139301   4.640   5.098  13.946  0.4873  0.9580 -1.3477
 5962TIP3    H239302   4.493   5.131  13.962  0.2877 -0.6176  0.2459
 5963TIP3   OH239303   4.470   2.692   5.996 -0.2840 -0.2657  0.4910
 5963TIP3    H139304   4.527   2.750   6.046 -0.4457  0.4699 -0.1567
 5963TIP3    H239305   4.424   2.640   6.062 -1.1707  1.3211  1.1499
 5964TIP3   OH239306   1.301   1.976  13.838 -0.1968  0.8470 -0.0411
 5964TIP3    H139307   1.353   1.901  13.810 -1.7781 -0.3899  0.2652
 5964TIP3    H239308   1.230   1.982  13.775 -1.6728  0.3318  1.5163
 5965TIP3   OH239309   1.124   6.623   1.692 -0.5672 -0.1290 -0.3250
 5965TIP3    H139310   1.174   6.552   1.651 -1.4795 -1.1500  0.2976
 5965TIP3    H239311   1.157   6.626   1.782  0.1137  0.8488 -0.6072
 5966TIP3   OH239312   1.157   6.354   3.355 -0.2195  0.2316 -0.0537
 5966TIP3    H139313   1.164   6.400   3.439  0.9921  0.9053 -0.5136
 5966TIP3    H239314   1.195   6.268   3.371  0.5297  0.5583 -0.0492
 5967TIP3   OH239315   6.071   1.602  15.287  0.3529  0.3206 -0.0044
 5967TIP3    H139316   6.080   1.691  15.253 -1.1669  0.5598  0.1606
 5967TIP3    H239317   6.128   1.549  15.232  2.6132  1.6474  0.9805
 5968TIP3   OH239318   4.810   0.055   0.228  0.5498  0.2332  0.3842
 5968TIP3    H139319   4.860   0.136   0.215 -1.0686  1.1803 -0.0504
 5968TIP3    H239320   4.857  -0.011   0.177  0.2852  1.5495 -1.5935
 5969TIP3   OH239321   0.035   5.654   3.098  0.2554 -0.0581  0.2111
 5969TIP3    H139322   0.068   5.667   3.187  1.7369 -0.4158 -0.2656
 5969TIP3    H239323   0.101   5.598   3.057  0.3578  1.3497 -1.5678
 5970TIP3   OH239324   5.205   5.353   3.986  0.0604  0.6798  0.1077
 5970TIP3    H139325   5.155   5.364   3.905  2.6109 -0.8044 -1.7148
 5970TIP3    H239326   5.146   5.304   4.044 -1.8606  1.9582 -0.7220
 5971TIP3   OH239327   3.727   6.200   6.477  0.0278  0.1724 -0.1636
 5971TIP3    H139328   3.693   6.282   6.443 -0.9655  0.3910  1.3053
 5971TIP3    H239329   3.711   6.205   6.571 -0.9162 -2.0880 -0.1688
 5972TIP3   OH239330   3.896   1.318  12.642  0.0571  0.2825 -0.1941
 5972TIP3    H139331   3.890   1.224  12.660  0.3511  0.5474  1.3600
 5972TIP3    H239332   3.976   1.346  12.686 -1.8824  1.9147  2.5111
 5973TIP3   OH239333   0.329   4.359  13.067 -0.0966  0.1382 -0.2150
 5973TIP3    H139334   0.340   4.419  13.141 -0.5642 -0.7316  0.5744
 5973TIP3    H239335   0.260   4.400  13.014 -0.0456  0.5660  0.0433
 5974TIP3   OH239336   6.143   1.844   0.478  0.2035 -0.0492 -0.5353
 5974TIP3    H139337   6.096   1.800   0.550 -0.3709 -1.0941 -1.5401
 5974TIP3    H239338   6.164   1.774   0.417 -1.2501  1.1612 -2.4511
 5975TIP3   OH239339   0.863   1.123   3.740  0.2801 -0.1748  0.0252
 5975TIP3    H139340   0.879   1.085   3.827 -0.2047  0.0316  0.2057
 5975TIP3    H239341   0.929   1.083   3.684  1.5488  0.8042  0.8059
 5976TIP3   OH239342   5.883   5.545   4.331  0.0406  0.4966 -0.0856
 5976TIP3    H139343   5.887   5.451   4.348  1.1755  0.5513 -0.0169
 5976TIP3    H239344   5.834   5.553   4.249 -1.6336 -0.0348  0.8425
 5977TIP3   OH239345   4.486   1.628  14.397  0.3692  0.1840  0.5373
 5977TIP3    H139346   4.539   1.566  14.447  0.3219 -1.0796 -0.9496
 5977TIP3    H239347   4.549   1.691  14.362  0.9564 -1.3880 -1.3339
 5978TIP3   OH239348   0.799   3.104   1.480 -0.7359 -0.1615  0.5554
 5978TIP3    H139349   0.712   3.139   1.495 -1.6182 -2.0978  0.1144
 5978TIP3    H239350   0.811   3.110   1.385 -0.7945 -0.8062  0.5051
 5979TIP3   OH239351   0.746   3.140  12.342  0.0810 -0.1332  0.1556
 5979TIP3    H139352   0.731   3.193  12.264 -0.8163  0.6070  0.8218
 5979TIP3    H239353   0.727   3.198  12.415  1.3648 -0.6868  0.9435
 5980TIP3   OH239354   6.373   1.301   6.152  0.0260  0.3228 -0.1749
 5980TIP3    H139355   6.393   1.274   6.242 -0.3405 -0.8505 -0.4328
 5980TIP3    H239356   6.458   1.301   6.108  0.4477  2.5854  0.5961
 5981TIP3   OH239357   2.420   4.950   4.906  0.1573 -0.1947  0.5095
 5981TIP3    H139358   2.353   4.904   4.855 -0.5000 -0.6306  1.7371
 5981TIP3    H239359   2.371   5.017   4.954  0.2663 -1.7853  2.9317
 5982TIP3   OH239360   4.684   4.408  15.185 -0.2076  0.8435 -0.2663
 5982TIP3    H139361   4.646   4.467  15.249 -1.4682  0.3947 -0.5932
 5982TIP3    H239362   4.712   4.332  15.236 -0.7055  0.7253 -0.1709
 5983TIP3   OH239363   1.752   4.572   6.011 -0.1955 -0.3992  0.2376
 5983TIP3    H139364   1.735   4.588   6.104 -1.5198  0.5507 -0.1431
 5983TIP3    H239365   1.824   4.631   5.988  0.4041 -0.9292  0.7506
 5984TIP3   OH239366   6.660   3.927   4.583  0.3045  0.4832  0.3784
 5984TIP3    H139367   6.748   3.953   4.555  0.0135 -0.1635 -1.1723
 5984TIP3    H239368   6.648   3.839   4.549 -1.6316  1.2527 -1.0429
 5985TIP3   OH239369   5.893   0.519   1.722 -0.3618  0.0119  0.1627
 5985TIP3    H139370   5.958   0.567   1.772  1.0875 -0.6770 -1.0309
 5985TIP3    H239371   5.901   0.551   1.632 -0.9243 -0.8263 -0.2038
 5986TIP3   OH239372   4.904   5.922   4.277 -0.3778  0.0975 -0.2469
 5986TIP3    H139373   4.945   5.995   4.230 -1.1626  1.0875  0.5828
 5986TIP3    H239374   4.974   5.886   4.331 -0.6139  1.9777  1.4042
 5987TIP3   OH239375   4.178   3.655   3.168 -0.4170  0.4915  0.8596
 5987TIP3    H139376   4.099   3.677   3.218 -0.9303 -1.4940  0.9660
 5987TIP3    H239377   4.154   3.674   3.077 -1.1778 -0.4900  0.8444
 5988TIP3   OH239378   6.659   5.412  12.908  0.3348  0.2783 -0.3922
 5988TIP3    H139379   6.693   5.332  12.949 -0.3316 -0.6820 -1.6654
 5988TIP3    H239380   6.738   5.461  12.882  0.7550 -0.6420 -0.8848
 5989TIP3   OH239381   0.636   2.258   2.536  0.0225 -0.7293  0.3751
 5989TIP3    H139382   0.665   2.349   2.525 -0.2517 -0.6725  0.1276
 5989TIP3    H239383   0.703   2.219   2.592 -0.3783 -0.1164  1.2807
 5990TIP3   OH239384   0.107   1.464   4.593 -0.4865 -0.1891  0.2094
 5990TIP3    H139385   0.155   1.518   4.656 -0.3723 -1.0539  0.8822
 5990TIP3    H239386   0.127   1.374   4.619 -0.5846 -0.5541 -0.9624
 5991TIP3   OH239387   2.796   5.560  13.959 -0.2462 -0.1222 -0.0105
 5991TIP3    H139388   2.728   5.624  13.980 -0.2657 -0.6062  1.4449
 5991TIP3    H239389   2.807   5.567  13.864 -1.0100  1.2760 -0.0093
 5992TIP3   OH239390   4.529   1.227   3.579 -0.4053  0.1811 -0.6394
 5992TIP3    H139391   4.503   1.137   3.597  1.6687 -0.0703  1.3130
 5992TIP3    H239392   4.623   1.228   3.595 -0.0635  2.2422 -2.5922
 5993TIP3   OH239393   5.431   3.047   5.534 -0.1579  0.8306  0.2418
 5993TIP3    H139394   5.470   3.125   5.496  0.9518  0.4104  0.5049
 5993TIP3    H239395   5.402   2.995   5.459  3.8053 -0.9203 -0.1852
 5994TIP3   OH239396   4.527   4.671   1.040 -0.6363 -0.1666  0.4038
 5994TIP3    H139397   4.475   4.594   1.020  0.8207 -1.0973  0.1405
 5994TIP3    H239398   4.534   4.719   0.957 -0.4432 -0.4322  0.2672
 5995TIP3   OH239399   2.881   4.494  12.053  0.2016  0.5096  0.2662
 5995TIP3    H139400   2.809   4.554  12.033  0.1160  0.6946  1.1362
 5995TIP3    H239401   2.906   4.514  12.143  0.0934 -0.8274  0.6055
 5996TIP3   OH239402   2.669   0.681   5.996 -0.6223 -0.3130 -0.1172
 5996TIP3    H139403   2.584   0.671   6.040 -0.5760  2.6947  0.7747
 5996TIP3    H239404   2.733   0.682   6.067 -0.2281  1.2506 -0.4696
 5997TIP3   OH239405   4.585   2.433  14.491 -0.2768 -0.6771  0.0683
 5997TIP3    H139406   4.502   2.388  14.476 -1.8295  1.8101  0.8265
 5997TIP3    H239407   4.594   2.493  14.416  0.9753 -1.1036 -0.1385
 5998TIP3   OH239408   4.623   4.239   4.740 -0.2681  0.2640 -0.7629
 5998TIP3    H139409   4.609   4.220   4.648 -0.1315 -0.3342 -0.6620
 5998TIP3    H239410   4.562   4.180   4.786  0.1583  0.0649 -0.4497
 5999TIP3   OH239411   3.428   6.041  11.637 -0.1923 -0.0773 -0.3980
 5999TIP3    H139412   3.450   6.057  11.545  0.5551 -1.8926 -0.5533
 5999TIP3    H239413   3.432   5.946  11.647  0.9202  0.1653  1.8072
 6000TIP3   OH239414   4.741   5.629   0.086 -0.2437 -0.5288 -0.1903
 6000TIP3    H139415   4.715   5.688   0.158  3.8851  0.7143  0.4008
 6000TIP3    H239416   4.665   5.628   0.028 -2.1461  1.7244  2.1197
 6001TIP3   OH239417   6.648   3.514  14.753 -0.4449  0.6801  1.1284
 6001TIP3    H139418   6.677   3.444  14.811  0.0329 -0.1728 -0.1318
 6001TIP3    H239419   6.698   3.502  14.673  0.4295  3.1073  1.2509
 6002TIP3   OH239420   2.176   5.944  13.082 -0.5800 -1.1023  0.1960
 6002TIP3    H139421   2.160   5.867  13.136 -2.2255 -1.5838 -0.9315
 6002TIP3    H239422   2.089   5.969  13.049  0.2354 -0.1596 -1.3041
 6003TIP3   OH239423   5.747   5.219   0.481 -0.5282  0.0038  0.3426
 6003TIP3    H139424   5.814   5.219   0.550 -1.1921  0.9901  0.9835
 6003TIP3    H239425   5.795   5.245   0.402  0.2402 -1.1539  0.4016
 6004TIP3   OH239426   5.351   2.789  15.370  0.3565  0.3140 -0.2553
 6004TIP3    H139427   5.307   2.828  15.294  1.0891  1.4870 -0.0838
 6004TIP3    H239428   5.353   2.858  15.435 -0.8174 -0.8810  1.0902
 6005TIP3   OH239429   0.560   3.649  13.229  0.3618 -0.7628 -0.2208
 6005TIP3    H139430   0.571   3.593  13.306 -0.3107 -1.1148 -0.3749
 6005TIP3    H239431   0.578   3.592  13.155 -2.1513 -1.2722 -0.4598
 6006TIP3   OH239432   3.197   3.611   6.129 -0.2771 -0.2439  0.2354
 6006TIP3    H139433   3.211   3.703   6.151 -0.9614 -0.5152  1.9487
 6006TIP3    H239434   3.131   3.581   6.192 -1.6298 -1.3655 -1.6727
 6007TIP3   OH239435   1.539   3.328   0.684  0.1683  0.3249 -0.7382
 6007TIP3    H139436   1.490   3.364   0.611  0.0623  0.5545 -0.5559
 6007TIP3    H239437   1.514   3.383   0.759 -0.1416 -0.2482 -0.4194
 6008TIP3   OH239438   4.956   5.530  11.295 -0.5110  0.6684  0.1347
 6008TIP3    H139439   4.971   5.573  11.379  3.2377 -0.9357  0.3921
 6008TIP3    H239440   4.892   5.462  11.313  1.4678 -0.7164  2.1151
 6009TIP3   OH239441   4.317   1.334   3.442  0.5008 -0.2421  1.1863
 6009TIP3    H139442   4.390   1.319   3.502 -0.6610 -2.3035  2.0974
 6009TIP3    H239443   4.285   1.422   3.465  2.5082  0.5729  0.9442
 6010TIP3   OH239444   4.416   2.504   1.371 -0.2356  0.0620  0.0608
 6010TIP3    H139445   4.436   2.594   1.394  0.4625 -0.2135  0.5304
 6010TIP3    H239446   4.366   2.470   1.445 -2.6959  0.8118 -1.1939
 6011TIP3   OH239447   5.132   2.587   6.155 -0.6282  0.1586  0.4046
 6011TIP3    H139448   5.146   2.638   6.235 -2.2398 -0.0782  0.8518
 6011TIP3    H239449   5.219   2.581   6.115  0.2013  0.2211  2.1644
 6012TIP3   OH239450   3.465   1.377   1.586 -0.1115 -0.1817 -0.3385
 6012TIP3    H139451   3.458   1.282   1.579 -0.8355 -0.1267 -0.4118
 6012TIP3    H239452   3.499   1.392   1.674  1.2649 -0.5534 -0.7914
 6013TIP3   OH239453   0.252   2.626  16.026 -0.0425 -0.4560  0.1448
 6013TIP3    H139454   0.192   2.616  15.952  1.1545  0.6637 -1.0174
 6013TIP3    H239455   0.302   2.544  16.027  1.8959  0.6201 -2.1358
 6014TIP3   OH239456   3.593   3.971   3.346 -0.2730  0.4072  0.4475
 6014TIP3    H139457   3.522   4.015   3.393  0.8820  2.1452  0.6126
 6014TIP3    H239458   3.646   3.930   3.415  0.2129  1.1334  0.5112
 6015TIP3   OH239459   0.020   4.104   6.186  0.1000 -0.0123  1.2146
 6015TIP3    H139460   0.070   4.180   6.214  0.1300  0.6613 -0.5963
 6015TIP3    H239461  -0.069   4.138   6.171 -0.2317 -0.6318  1.7383
 6016TIP3   OH239462   3.115   1.196  13.390 -0.1568 -0.1476  0.6178
 6016TIP3    H139463   3.040   1.227  13.441 -0.5952 -1.9581  1.1120
 6016TIP3    H239464   3.077   1.153  13.314  0.4474  0.5733 -0.1048
 6017TIP3   OH239465   3.369   4.754   2.175 -0.2454 -0.3238  0.1607
 6017TIP3    H139466   3.325   4.834   2.205  1.0596 -0.7092  3.2927
 6017TIP3    H239467   3.397   4.774   2.085 -1.0651  2.2670  0.4375
 6018TIP3   OH239468   4.658   0.386  15.824 -0.5891 -0.2524  0.0846
 6018TIP3    H139469   4.682   0.464  15.874  0.2391 -1.4440  1.6053
 6018TIP3    H239470   4.642   0.418  15.735 -0.7374  1.7057  0.7881
 6019TIP3   OH239471   5.584   6.723  11.427  0.0894  0.5898 -0.0762
 6019TIP3    H139472   5.560   6.644  11.379 -1.0504  0.0661  1.3346
 6019TIP3    H239473   5.502   6.773  11.434  0.5824  1.4113 -0.0686
 6020TIP3   OH239474   4.920   3.327   2.943  0.4552  0.2389 -0.1088
 6020TIP3    H139475   4.928   3.282   3.027 -1.0848 -0.7965 -0.4823
 6020TIP3    H239476   4.951   3.416   2.960  1.7881 -0.4454  1.1135
 6021TIP3   OH239477   2.632   3.466  14.019 -0.4195  0.4943 -0.2652
 6021TIP3    H139478   2.618   3.485  14.112  0.8908 -0.6034  0.1804
 6021TIP3    H239479   2.557   3.505  13.975 -0.2176  2.4897  1.0811
 6022TIP3   OH239480   0.615   1.275  12.574  0.5114  0.1329  0.1257
 6022TIP3    H139481   0.633   1.218  12.499 -2.2372 -0.6809  0.0150
 6022TIP3    H239482   0.581   1.216  12.641 -1.4027  1.4926  0.3807
 6023TIP3   OH239483   0.371   2.848  15.644 -0.2569  0.1817 -0.0669
 6023TIP3    H139484   0.343   2.933  15.678 -3.0769 -0.3226 -0.9341
 6023TIP3    H239485   0.466   2.855  15.634 -0.2617  2.6590  1.3811
 6024TIP3   OH239486   5.371   6.459  12.591  0.0542 -0.2410  0.2427
 6024TIP3    H139487   5.370   6.366  12.569  1.7262  0.1889 -1.8705
 6024TIP3    H239488   5.296   6.496  12.543 -0.5722 -0.4725  1.0325
 6025TIP3   OH239489   2.757   6.707  12.000  0.4062  0.2450 -0.9555
 6025TIP3    H139490   2.757   6.657  11.918  0.8539  2.6933 -2.5267
 6025TIP3    H239491   2.849   6.728  12.015  0.6489 -2.4829  1.7035
 6026TIP3   OH239492   0.038   3.556  16.707  0.0990 -0.4436  0.2632
 6026TIP3    H139493  -0.008   3.527  16.786 -1.2012 -1.7020 -0.9311
 6026TIP3    H239494   0.130   3.540  16.726 -0.1963 -0.6942  1.5468
 6027TIP3   OH239495   2.990   1.360  12.594 -0.2136 -1.0440 -0.0781
 6027TIP3    H139496   3.030   1.440  12.628 -0.4170 -0.2202 -1.7174
 6027TIP3    H239497   2.935   1.328  12.666 -0.1738  0.3243  0.5754
 6028TIP3   OH239498   1.676   2.824   2.944 -0.6522  0.6959 -0.0537
 6028TIP3    H139499   1.751   2.782   2.903  1.2103  1.2317  2.6708
 6028TIP3    H239500   1.625   2.752   2.983  0.6176  0.6095  1.5131
 6029TIP3   OH239501   0.792   3.983  17.062 -0.0546 -0.0753  0.1600
 6029TIP3    H139502   0.859   4.034  17.016 -0.5081  0.8849  0.5585
 6029TIP3    H239503   0.728   4.048  17.091 -1.4884 -1.0425 -0.7483
 6030TIP3   OH239504   5.952   1.573   2.034 -0.2291  0.3034 -0.1018
 6030TIP3    H139505   5.969   1.667   2.040 -0.4095  0.4270 -1.2992
 6030TIP3    H239506   6.016   1.541   1.969 -0.8215 -0.2218 -0.4350
 6031TIP3   OH239507   2.356   2.432  14.386  0.3065 -0.2957  0.3884
 6031TIP3    H139508   2.403   2.508  14.352  1.8286 -1.8455 -1.0297
 6031TIP3    H239509   2.269   2.437  14.345  0.7192  0.1603 -0.4412
 6032TIP3   OH239510   6.108   0.889   5.535  0.2884  0.1659 -0.3942
 6032TIP3    H139511   6.122   0.947   5.610 -0.9842 -1.5614  1.2370
 6032TIP3    H239512   6.035   0.929   5.488 -1.1102 -0.4442  1.1642
 6033TIP3   OH239513   1.121   5.212  15.916  0.0064 -0.3964  0.4125
 6033TIP3    H139514   1.196   5.182  15.865 -1.2844 -3.1106 -0.0077
 6033TIP3    H239515   1.070   5.264  15.854  0.2476 -0.7136 -0.0595
 6034TIP3   OH239516   1.948   5.609   1.102 -0.1054  0.0091  0.1267
 6034TIP3    H139517   1.874   5.634   1.157 -0.1177 -2.0235  1.0787
 6034TIP3    H239518   1.909   5.560   1.030  0.2841 -1.1701  0.6924
 6035TIP3   OH239519   1.290   2.920   6.004 -0.0426 -0.0346  0.3012
 6035TIP3    H139520   1.229   2.989   5.979 -0.5145 -0.3304  0.6239
 6035TIP3    H239521   1.288   2.920   6.100  0.4167 -0.0880  0.3120
 6036TIP3   OH239522   5.286   2.847   1.212  0.0973 -0.2990 -0.0732
 6036TIP3    H139523   5.293   2.763   1.258  0.4214 -0.6728 -0.7835
 6036TIP3    H239524   5.252   2.908   1.277  1.2763 -0.6317  0.8587
 6037TIP3   OH239525   1.878   0.556   3.981 -0.0178 -0.1965  0.1905
 6037TIP3    H139526   1.821   0.484   4.006  1.5570 -1.8487 -0.8128
 6037TIP3    H239527   1.927   0.577   4.061  0.6585 -1.3273  0.0741
 6038TIP3   OH239528   1.773   2.524  14.752 -0.0973 -0.8130 -0.2829
 6038TIP3    H139529   1.740   2.466  14.684 -0.2465  1.3485 -2.1079
 6038TIP3    H239530   1.853   2.562  14.716 -2.0263  3.0383 -0.8051
 6039TIP3   OH239531   5.426   5.191  13.164 -0.7290  0.4607  0.6668
 6039TIP3    H139532   5.358   5.136  13.202 -0.7645 -2.4416 -3.2310
 6039TIP3    H239533   5.378   5.256  13.112 -0.5794  0.0400 -0.0011
 6040TIP3   OH239534   1.827   0.302   4.322  0.3443 -0.2353 -0.4384
 6040TIP3    H139535   1.807   0.393   4.345 -0.1004 -0.5122  0.2579
 6040TIP3    H239536   1.782   0.250   4.387 -0.1966 -0.9966 -1.4106
 6041TIP3   OH239537   5.578   5.039   1.366  0.6251  0.3430 -0.3597
 6041TIP3    H139538   5.523   5.009   1.293  1.3906 -0.2686 -0.6916
 6041TIP3    H239539   5.658   5.072   1.325  0.4741  1.3341  0.1155
 6042TIP3   OH239540   4.706   3.337   2.084  0.7128  0.6030 -0.2832
 6042TIP3    H139541   4.787   3.360   2.040  0.9977 -0.5712 -0.3902
 6042TIP3    H239542   4.728   3.260   2.135 -0.3355  0.2829 -0.3061
 6043TIP3   OH239543   3.914   5.355  13.869  0.1475  0.1859  0.2126
 6043TIP3    H139544   3.946   5.408  13.797  0.5841 -0.6869 -0.2400
 6043TIP3    H239545   3.913   5.265  13.835 -2.6715  0.1577  0.2362
 6044TIP3   OH239546   1.565   5.339   5.202  0.1279 -0.0570 -0.1945
 6044TIP3    H139547   1.526   5.418   5.240  0.9271  0.9802 -1.5217
 6044TIP3    H239548   1.634   5.371   5.144  1.2755 -1.7761  0.1711
 6045TIP3   OH239549   4.089   2.917  10.670 -0.2868  0.0511  0.5223
 6045TIP3    H139550   4.122   3.000  10.704 -1.0767  0.2547  0.8070
 6045TIP3    H239551   4.042   2.877  10.744  0.3137 -0.7677  0.4630
 6046TIP3   OH239552   1.858   5.990   2.518  0.2264 -0.2613  0.3920
 6046TIP3    H139553   1.832   6.004   2.609 -0.7588 -2.2121  0.4256
 6046TIP3    H239554   1.839   5.898   2.501  0.5123  0.0467 -1.7520
 6047TIP3   OH239555   1.001   3.540   4.735  0.1213  0.6738 -0.0559
 6047TIP3    H139556   0.915   3.578   4.752  0.7254  2.0878 -0.0389
 6047TIP3    H239557   1.037   3.593   4.664  0.1282 -1.2581 -1.5434
 6048TIP3   OH239558   4.103   6.168  13.247  0.6794 -0.3240 -0.1656
 6048TIP3    H139559   4.125   6.127  13.330 -0.1506 -1.1720 -0.3473
 6048TIP3    H239560   4.081   6.258  13.269 -0.6254 -0.8367  0.6893
 6049TIP3   OH239561   3.413   3.356   5.533 -0.4357  0.1161  0.3037
 6049TIP3    H139562   3.369   3.372   5.617 -1.9199 -1.6691 -0.1046
 6049TIP3    H239563   3.364   3.409   5.470 -0.5843 -0.1073  0.2310
 6050TIP3   OH239564   5.795   6.468   0.617  0.6312 -0.1257 -0.2316
 6050TIP3    H139565   5.791   6.391   0.560  2.8087  0.6296 -1.4844
 6050TIP3    H239566   5.854   6.442   0.688  0.4431 -0.0149 -0.0354
 6051TIP3   OH239567   0.154   6.281  12.465 -0.1773 -0.5073 -0.0576
 6051TIP3    H139568   0.158   6.235  12.381  2.3715 -2.1522  0.9049
 6051TIP3    H239569   0.245   6.304  12.484 -0.8369  0.6775  1.8191
 6052TIP3   OH239570   5.168   5.682  14.632 -0.2728  0.6405 -0.3630
 6052TIP3    H139571   5.192   5.633  14.554  0.2437 -1.6731  1.2017
 6052TIP3    H239572   5.072   5.678  14.635 -0.1989 -0.8781  0.1214
 6053TIP3   OH239573   3.727   2.124   1.003  0.0903  0.4820 -0.9012
 6053TIP3    H139574   3.678   2.086   1.076  1.4780  0.7498  0.1919
 6053TIP3    H239575   3.796   2.060   0.984  0.0644  0.6623 -1.6263
 6054TIP3   OH239576   5.551   5.905  13.917 -0.6675  0.4002  0.2393
 6054TIP3    H139577   5.492   5.945  13.980  0.2585 -0.8529  1.9310
 6054TIP3    H239578   5.632   5.889  13.966  0.2174 -0.1870 -1.3692
 6055TIP3   OH239579   3.376   6.752   1.229  0.0747 -0.0397  0.3061
 6055TIP3    H139580   3.420   6.741   1.313 -1.8243  1.1180  1.4647
 6055TIP3    H239581   3.375   6.846   1.214 -0.6405 -0.1599 -0.4442
 6056TIP3   OH239582   6.191   2.639   5.068  0.3855  0.3884  0.0355
 6056TIP3    H139583   6.214   2.553   5.035 -0.1185  0.4029 -0.3616
 6056TIP3    H239584   6.269   2.669   5.115  1.2703  0.5528 -1.5104
 6057TIP3   OH239585   5.544   6.704  14.826 -0.4720  0.9038  0.5796
 6057TIP3    H139586   5.491   6.781  14.805 -0.3509  0.2920 -2.1162
 6057TIP3    H239587   5.633   6.738  14.836 -0.3226  1.0560 -1.1598
 6058TIP3   OH239588   4.044   1.903   5.653  0.3514  0.0025  0.3297
 6058TIP3    H139589   4.092   1.870   5.577  1.0792 -0.5678  1.0303
 6058TIP3    H239590   4.015   1.991   5.627  0.0863 -0.4188 -0.8175
 6059TIP3   OH239591   2.440   4.423   5.627  0.2247  0.3710  1.1733
 6059TIP3    H139592   2.416   4.484   5.557 -0.9073 -0.7494  0.5665
 6059TIP3    H239593   2.365   4.423   5.686 -0.2729 -1.3281  0.5440
 6060TIP3   OH239594   1.878   6.364  16.826 -0.2042 -0.1365 -0.7083
 6060TIP3    H139595   1.812   6.411  16.774  0.4665  0.5558 -0.9394
 6060TIP3    H239596   1.962   6.393  16.790  0.2198 -1.3439 -0.6949
 6061TIP3   OH239597   6.667   6.142   0.544  0.3095  0.2448 -0.2993
 6061TIP3    H139598   6.662   6.226   0.498 -0.0258  0.3605 -0.0508
 6061TIP3    H239599   6.733   6.155   0.611  0.8474  0.0553 -0.7918
 6062TIP3   OH239600   0.223   4.968  13.925 -0.4770  0.2975 -0.3249
 6062TIP3    H139601   0.133   4.967  13.958 -0.4143  0.9691 -0.1277
 6062TIP3    H239602   0.225   5.041  13.863 -0.2832 -0.2361 -0.9454
 6063TIP3   OH239603   3.613   3.813   2.696 -0.4474 -0.2437 -0.1892
 6063TIP3    H139604   3.587   3.747   2.760 -1.1414  0.5567  0.3778
 6063TIP3    H239605   3.634   3.890   2.748  1.4251 -0.3332 -0.7728
 6064TIP3   OH239606   0.378   0.517   3.047 -0.4749 -0.1232 -0.0439
 6064TIP3    H139607   0.362   0.604   3.084 -0.9274 -0.3249  0.2352
 6064TIP3    H239608   0.421   0.535   2.963  0.8451  0.3287  0.7029
 6065TIP3   OH239609   1.027   6.137   3.914 -0.6644 -0.5377 -0.6127
 6065TIP3    H139610   1.005   6.147   4.007  1.6023 -0.7254 -0.0427
 6065TIP3    H239611   1.072   6.053   3.908 -0.2836 -0.2615 -1.7859
 6066TIP3   OH239612   0.222   1.947   5.834 -0.7744  0.3511 -0.4180
 6066TIP3    H139613   0.229   1.851   5.843  0.8785  0.4208 -0.7996
 6066TIP3    H239614   0.225   1.963   5.740  1.3644  0.9156 -0.2875
 6067TIP3   OH239615   4.926   6.561  11.296  0.3896  0.5242  0.3161
 6067TIP3    H139616   4.951   6.597  11.381  1.5592 -1.0153  0.6467
 6067TIP3    H239617   5.007   6.562  11.245  0.1237 -0.3407 -0.1285
 6068TIP3   OH239618   0.862   6.621  13.390  0.5280  0.3575 -0.0130
 6068TIP3    H139619   0.920   6.602  13.316  0.5090 -1.3314  0.3900
 6068TIP3    H239620   0.791   6.674  13.352  1.1226  0.4759 -0.9662
 6069TIP3   OH239621   3.097   4.924  10.729 -0.6316 -0.0687  0.2752
 6069TIP3    H139622   3.062   4.915  10.817 -0.4412 -1.3026  0.2316
 6069TIP3    H239623   3.187   4.890  10.735 -0.6946 -0.3679 -0.4331
 6070TIP3   OH239624   5.576   5.520   5.463  0.2465 -0.5900  0.0241
 6070TIP3    H139625   5.576   5.511   5.367 -0.7638 -0.1616 -0.0200
 6070TIP3    H239626   5.517   5.451   5.493  0.1488 -0.3883  0.2975
 6071TIP3   OH239627   6.395   2.366  13.473 -0.0246 -0.5517 -0.2254
 6071TIP3    H139628   6.382   2.303  13.544  2.0671  0.2635  0.9193
 6071TIP3    H239629   6.310   2.370  13.429 -1.4223 -0.9189  2.3399
 6072TIP3   OH239630   5.820   1.809  13.074 -0.3814  0.1033 -0.4185
 6072TIP3    H139631   5.734   1.842  13.048 -0.8581 -0.6624  0.1894
 6072TIP3    H239632   5.858   1.775  12.992 -0.8481 -0.0003 -0.5928
 6073TIP3   OH239633   4.196   6.465  10.715 -0.0474 -0.1400 -0.2493
 6073TIP3    H139634   4.276   6.499  10.755 -0.4266 -0.1833  0.5537
 6073TIP3    H239635   4.200   6.494  10.624  0.8961 -0.1683 -0.2140
 6074TIP3   OH239636   0.549   4.426  13.747  0.2085 -0.7720  0.6975
 6074TIP3    H139637   0.497   4.360  13.702 -1.1751  0.8633 -0.1756
 6074TIP3    H239638   0.529   4.414  13.840 -0.9789 -0.7911  0.4503
 6075TIP3   OH239639   0.470   3.196  15.486 -0.1253 -0.2466  0.6374
 6075TIP3    H139640   0.484   3.123  15.426  0.2213  0.8461 -0.6482
 6075TIP3    H239641   0.498   3.273  15.436  1.8207  0.5188  2.8113
 6076TIP3   OH239642   6.513   3.787   1.196 -0.3905 -0.1607  0.3196
 6076TIP3    H139643   6.506   3.853   1.127 -0.7254 -0.1060  0.4015
 6076TIP3    H239644   6.565   3.828   1.265 -2.1315  0.7092  1.1584
 6077TIP3   OH239645   1.399   4.527   4.140 -0.6755  0.6076 -0.2964
 6077TIP3    H139646   1.475   4.571   4.177  0.3458 -0.1658 -1.4135
 6077TIP3    H239647   1.325   4.584   4.160 -0.1667  0.2263  2.8412
 6078TIP3   OH239648   2.672   1.192   3.489  0.0146 -0.1344  0.1263
 6078TIP3    H139649   2.676   1.129   3.417  0.7986  0.8737 -0.7339
 6078TIP3    H239650   2.720   1.269   3.456 -0.5883  0.7563  1.3002
 6079TIP3   OH239651   3.194   2.331  12.303 -0.3922 -0.5967 -0.2603
 6079TIP3    H139652   3.165   2.400  12.244  1.2754  0.1414 -0.2521
 6079TIP3    H239653   3.168   2.362  12.390  0.0131 -0.1483 -0.2949
 6080TIP3   OH239654   3.829   0.413   1.289  0.1913  0.3076  0.0205
 6080TIP3    H139655   3.751   0.443   1.242 -0.2348  0.5831  0.9073
 6080TIP3    H239656   3.826   0.318   1.281  0.5096  0.3764 -1.1211
 6081TIP3   OH239657   6.604   1.793  15.287  0.1379 -0.4516  0.0296
 6081TIP3    H139658   6.656   1.771  15.365 -0.4749 -1.2524  0.2179
 6081TIP3    H239659   6.649   1.869  15.249  1.2141 -0.8907  0.4073
 6082TIP3   OH239660   5.991   4.956   5.757  0.4787 -1.1100 -0.1219
 6082TIP3    H139661   6.034   4.870   5.752  1.3013 -0.7374  0.4990
 6082TIP3    H239662   5.940   4.952   5.838 -0.6185 -1.5334 -0.8329
 6083TIP3   OH239663   2.058   5.056   3.857  0.0953  0.3883 -0.1716
 6083TIP3    H139664   1.969   5.061   3.892  0.1966 -2.3774  0.5457
 6083TIP3    H239665   2.106   5.125   3.904 -1.2079  0.6697  0.7805
 6084TIP3   OH239666   4.525   1.789   0.126  0.0601 -0.4608 -0.1428
 6084TIP3    H139667   4.513   1.884   0.120  1.3085 -0.2005  1.0590
 6084TIP3    H239668   4.544   1.774   0.219  2.0854 -1.5968 -0.7203
 6085TIP3   OH239669   5.308   2.761   0.195  0.2963 -0.4546 -0.3897
 6085TIP3    H139670   5.270   2.675   0.175 -0.3543 -0.3910  0.5386
 6085TIP3    H239671   5.252   2.823   0.150 -0.8589 -0.3465  1.1463
 6086TIP3   OH239672   4.292   4.066  16.516  0.2044 -0.2416 -0.1331
 6086TIP3    H139673   4.236   3.989  16.502 -0.6655 -0.0441  1.9883
 6086TIP3    H239674   4.243   4.138  16.476  0.3083 -0.5555 -0.8222
 6087TIP3   OH239675   2.624   4.947   3.327 -0.0087 -0.6153  0.0090
 6087TIP3    H139676   2.642   4.993   3.245  1.1412 -1.5283 -0.2713
 6087TIP3    H239677   2.689   4.982   3.388  0.7120 -1.6447 -0.1386
 6088TIP3   OH239678   5.187   0.316  15.764 -0.3706  0.0366  0.4892
 6088TIP3    H139679   5.254   0.382  15.748 -0.3162  0.3980  2.0692
 6088TIP3    H239680   5.228   0.234  15.740  0.6556  0.2572  1.4132
 6089TIP3   OH239681   0.798   2.345  11.795 -0.0067 -0.3573  0.1400
 6089TIP3    H139682   0.852   2.272  11.763  1.2440 -0.1095  1.5972
 6089TIP3    H239683   0.838   2.423  11.757  0.3482 -0.2170  0.7920
 6090TIP3   OH239684   6.222   6.686   5.951 -0.4532  0.1271 -0.5056
 6090TIP3    H139685   6.218   6.598   5.988 -0.7427  0.4215  0.1696
 6090TIP3    H239686   6.309   6.691   5.911 -0.8415 -0.8371 -1.4984
 6091TIP3   OH239687   6.778   2.624   5.636  0.4407 -0.0382  0.2824
 6091TIP3    H139688   6.757   2.555   5.573  0.5379  0.7500 -0.6249
 6091TIP3    H239689   6.865   2.603   5.668  0.8675  0.1862 -0.7134
 6092TIP3   OH239690   6.575   0.857  15.431 -0.3489 -0.8080 -0.2390
 6092TIP3    H139691   6.566   0.897  15.517 -0.1836 -1.6570  0.1761
 6092TIP3    H239692   6.562   0.763  15.447 -0.3079 -0.9670 -1.1350
 6093TIP3   OH239693   5.682   0.403  13.451  0.1901 -0.1736  0.2137
 6093TIP3    H139694   5.636   0.455  13.516 -1.2409  0.7921 -1.5123
 6093TIP3    H239695   5.732   0.339  13.501 -0.2242  1.0865  2.2614
 6094TIP3   OH239696   4.440   4.153  11.441  0.0052  0.2942 -0.1962
 6094TIP3    H139697   4.489   4.106  11.374  0.8343 -0.5938  1.0079
 6094TIP3    H239698   4.380   4.210  11.392 -0.0664 -1.0236 -1.6802
 6095TIP3   OH239699   4.086   6.773   5.196 -0.2155  0.1862 -0.0561
 6095TIP3    H139700   4.116   6.849   5.146 -1.2359  0.0925 -0.8441
 6095TIP3    H239701   4.115   6.789   5.285  0.6367  0.9170 -0.4569
 6096TIP3   OH239702   3.707   4.691   2.464  0.1287  0.7473  0.6579
 6096TIP3    H139703   3.639   4.757   2.461  0.0399  0.6432  0.4007
 6096TIP3    H239704   3.780   4.728   2.414  0.4577  1.0751  1.3574
 6097TIP3   OH239705   6.330   4.548  11.540 -0.3875  0.5491 -0.3038
 6097TIP3    H139706   6.278   4.468  11.539 -1.9028  1.4634  1.5935
 6097TIP3    H239707   6.290   4.605  11.474 -0.3521  0.3865 -0.4657
 6098TIP3   OH239708   3.993   1.097   6.580 -0.1906 -0.7212  0.5320
 6098TIP3    H139709   4.028   1.080   6.667 -0.4649 -1.4226  0.5099
 6098TIP3    H239710   3.984   1.010   6.540 -1.3905 -0.5061  0.3104
 6099TIP3   OH239711   2.578   3.277  12.303  0.1362 -1.0208 -0.6608
 6099TIP3    H139712   2.590   3.266  12.397 -2.8813  0.2931 -0.0463
 6099TIP3    H239713   2.546   3.193  12.273  1.3161 -1.5127 -0.5725
 6100TIP3   OH239714   2.136   1.086  16.018 -0.3138 -0.0948  0.2999
 6100TIP3    H139715   2.077   1.012  16.035  0.0258 -0.5788 -0.6031
 6100TIP3    H239716   2.223   1.050  16.031 -0.1163 -0.0560 -0.8762
 6101TIP3   OH239717   4.245   3.250   1.683  0.2303  0.2632 -0.5874
 6101TIP3    H139718   4.340   3.251   1.697  0.2790 -3.1705 -0.2984
 6101TIP3    H239719   4.231   3.179   1.620 -2.4237 -1.5906  1.9771
 6102TIP3   OH239720   3.629   6.738   3.190 -0.4736  0.0265  0.0921
 6102TIP3    H139721   3.705   6.795   3.177 -0.8923  0.2852 -1.2549
 6102TIP3    H239722   3.596   6.762   3.277  0.0033  1.0687 -0.0067
 6103TIP3   OH239723   2.472   4.267   5.367  0.0328  0.6281  0.1389
 6103TIP3    H139724   2.455   4.316   5.447  2.1989  1.5220  0.0920
 6103TIP3    H239725   2.539   4.318   5.321  0.0390 -0.7377 -1.4431
 6104TIP3   OH239726   6.559   0.665  16.171  0.7177  0.2538 -0.4238
 6104TIP3    H139727   6.529   0.754  16.153  0.5561  0.8507  2.4453
 6104TIP3    H239728   6.567   0.662  16.267 -1.4687 -3.4948 -0.2817
 6105TIP3   OH239729   5.677   4.423   5.019 -0.5060  0.7527  0.4305
 6105TIP3    H139730   5.770   4.418   5.000 -0.6455  1.5124 -0.4932
 6105TIP3    H239731   5.660   4.517   5.030 -0.6264  0.4286  3.3728
 6106TIP3   OH239732   1.930   2.373   5.432 -0.3109 -0.0225 -0.1369
 6106TIP3    H139733   1.964   2.298   5.383 -0.7294  0.7866 -1.6760
 6106TIP3    H239734   1.899   2.335   5.515  0.3400 -1.4050 -0.5084
 6107TIP3   OH239735   0.088   0.473   1.594  0.6497  0.1738 -0.2290
 6107TIP3    H139736   0.053   0.481   1.506 -2.7203 -0.8426  0.9520
 6107TIP3    H239737   0.143   0.395   1.591  0.4347  0.0563 -1.3745
 6108TIP3   OH239738   6.447   5.595  13.630  0.0305 -0.2922  0.3022
 6108TIP3    H139739   6.374   5.616  13.689 -0.9303 -1.8240 -0.3275
 6108TIP3    H239740   6.471   5.505  13.652  0.7855 -0.2872 -0.4779
 6109TIP3   OH239741   4.959   0.712   3.053 -0.2953  0.2432  0.1771
 6109TIP3    H139742   4.969   0.621   3.079 -2.7626 -0.0970  0.1411
 6109TIP3    H239743   4.930   0.757   3.133  0.4566  0.8995  0.0860
 6110TIP3   OH239744   3.175   0.040  13.668 -0.0151 -1.2624 -0.0716
 6110TIP3    H139745   3.098   0.097  13.668  1.6429  1.0796 -1.4526
 6110TIP3    H239746   3.141  -0.047  13.689 -2.9373 -0.1813 -0.1194
 6111TIP3   OH239747   6.064   3.719   5.435 -0.1362 -0.2904  0.5400
 6111TIP3    H139748   6.089   3.767   5.355  1.5900 -1.2421  0.4760
 6111TIP3    H239749   6.059   3.628   5.407  2.1346 -0.8473  1.8550
 6112TIP3   OH239750   2.206   1.922  11.490  0.7118  0.4496  0.6233
 6112TIP3    H139751   2.125   1.937  11.442 -0.1043 -0.2051  1.8005
 6112TIP3    H239752   2.226   1.830  11.476  0.0243  0.0435  2.2180
 6113TIP3   OH239753   0.599   5.845  10.957  0.1217  0.3628  0.6184
 6113TIP3    H139754   0.695   5.840  10.955  0.0389 -1.8990  0.5748
 6113TIP3    H239755   0.572   5.826  10.868 -0.4145 -1.1388  1.0835
 6114TIP3   OH239756   3.213   4.631  13.702 -0.5316 -0.5168  0.8112
 6114TIP3    H139757   3.203   4.536  13.693 -0.4294 -0.3719 -0.9291
 6114TIP3    H239758   3.124   4.663  13.716 -0.5214 -0.9012  1.8163
 6115TIP3   OH239759   6.713   6.624  14.805 -0.0020 -0.1277  0.1626
 6115TIP3    H139760   6.715   6.681  14.729 -0.7624  0.1530  0.3539
 6115TIP3    H239761   6.796   6.576  14.801 -1.5828 -2.7037 -2.8031
 6116TIP3   OH239762   6.117   6.072  15.912 -0.4406  0.4055 -0.4652
 6116TIP3    H139763   6.058   6.120  15.853  1.5076  0.7382 -2.1874
 6116TIP3    H239764   6.079   6.085  15.999 -2.1880  1.6905 -1.3796
 6117TIP3   OH239765   0.192   4.285   5.835  0.9598 -0.0693  0.2365
 6117TIP3    H139766   0.168   4.288   5.742  2.4173  1.0609 -0.1235
 6117TIP3    H239767   0.193   4.192   5.857 -3.1080 -0.2512  0.1349
 6118TIP3   OH239768   4.513   3.281   1.840 -0.3821  0.3035  0.4548
 6118TIP3    H139769   4.536   3.194   1.809  0.6800  0.4820  0.7172
 6118TIP3    H239770   4.574   3.298   1.912 -0.7761  1.1441  0.5997
 6119TIP3   OH239771   2.068   4.983  12.619  0.2271 -0.1124  0.7314
 6119TIP3    H139772   2.038   5.069  12.650 -1.3050 -1.1075  2.0980
 6119TIP3    H239773   1.993   4.949  12.570  0.2459 -1.3251  1.5295
 6120TIP3   OH239774   6.745   6.729   3.976  0.2595 -0.4850  0.2144
 6120TIP3    H139775   6.675   6.714   3.913  0.0076  0.0081  0.3745
 6120TIP3    H239776   6.783   6.642   3.991  1.0472 -0.4487 -1.4477
 6121TIP3   OH239777   0.742   6.675   1.405  0.0753  0.0743  0.1098
 6121TIP3    H139778   0.682   6.604   1.427 -1.4807  1.3858  0.1469
 6121TIP3    H239779   0.783   6.698   1.489  0.3401 -0.5467  0.1546
 6122TIP3   OH239780   0.512   3.451  13.412  0.0033 -0.1288 -0.6690
 6122TIP3    H139781   0.451   3.444  13.339  1.6288 -0.0533 -2.0587
 6122TIP3    H239782   0.456   3.462  13.489 -1.6864  3.7638 -2.3012
 6123TIP3   OH239783   4.660   5.962  12.123  0.5367  0.1657  0.3327
 6123TIP3    H139784   4.699   5.996  12.204  1.1840  0.2692 -0.0189
 6123TIP3    H239785   4.733   5.921  12.076  0.1501  0.0314 -0.1571
 6124TIP3   OH239786   3.160   0.062  13.208  0.1256 -0.4368 -0.3924
 6124TIP3    H139787   3.232   0.087  13.266  0.2706 -1.9342  0.0704
 6124TIP3    H239788   3.115  -0.009  13.253  0.0822 -1.4447 -1.9801
 6125TIP3   OH239789   3.972   0.993   3.442  0.4695  0.3701 -0.4930
 6125TIP3    H139790   3.932   0.915   3.480 -1.1382  0.2653 -2.2812
 6125TIP3    H239791   3.897   1.051   3.422  1.3592  0.9779 -2.1717
 6126TIP3   OH239792   5.945   3.059   5.239  0.3062  0.5971  0.2049
 6126TIP3    H139793   5.950   3.141   5.189  0.3928  0.7344  0.4390
 6126TIP3    H239794   5.852   3.045   5.252  0.3143  0.9954  0.7158
 6127TIP3   OH239795   5.608   0.455  13.704  0.3313  0.3368  0.5876
 6127TIP3    H139796   5.540   0.505  13.749  0.0245  0.2227  0.2444
 6127TIP3    H239797   5.690   0.488  13.742  0.2024  2.0354 -0.5865
 6128TIP3   OH239798   1.397   4.812   4.024 -0.0813 -0.3135  0.4009
 6128TIP3    H139799   1.330   4.816   4.092  1.5196 -1.5473  2.1283
 6128TIP3    H239800   1.359   4.759   3.955 -2.1232  1.8089 -0.1652
 6129TIP3   OH239801   1.776   2.900   0.288 -0.3864 -0.5912 -0.0057
 6129TIP3    H139802   1.793   2.990   0.259  0.0107 -1.5191 -2.7391
 6129TIP3    H239803   1.749   2.910   0.379  1.5924  2.1368  0.3648
 6130TIP3   OH239804   5.462   2.997   5.168 -0.1599 -0.1758 -0.5098
 6130TIP3    H139805   5.449   2.903   5.157  0.8369 -0.7348  2.6956
 6130TIP3    H239806   5.553   3.005   5.198  0.7248  2.0684 -3.5385
 6131TIP3   OH239807   6.393   0.724   3.900  0.0825  0.4292 -0.1773
 6131TIP3    H139808   6.435   0.723   3.986 -1.6540 -2.0801  0.6945
 6131TIP3    H239809   6.329   0.795   3.906 -1.0132 -0.6364  1.1349
 6132TIP3   OH239810   4.673   1.993  11.577  0.1026 -0.0457 -0.0096
 6132TIP3    H139811   4.703   2.083  11.585  0.1426 -0.0697  0.1045
 6132TIP3    H239812   4.661   1.980  11.482  0.0120  0.1054 -0.0173
 6133TIP3   OH239813   3.424   0.825   0.182 -0.5485  0.2711  0.8477
 6133TIP3    H139814   3.491   0.888   0.205 -0.7146  0.7891 -0.0684
 6133TIP3    H239815   3.469   0.760   0.128 -0.5006 -0.0962  1.3240
 6134TIP3   OH239816   2.445   4.927  14.765  0.3313 -0.3779 -0.4283
 6134TIP3    H139817   2.516   4.975  14.722 -1.3255  3.6448  1.0720
 6134TIP3    H239818   2.476   4.911  14.854  0.0382 -0.0856 -0.2697
 6135TIP3   OH239819   1.526   5.304  14.794  0.6676 -0.0833 -0.1893
 6135TIP3    H139820   1.440   5.346  14.792  0.2708 -0.8323  0.8195
 6135TIP3    H239821   1.555   5.306  14.703 -0.3783  0.2572 -0.5300
 6136TIP3   OH239822   1.351   5.950   2.900  0.0164  0.2272 -0.1390
 6136TIP3    H139823   1.270   5.931   2.948  1.4500 -1.2485  1.8058
 6136TIP3    H239824   1.409   5.991   2.965  1.3886 -0.1740 -1.0750
 6137TIP3   OH239825   5.223   6.210   3.916  0.4103 -0.1825  0.2637
 6137TIP3    H139826   5.139   6.253   3.928 -1.0354 -2.2936 -1.8672
 6137TIP3    H239827   5.264   6.256   3.843 -1.1960 -2.3656 -2.1069
 6138TIP3   OH239828   1.173   3.409  14.398 -0.1473 -0.4249  0.0436
 6138TIP3    H139829   1.218   3.332  14.432  0.8635  0.7523  1.4696
 6138TIP3    H239830   1.176   3.399  14.303 -0.1409 -2.1871  0.2136
 6139TIP3   OH239831   1.592   2.382   0.869  0.4948  0.1251  0.0991
 6139TIP3    H139832   1.586   2.325   0.792 -1.2613 -1.0640  1.0692
 6139TIP3    H239833   1.538   2.458   0.846  1.7803  0.8056 -0.6945
 6140TIP3   OH239834   2.592   1.492   3.690  0.8836 -0.1474  0.1284
 6140TIP3    H139835   2.610   1.481   3.784  0.1558 -0.6772  0.2068
 6140TIP3    H239836   2.566   1.405   3.660  0.2160  0.2251 -0.3691
 6141TIP3   OH239837   2.182   0.107  14.156 -0.7888 -0.2458 -0.5836
 6141TIP3    H139838   2.199   0.150  14.239 -2.6490  0.3916 -0.5083
 6141TIP3    H239839   2.258   0.050  14.142  0.3113  0.8745  0.7322
 6142TIP3   OH239840   6.410   2.176  16.768  0.0235 -0.1337  0.0651
 6142TIP3    H139841   6.478   2.164  16.702  0.6720 -0.5188  0.7970
 6142TIP3    H239842   6.330   2.141  16.728  0.2529  0.3176 -0.7937
 6143TIP3   OH239843   4.575   3.437  17.158 -0.2062 -0.3603 -0.2233
 6143TIP3    H139844   4.515   3.369  17.126  0.6417 -1.2999  0.1283
 6143TIP3    H239845   4.661   3.408  17.127 -0.0428  1.4442 -1.5059
 6144TIP3   OH239846   3.697   4.998  16.267 -0.3491  0.4614  0.4616
 6144TIP3    H139847   3.670   4.920  16.315 -1.0950 -0.1689 -0.9643
 6144TIP3    H239848   3.773   5.030  16.315 -0.9390 -0.2889  1.9200
 6145TIP3   OH239849   2.169   6.224  12.794 -0.0091  0.3549  0.9720
 6145TIP3    H139850   2.138   6.308  12.761  0.1827  0.0407 -0.0231
 6145TIP3    H239851   2.190   6.241  12.886 -1.2227  1.0592  1.1330
 6146TIP3   OH239852   0.164   3.856   3.344  0.5859 -0.4407 -0.1702
 6146TIP3    H139853   0.191   3.947   3.329 -2.3299  0.3605 -1.0404
 6146TIP3    H239854   0.071   3.862   3.364 -0.0326 -3.3632 -1.8431
 6147TIP3   OH239855   3.168   4.206   0.738  0.0847  0.0498  0.2007
 6147TIP3    H139856   3.123   4.261   0.673  1.6374 -0.9297 -1.7337
 6147TIP3    H239857   3.117   4.126   0.741  1.6673 -1.0765 -2.0229
 6148TIP3   OH239858   2.645   5.352   2.288 -0.4810  0.2168 -0.8686
 6148TIP3    H139859   2.617   5.443   2.294 -0.0831  0.3991 -1.7506
 6148TIP3    H239860   2.730   5.355   2.246  0.8561 -0.3559  1.6726
 6149TIP3   OH239861   1.770   0.430  15.765  0.1303  0.0263  0.1507
 6149TIP3    H139862   1.755   0.521  15.791  1.2172  0.2366  0.0653
 6149TIP3    H239863   1.843   0.435  15.703  1.0821 -1.0485  1.1753
 6150TIP3   OH239864   2.703   1.952   3.541 -0.5057 -0.1220 -0.9673
 6150TIP3    H139865   2.783   1.902   3.523 -0.6051 -0.8341  0.4949
 6150TIP3    H239866   2.659   1.903   3.611 -2.8322 -0.3913 -2.5552
 6151TIP3   OH239867   4.899   6.456   5.414 -0.1793 -0.5650 -0.6820
 6151TIP3    H139868   4.844   6.518   5.461  0.6247  0.3452 -0.9194
 6151TIP3    H239869   4.975   6.442   5.471 -0.2200 -1.1195 -0.7541
 6152TIP3   OH239870   3.195   5.162   4.715 -0.0500  0.0966 -0.5346
 6152TIP3    H139871   3.208   5.196   4.803  1.3161 -1.4260 -0.1196
 6152TIP3    H239872   3.221   5.234   4.657 -0.0513  0.7799  0.3102
 6153TIP3   OH239873   4.730   3.411   2.568 -0.6457  0.0324 -0.5609
 6153TIP3    H139874   4.753   3.341   2.629  0.1365 -0.1334 -1.0419
 6153TIP3    H239875   4.639   3.431   2.588 -0.6804 -0.6800  0.0123
 6154TIP3   OH239876   2.992   4.987   4.357  0.3411 -0.0886  0.1455
 6154TIP3    H139877   3.051   4.927   4.312  0.7387 -0.8998  1.7087
 6154TIP3    H239878   3.044   5.066   4.372  0.1466  0.2536 -0.9765
 6155TIP3   OH239879   5.438   1.533  15.157 -0.3608 -0.4427  0.6336
 6155TIP3    H139880   5.470   1.458  15.107  1.9215  0.6787  0.3627
 6155TIP3    H239881   5.509   1.556  15.216 -0.3482  2.5207 -0.4438
 6156TIP3   OH239882   5.573   4.904  17.043  0.5278 -0.6379  0.1449
 6156TIP3    H139883   5.655   4.954  17.049  1.1471 -1.7288  0.8079
 6156TIP3    H239884   5.593   4.819  17.080 -1.0944 -0.7075  0.9212
 6157TIP3   OH239885   2.531   5.147   2.441 -0.0682 -0.7401  0.1187
 6157TIP3    H139886   2.440   5.175   2.432 -0.1227 -1.0566 -0.3415
 6157TIP3    H239887   2.582   5.215   2.396 -0.0689 -0.5201  0.4491
 6158TIP3   OH239888   0.076   3.710  11.878 -0.6201  0.1948 -0.4154
 6158TIP3    H139889   0.011   3.778  11.862 -1.6896 -0.8267 -0.5340
 6158TIP3    H239890   0.149   3.755  11.921 -1.6088  1.2732  0.1570
 6159TIP3   OH239891   5.951   2.514   1.851 -0.2814 -0.6859  0.1315
 6159TIP3    H139892   5.969   2.583   1.915 -1.6445 -1.4858  1.4089
 6159TIP3    H239893   5.856   2.515   1.840 -0.3130 -2.2921  0.1056
 6160TIP3   OH239894   4.621   3.968   2.670 -0.2136 -0.1766  0.2274
 6160TIP3    H139895   4.716   3.958   2.659  0.1032  2.6027  0.2601
 6160TIP3    H239896   4.595   3.889   2.717  1.9858 -1.2842 -0.3225
 6161TIP3   OH239897   4.950   6.511   3.072  0.2257  0.5265 -0.3749
 6161TIP3    H139898   4.883   6.445   3.092  0.2680  0.3505 -0.8201
 6161TIP3    H239899   4.901   6.593   3.065  0.2828  0.7142  1.1010
 6162TIP3   OH239900   1.308   6.258   2.872 -0.2215 -0.1496  0.3680
 6162TIP3    H139901   1.348   6.249   2.785 -2.0623 -0.5013 -0.4763
 6162TIP3    H239902   1.350   6.190   2.925 -0.2666 -1.0489 -0.7205
 6163TIP3   OH239903   2.286   5.635   5.934  0.4150 -0.2742  0.1597
 6163TIP3    H139904   2.236   5.671   6.007 -0.8663 -0.1969 -0.7539
 6163TIP3    H239905   2.339   5.566   5.974 -0.5239 -0.4655  1.0938
 6164TIP3   OH239906   4.748   2.881   3.645 -0.3300  0.2148  0.0048
 6164TIP3    H139907   4.708   2.963   3.617  0.5416  0.9677  0.9120
 6164TIP3    H239908   4.796   2.904   3.724  1.1547 -0.8422 -0.5679
 6165TIP3   OH239909   4.379   4.029  12.763  0.1308 -0.2008  0.0536
 6165TIP3    H139910   4.437   4.102  12.786  1.3709 -1.3329  0.6037
 6165TIP3    H239911   4.365   3.983  12.846 -0.0053 -1.0408 -0.4383
 6166TIP3   OH239912   5.634   1.669  10.656  0.4638  0.1771  0.4657
 6166TIP3    H139913   5.677   1.590  10.622  1.0094 -0.0317  1.6302
 6166TIP3    H239914   5.552   1.674  10.608  0.0628 -1.5524  0.9533
 6167TIP3   OH239915   4.823   0.370  11.348  0.3044  0.2697  0.2347
 6167TIP3    H139916   4.869   0.418  11.416  0.1690  1.5243 -0.5498
 6167TIP3    H239917   4.866   0.284  11.345  0.8312  0.4983  1.3359
 6168TIP3   OH239918   2.052   0.932   5.543  0.6106 -0.2482  0.1997
 6168TIP3    H139919   2.038   0.866   5.474  2.3042 -1.5540  1.0750
 6168TIP3    H239920   2.091   0.883   5.615  1.1145  1.5730  1.1811
 6169TIP3   OH239921   4.754   1.798  14.057 -0.9272 -0.0710  0.7179
 6169TIP3    H139922   4.783   1.882  14.022  1.8829 -0.4498  1.9945
 6169TIP3    H239923   4.787   1.734  13.994  0.6912 -0.4786  1.9469
 6170TIP3   OH239924   3.667   4.381  12.456 -0.3870  0.0452 -0.2334
 6170TIP3    H139925   3.617   4.405  12.535 -1.4367 -3.1240  0.1448
 6170TIP3    H239926   3.644   4.448  12.392 -1.5452  1.2297  1.3913
 6171TIP3   OH239927   5.955   4.936   4.276  0.7291  0.0344 -0.2855
 6171TIP3    H139928   5.887   4.869   4.285  0.6621 -0.1454 -1.9833
 6171TIP3    H239929   5.999   4.937   4.361 -0.2250 -1.1280  0.2326
 6172TIP3   OH239930   4.389   2.102   1.781 -0.3703  0.6201  0.5689
 6172TIP3    H139931   4.369   2.008   1.771 -1.2657  1.1812 -3.9087
 6172TIP3    H239932   4.483   2.109   1.764 -0.0041  0.4068  2.3765
 6173TIP3   OH239933   3.091   0.314  12.304 -0.4918 -0.2313  0.1328
 6173TIP3    H139934   3.057   0.402  12.291  0.3818  0.1616  0.4681
 6173TIP3    H239935   3.016   0.263  12.334 -0.8156  0.5798  0.6946
 6174TIP3   OH239936   1.013   1.773   6.109 -0.0403  0.6575  0.3426
 6174TIP3    H139937   1.083   1.799   6.169  0.1241  1.1303 -0.0498
 6174TIP3    H239938   0.932   1.789   6.158  0.1485 -1.4293  1.4066
 6175TIP3   OH239939   0.805   3.903  12.160  0.6830 -0.2054 -0.6010
 6175TIP3    H139940   0.870   3.890  12.090  1.2193 -0.0412 -0.1320
 6175TIP3    H239941   0.848   3.961  12.222  0.5683 -1.1177  0.3418
 6176TIP3   OH239942   1.756   2.995   2.192  0.1558 -0.4251 -0.2182
 6176TIP3    H139943   1.840   3.020   2.155 -0.1554  0.1322 -0.5617
 6176TIP3    H239944   1.758   3.029   2.281  1.2265 -2.4706  0.5562
 6177TIP3   OH239945   1.980   4.073  11.965  0.2524 -0.2062 -0.0236
 6177TIP3    H139946   1.949   4.032  11.884 -1.4491  1.8133 -0.4425
 6177TIP3    H239947   2.072   4.094  11.948  0.4630 -1.6196 -0.6765
 6178TIP3   OH239948   2.591   1.823  11.598  0.1051  0.2202  0.2090
 6178TIP3    H139949   2.599   1.917  11.581 -1.4671 -0.0357 -2.1763
 6178TIP3    H239950   2.497   1.806  11.594  0.5415 -1.9030 -2.1000
 6179TIP3   OH239951   4.697   0.779  11.886 -0.1015 -0.0428  0.1780
 6179TIP3    H139952   4.695   0.874  11.872 -1.1309 -0.2298 -1.0407
 6179TIP3    H239953   4.715   0.742  11.800 -3.1055 -1.0716 -0.0953
 6180TIP3   OH239954   2.195   5.837   1.195 -0.4486  0.4845  0.1909
 6180TIP3    H139955   2.251   5.762   1.218 -0.6479  0.3907  0.3725
 6180TIP3    H239956   2.106   5.801   1.196 -0.4818  0.5486 -0.4526
 6181TIP3   OH239957   3.711   3.378   0.263 -0.2622 -0.2166 -0.0542
 6181TIP3    H139958   3.664   3.342   0.339 -1.3149 -0.7654 -0.9515
 6181TIP3    H239959   3.698   3.473   0.270 -2.4932 -0.4229 -0.8942
 6182TIP3   OH239960   3.793   4.173  11.361 -0.4027 -0.4571 -0.1747
 6182TIP3    H139961   3.701   4.191  11.381 -0.2432 -1.2505  1.3182
 6182TIP3    H239962   3.830   4.143  11.444  1.0864 -0.6194 -0.8898
 6183TIP3   OH239963   6.443   6.533  14.763 -0.0377 -0.4590 -0.5492
 6183TIP3    H139964   6.409   6.593  14.829 -0.0017 -2.3713  1.2571
 6183TIP3    H239965   6.538   6.543  14.768 -0.0089 -0.9669  0.0857
 6184TIP3   OH239966   1.734   4.180   5.724  0.5927 -0.0703 -0.6393
 6184TIP3    H139967   1.769   4.207   5.809 -0.8276 -0.0012 -0.0476
 6184TIP3    H239968   1.756   4.251   5.665 -0.4517  0.9965  0.2169
 6185TIP3   OH239969   4.016   4.039   1.929 -0.0682 -0.2254 -0.7465
 6185TIP3    H139970   3.988   4.029   2.020  0.2522 -1.3050 -0.7598
 6185TIP3    H239971   3.953   4.099   1.891 -1.4279 -1.3801 -0.3461
 6186TIP3   OH239972   3.673   3.470  11.571  0.1919 -0.0356  0.0690
 6186TIP3    H139973   3.691   3.376  11.581 -1.7377 -0.4640 -0.3224
 6186TIP3    H239974   3.582   3.474  11.542  0.6627  1.9064 -1.2567
 6187TIP3   OH239975   4.242   5.758  15.449 -0.2162  0.4007 -0.4008
 6187TIP3    H139976   4.248   5.847  15.486 -0.0465 -0.6475  2.1632
 6187TIP3    H239977   4.217   5.773  15.357 -1.3280  3.0522  0.2625
 6188TIP3   OH239978   0.205   3.544  13.011  0.5709  0.0236 -0.7102
 6188TIP3    H139979   0.168   3.632  13.003  1.2677  0.2329 -1.7728
 6188TIP3    H239980   0.134   3.486  12.985 -0.0850  0.2356  0.5823
 6189TIP3   OH239981   5.497   6.713   1.677  0.4368 -0.9565  0.3737
 6189TIP3    H139982   5.590   6.689   1.670  1.1861  1.7045  0.7207
 6189TIP3    H239983   5.490   6.759   1.760 -0.3746  2.2792 -1.4305
 6190TIP3   OH239984   0.971   0.701   0.044 -0.3108 -0.7644 -0.5322
 6190TIP3    H139985   0.877   0.706   0.031 -0.4512  0.3854  0.8625
 6190TIP3    H239986   0.994   0.783   0.087  1.2038 -1.3987 -0.1059
 6191TIP3   OH239987   1.198   5.025   4.205 -0.1810  0.1735 -0.4095
 6191TIP3    H139988   1.115   5.054   4.243 -0.4029  0.2573 -0.9443
 6191TIP3    H239989   1.172   4.977   4.126  0.2657 -0.0518 -0.4204
 6192TIP3   OH239990   3.375   2.023  11.689  0.1520 -0.2881  0.1561
 6192TIP3    H139991   3.426   2.050  11.612  0.6361  1.9472  1.2246
 6192TIP3    H239992   3.288   2.005  11.654  0.9433 -1.4553 -1.2594
 6193TIP3   OH239993   1.502   2.035  15.892 -0.3932  0.1897 -0.1130
 6193TIP3    H139994   1.436   1.969  15.868 -0.1849 -0.3745  0.8537
 6193TIP3    H239995   1.476   2.064  15.979 -1.1177  2.2059 -0.9808
 6194TIP3   OH239996   5.343   0.398   0.398  0.1658  0.3302  0.0644
 6194TIP3    H139997   5.340   0.318   0.451 -1.0005 -0.3942 -1.0850
 6194TIP3    H239998   5.393   0.374   0.321 -1.0896  0.4045 -0.7820
 6195TIP3   OH239999   1.410   0.181   2.057  0.2957 -0.1039 -0.4347
 6195TIP3    H140000   1.345   0.245   2.086  1.2538 -0.1447  1.9071
 6195TIP3    H240001   1.359   0.108   2.022 -0.8292  1.3660 -1.9758
 6196TIP3   OH240002   4.166   4.628  14.579 -0.3952 -0.0053  0.2283
 6196TIP3    H140003   4.130   4.674  14.502  0.9620  0.7969  0.0670
 6196TIP3    H240004   4.093   4.574  14.610 -2.1756  2.5607  0.6693
 6197TIP3   OH240005   4.151   6.302   0.855 -0.4873 -0.1502  0.3609
 6197TIP3    H140006   4.163   6.397   0.857  1.7002 -0.3689 -1.2593
 6197TIP3    H240007   4.125   6.283   0.765 -2.5793 -0.9381  1.1011
 6198TIP3   OH240008   0.557   4.577   3.633  0.0562  1.1153  0.4157
 6198TIP3    H140009   0.609   4.498   3.646  1.0428  1.7480  0.3519
 6198TIP3    H240010   0.612   4.648   3.667 -0.8212  1.7715  0.4793
 6199TIP3   OH240011   2.172   5.239  12.807  0.0075 -0.7208  0.1953
 6199TIP3    H140012   2.185   5.192  12.890  1.1536 -0.3652  0.2243
 6199TIP3    H240013   2.234   5.312  12.811 -0.7287 -0.0502 -0.4946
 6200TIP3   OH240014   6.685   6.433   0.448 -1.0009  0.2036  0.0699
 6200TIP3    H140015   6.611   6.472   0.400 -1.5237  0.6430  1.2239
 6200TIP3    H240016   6.707   6.498   0.515 -0.1747 -0.3413  0.3244
 6201TIP3   OH240017   6.113   0.799  13.537  0.2780 -0.2779 -0.0097
 6201TIP3    H140018   6.089   0.715  13.498  1.8270 -1.2507  1.0884
 6201TIP3    H240019   6.112   0.861  13.464 -1.0949 -1.1806 -0.7870
 6202TIP3   OH240020   1.616   2.191   0.682  0.2740  0.1076 -0.5619
 6202TIP3    H140021   1.591   2.212   0.592 -0.3729 -1.7774 -0.8436
 6202TIP3    H240022   1.668   2.111   0.674  1.7798  0.9397  0.5793
 6203TIP3   OH240023   2.833   5.077   0.852 -0.1059  0.2319 -0.0351
 6203TIP3    H140024   2.839   5.114   0.940  0.7187  0.0480 -0.0091
 6203TIP3    H240025   2.808   4.986   0.866  0.5850  0.0477  0.0482
 6204TIP3   OH240026   3.772   6.760  11.198  0.6324 -0.7397 -0.1019
 6204TIP3    H140027   3.804   6.756  11.108  0.1789 -2.1355 -0.2037
 6204TIP3    H240028   3.801   6.678  11.238  0.2406 -0.4380  0.8333
 6205TIP3   OH240029   4.025   6.382  15.656 -0.0347  0.2972  0.5331
 6205TIP3    H140030   4.099   6.395  15.715 -0.2583  0.1304  0.8579
 6205TIP3    H240031   3.964   6.327  15.707 -1.7606  2.9544  1.4526
 6206TIP3   OH240032   4.631   3.892   1.206  0.0973  0.1445 -0.3209
 6206TIP3    H140033   4.589   3.928   1.128  0.5889 -0.7366 -0.9896
 6206TIP3    H240034   4.707   3.949   1.221 -0.4489  0.7962 -0.0133
 6207TIP3   OH240035   6.126   0.458  15.256 -0.5352  0.3064 -0.1695
 6207TIP3    H140036   6.059   0.519  15.285 -0.0206  0.8318 -0.0802
 6207TIP3    H240037   6.206   0.510  15.252 -0.2604 -0.1584 -0.8932
 6208TIP3   OH240038   3.835   0.676   2.575  0.1304  0.5506  0.1786
 6208TIP3    H140039   3.773   0.745   2.598 -1.0387 -0.1286 -0.8893
 6208TIP3    H240040   3.888   0.714   2.504 -0.8207  0.2051 -0.7333
 6209TIP3   OH240041   3.526   5.474  16.706 -0.3606  0.0961 -0.3733
 6209TIP3    H140042   3.524   5.442  16.615 -0.3846  1.5328 -0.8812
 6209TIP3    H240043   3.619   5.478  16.728 -0.2178  2.4106 -1.2964
 6210TIP3   OH240044   5.592   1.491   4.020 -0.3677 -0.2399 -0.8779
 6210TIP3    H140045   5.591   1.565   4.081  0.9845 -1.5646  0.8363
 6210TIP3    H240046   5.660   1.513   3.957  0.7349 -0.4306  0.2121
 6211TIP3   OH240047   5.864   6.228  11.584 -0.5263  0.1204  0.3565
 6211TIP3    H140048   5.851   6.140  11.619 -0.7371 -0.7158 -1.7940
 6211TIP3    H240049   5.916   6.215  11.504 -1.7342  1.8074 -0.7261
 6212TIP3   OH240050   4.737   5.014  13.456 -0.0063 -0.2005 -0.9773
 6212TIP3    H140051   4.685   5.083  13.414 -1.9221  0.1965  1.9297
 6212TIP3    H240052   4.676   4.941  13.467  0.9536 -0.9396 -0.4882
 6213TIP3   OH240053   6.048   3.583   0.303 -0.2966 -0.7618 -0.0044
 6213TIP3    H140054   5.970   3.630   0.334  0.5666 -0.3080  1.5238
 6213TIP3    H240055   6.025   3.491   0.311 -0.2275 -0.6480  1.6731
 6214TIP3   OH240056   2.915   4.507   0.281  0.1866  0.8549  0.2347
 6214TIP3    H140057   2.855   4.543   0.346  0.2781 -1.2896  1.5314
 6214TIP3    H240058   2.908   4.412   0.291  3.1418  0.5480 -0.1927
 6215TIP3   OH240059   2.954   4.923  13.227 -0.0948  0.0868  0.2220
 6215TIP3    H140060   3.001   4.926  13.311  0.9948 -1.4373 -0.3169
 6215TIP3    H240061   2.921   5.012  13.216  2.6468  1.2206  0.6696
 6216TIP3   OH240062   4.028   0.357   0.521 -0.3654 -0.1990  0.6969
 6216TIP3    H140063   4.010   0.264   0.535 -2.6622 -0.0945 -1.1442
 6216TIP3    H240064   4.030   0.367   0.426  1.1856  1.4009  0.8856
 6217TIP3   OH240065   5.999   1.616   5.013 -0.0331 -0.2459 -0.1475
 6217TIP3    H140066   5.907   1.591   5.020  0.2835 -0.9713  1.8619
 6217TIP3    H240067   6.046   1.544   5.055  1.2071  1.6047  1.7239
 6218TIP3   OH240068   6.405   1.064   3.013  0.1375 -0.3116 -0.4953
 6218TIP3    H140069   6.379   1.148   2.976  0.7196 -0.2766 -0.8401
 6218TIP3    H240070   6.383   1.000   2.945 -0.1891 -0.4244 -0.2843
 6219TIP3   OH240071   3.984   2.620  16.138  0.0337 -0.2140 -0.3746
 6219TIP3    H140072   3.929   2.696  16.121 -0.1780 -0.4519 -0.7610
 6219TIP3    H240073   4.001   2.623  16.232 -1.7073 -0.8453 -0.0164
 6220TIP3   OH240074   3.216   3.723  17.018  0.1133  0.4065  0.0667
 6220TIP3    H140075   3.122   3.712  17.031 -0.0869  1.1567 -0.6819
 6220TIP3    H240076   3.255   3.695  17.100 -0.7552 -0.0933  0.3196
 6221TIP3   OH240077   3.550   6.235   0.774  0.3159  0.1314  0.1284
 6221TIP3    H140078   3.480   6.253   0.836  0.0365 -0.0808 -0.1266
 6221TIP3    H240079   3.630   6.233   0.828  0.1703  0.6843  0.3694
 6222TIP3   OH240080   0.745   0.582  11.973 -0.4948 -0.8557  0.3757
 6222TIP3    H140081   0.686   0.551  12.041 -1.0465 -1.6233 -0.4432
 6222TIP3    H240082   0.687   0.603  11.899  0.2494 -1.5918 -0.4218
 6223TIP3   OH240083   3.130   5.259  16.538 -0.4789 -0.3502  0.0557
 6223TIP3    H140084   3.194   5.211  16.590  0.6508  1.4721  0.4097
 6223TIP3    H240085   3.113   5.339  16.588 -0.0452  1.0338 -1.9088
 6224TIP3   OH240086   6.524   1.455  16.725 -0.1837  0.0768  0.1173
 6224TIP3    H140087   6.612   1.491  16.709  0.6644 -1.2656  1.6029
 6224TIP3    H240088   6.533   1.362  16.705 -1.2585 -0.0871  0.3766
 6225TIP3   OH240089   1.986   2.644  14.311 -0.2039 -0.0006  0.0642
 6225TIP3    H140090   1.914   2.679  14.258 -0.4082 -0.4786  0.0228
 6225TIP3    H240091   2.048   2.609  14.246  0.9883  2.1559  0.0165
 6226TIP3   OH240092   6.070   5.964  12.110 -0.6429  0.3489  0.6271
 6226TIP3    H140093   6.010   5.984  12.038 -0.4726 -0.7728  0.1657
 6226TIP3    H240094   6.155   5.995  12.080 -0.7232  0.6421  0.6958
 6227TIP3   OH240095   2.275   0.208   2.894  0.6419 -0.7413  0.1160
 6227TIP3    H140096   2.228   0.287   2.920 -0.1091 -1.3272  0.5603
 6227TIP3    H240097   2.285   0.159   2.975  0.5844 -1.3722 -0.2587
 6228TIP3   OH240098   1.713   0.610  12.986 -0.1211 -0.2053  0.3040
 6228TIP3    H140099   1.619   0.610  13.005 -0.1825  0.2583  0.0159
 6228TIP3    H240100   1.721   0.559  12.905 -0.1451 -0.1152  0.2434
 6229TIP3   OH240101   0.818   0.777   2.083 -0.3176 -0.0751  0.1340
 6229TIP3    H140102   0.818   0.844   2.014 -0.8105  0.4334  0.6272
 6229TIP3    H240103   0.859   0.820   2.158  1.6442 -1.1153 -0.2970
 6230TIP3   OH240104   2.008   6.360   3.177 -0.6347  0.6727 -0.0201
 6230TIP3    H140105   2.041   6.380   3.265 -0.2041  0.4921 -0.1395
 6230TIP3    H240106   2.028   6.439   3.126 -0.0194  0.4092 -0.1918
 6231TIP3   OH240107   1.161   2.665   4.431 -0.4966  0.2410 -0.3293
 6231TIP3    H140108   1.076   2.678   4.388 -0.0304  0.1075 -1.3039
 6231TIP3    H240109   1.142   2.672   4.524 -1.2983  1.9015 -0.5970
 6232TIP3   OH240110   4.065   4.286  13.543 -0.8926 -0.2583  0.2505
 6232TIP3    H140111   4.048   4.211  13.486  1.3923 -1.2970  0.8713
 6232TIP3    H240112   4.072   4.249  13.631 -1.3414  0.9069  0.7922
 6233TIP3   OH240113   3.472   4.263   1.585  0.3198  0.2040  0.4488
 6233TIP3    H140114   3.500   4.215   1.663 -0.3899  0.1612  0.6774
 6233TIP3    H240115   3.554   4.284   1.540  0.7288  0.2036  1.1820
 6234TIP3   OH240116   3.595   1.964  14.200 -0.0970 -0.0788 -0.4351
 6234TIP3    H140117   3.513   2.011  14.184 -0.4752 -0.4371  0.4579
 6234TIP3    H240118   3.568   1.874  14.220  0.4234  0.1261  1.2692
 6235TIP3   OH240119   5.750   3.773   5.379 -0.2062 -0.0461 -0.2571
 6235TIP3    H140120   5.837   3.736   5.363 -0.9209 -1.1594 -1.8052
 6235TIP3    H240121   5.744   3.847   5.319 -1.1534 -1.3748 -1.8566
 6236TIP3   OH240122   0.320   1.236   0.387  0.3968 -0.7056 -0.0695
 6236TIP3    H140123   0.289   1.180   0.315 -1.7066  0.3512 -0.0220
 6236TIP3    H240124   0.275   1.201   0.465  2.6593 -1.8441  0.7779
 6237TIP3   OH240125   1.044   5.682  12.258 -0.0105  0.3913 -0.1072
 6237TIP3    H140126   1.041   5.692  12.353 -2.0524 -0.0305 -0.0973
 6237TIP3    H240127   0.966   5.630  12.237  1.2274 -0.8290 -1.8646
 6238TIP3   OH240128   4.818   5.904   6.265 -0.3502 -0.2525 -0.6925
 6238TIP3    H140129   4.893   5.963   6.253  0.3750 -0.7795  1.0991
 6238TIP3    H240130   4.848   5.821   6.227  0.2530 -0.6520  0.6173
 6239TIP3   OH240131   2.479   1.229  13.328 -0.1788 -0.0688  0.1336
 6239TIP3    H140132   2.484   1.287  13.403  2.6453  1.0672 -0.8703
 6239TIP3    H240133   2.452   1.285  13.255  1.1778 -0.2612 -0.5431
 6240TIP3   OH240134   6.514   0.251  13.549  0.4754  0.3956 -0.3675
 6240TIP3    H140135   6.530   0.173  13.603  0.7951  1.0516  0.4986
 6240TIP3    H240136   6.599   0.271  13.510  0.5733  0.7681  0.0322
 6241TIP3   OH240137   6.208   5.589   0.575 -0.0453  0.4557  0.0924
 6241TIP3    H140138   6.164   5.671   0.555  0.4244  0.5655 -0.5035
 6241TIP3    H240139   6.299   5.604   0.551 -0.0499 -0.4072 -0.5091
 6242TIP3   OH240140   0.439   1.958  13.847 -0.0871  0.2311  0.0830
 6242TIP3    H140141   0.520   1.999  13.878 -0.8744  1.3243  0.7603
 6242TIP3    H240142   0.444   1.962  13.752  0.1429  1.3281  0.1354
 6243TIP3   OH240143   2.370   6.348  15.453  0.2999  0.0035  0.7770
 6243TIP3    H140144   2.377   6.443  15.464  1.9950 -0.0288  0.1858
 6243TIP3    H240145   2.421   6.313  15.526  1.8232 -0.3929 -0.4483
 6244TIP3   OH240146   0.859   5.202   1.296  0.0501  0.6401 -0.2444
 6244TIP3    H140147   0.903   5.117   1.293 -0.2726  0.4316  0.7623
 6244TIP3    H240148   0.910   5.258   1.236  2.5437  0.8014  1.9409
 6245TIP3   OH240149   3.667   6.139  13.354 -0.3762  0.6857 -0.1051
 6245TIP3    H140150   3.634   6.211  13.300  1.8285 -0.1716 -2.6636
 6245TIP3    H240151   3.616   6.063  13.326  1.1471  0.1280 -1.3903
 6246TIP3   OH240152   6.235   3.425  16.056 -0.0684 -0.3497  0.3853
 6246TIP3    H140153   6.197   3.420  16.144  1.3953  0.9489  1.1116
 6246TIP3    H240154   6.325   3.456  16.070  0.3549 -0.6416 -1.5248
 6247TIP3   OH240155   4.719   4.839   2.736  0.8066 -0.3684  0.9157
 6247TIP3    H140156   4.624   4.848   2.750  0.5128  0.8966 -1.6491
 6247TIP3    H240157   4.727   4.762   2.680  1.2077  0.0545  0.3886
 6248TIP3   OH240158   1.697   4.447  13.529 -1.1859  0.7943 -0.0728
 6248TIP3    H140159   1.791   4.461  13.513 -0.9672  0.0308  0.5420
 6248TIP3    H240160   1.654   4.518  13.481 -0.2737  1.3578 -0.0685
 6249TIP3   OH240161   3.755   0.224  12.562 -0.4032  0.3163  0.1940
 6249TIP3    H140162   3.671   0.263  12.586 -0.7752 -0.6837  0.5187
 6249TIP3    H240163   3.749   0.133  12.591 -0.0292 -0.3465 -1.7298
 6250TIP3   OH240164   1.349   3.483   4.849 -0.2351 -0.1889  0.6072
 6250TIP3    H140165   1.417   3.535   4.806  0.3339 -0.7521  0.8227
 6250TIP3    H240166   1.290   3.548   4.887  0.2607  0.3065  0.5408
 6251TIP3   OH240167   3.103   4.638  11.177  0.2055 -0.4880 -0.2546
 6251TIP3    H140168   3.144   4.556  11.206  1.4360  0.5585  0.9829
 6251TIP3    H240169   3.173   4.687  11.135 -0.1394  0.6115  0.4248
 6252TIP3   OH240170   5.394   5.092  17.128 -0.4490 -0.9030 -0.0766
 6252TIP3    H140171   5.326   5.077  17.062  2.0945 -0.7880 -2.8020
 6252TIP3    H240172   5.451   5.015  17.122  0.8940  0.0259  0.6157
 6253TIP3   OH240173   5.686   4.390  12.805  0.0120 -0.5914  0.5316
 6253TIP3    H140174   5.711   4.300  12.825  2.8364  0.0928  0.3989
 6253TIP3    H240175   5.670   4.390  12.710  0.2160 -0.9057  0.4983
 6254TIP3   OH240176   4.342   1.227  14.204  0.4228  0.3883  0.4394
 6254TIP3    H140177   4.307   1.147  14.244  0.2063 -0.6991 -1.8460
 6254TIP3    H240178   4.435   1.226  14.226  0.5968 -0.9713 -0.3526
 6255TIP3   OH240179   1.074   3.262  15.350  0.1482 -0.3514  0.4059
 6255TIP3    H140180   1.146   3.212  15.311 -0.4510  0.5536 -1.9359
 6255TIP3    H240181   1.040   3.315  15.278 -2.2784 -0.0913  1.6983
 6256TIP3   OH240182   6.384   1.167   4.307  0.2616  0.3277  0.5602
 6256TIP3    H140183   6.389   1.240   4.369  1.4835 -0.6535  1.6196
 6256TIP3    H240184   6.384   1.089   4.361  3.4130 -0.6294 -0.7103
 6257TIP3   OH240185   1.912   5.057  13.682  0.7662 -0.3422 -0.5283
 6257TIP3    H140186   1.856   5.054  13.759 -0.9562 -0.4773 -1.7425
 6257TIP3    H240187   1.955   5.142  13.686 -1.3663  0.7738 -0.8200
 6258TIP3   OH240188   3.623   5.007  16.013  0.1203  0.0604 -0.8225
 6258TIP3    H140189   3.655   4.989  16.101  0.9913  0.7891 -0.9830
 6258TIP3    H240190   3.671   4.946  15.957  0.1977  0.1917 -0.8979
 6259TIP3   OH240191   4.415   0.263  15.084  0.1445  0.0965 -0.0971
 6259TIP3    H140192   4.459   0.226  15.161  0.1912 -0.5079 -0.4112
 6259TIP3    H240193   4.432   0.357  15.090 -0.6195  0.1711  1.1240
 6260TIP3   OH240194   5.868   0.079   1.041  0.1267 -0.3958  0.1248
 6260TIP3    H140195   5.849  -0.011   1.017  2.1378 -1.2458  1.5529
 6260TIP3    H240196   5.927   0.111   0.972  3.2394 -1.7625  2.0486
 6261TIP3   OH240197   1.214   2.958  12.112 -0.7625 -0.2273  0.3724
 6261TIP3    H140198   1.241   2.904  12.186 -0.6456  1.1912  1.3882
 6261TIP3    H240199   1.142   3.012  12.147  0.4183  1.6550 -0.0396
 6262TIP3   OH240200   1.728   0.435  16.666 -0.3835 -0.2987  0.1840
 6262TIP3    H140201   1.655   0.374  16.655  1.4180 -2.4481 -0.1509
 6262TIP3    H240202   1.769   0.438  16.580  0.8165 -0.2545  0.7607
 6263TIP3   OH240203   5.392   4.689   2.726  0.3290  0.5889  0.3629
 6263TIP3    H140204   5.376   4.602   2.763 -0.7807  0.4148 -0.4998
 6263TIP3    H240205   5.408   4.745   2.802  1.2085 -0.4036  0.9066
 6264TIP3   OH240206   0.449   4.883   4.724 -0.2023 -0.4471  0.3132
 6264TIP3    H140207   0.445   4.961   4.779 -1.4446  0.0808 -0.4970
 6264TIP3    H240208   0.542   4.866   4.711  0.0895 -0.0679  1.8520
 6265TIP3   OH240209   4.251   5.764   0.297 -0.1981  0.3727 -0.3075
 6265TIP3    H140210   4.261   5.695   0.231  2.7837  1.2881 -0.8855
 6265TIP3    H240211   4.279   5.844   0.253  0.1676  1.2871  1.5276
 6266TIP3   OH240212   4.764   2.347   0.560  0.3965 -0.1531  0.3231
 6266TIP3    H140213   4.764   2.424   0.617 -0.2961  1.1595 -1.3910
 6266TIP3    H240214   4.739   2.381   0.474  1.0108 -2.1501 -0.6792
 6267TIP3   OH240215   0.914   2.618   2.489 -0.8194  0.1314  0.7705
 6267TIP3    H140216   0.897   2.607   2.396  3.8318  0.3736 -0.2627
 6267TIP3    H240217   0.944   2.709   2.497  1.4323 -0.6736  1.9851
 6268TIP3   OH240218   1.685   4.411  12.796 -0.1188  0.3749 -0.2328
 6268TIP3    H140219   1.712   4.365  12.876 -0.1932 -1.2803 -1.1536
 6268TIP3    H240220   1.759   4.401  12.736 -0.2980  1.1371 -0.5935
 6269TIP3   OH240221   1.448   3.248  15.069 -0.0371 -0.2558  0.4220
 6269TIP3    H140222   1.484   3.161  15.049  2.5965  1.1365 -1.1883
 6269TIP3    H240223   1.483   3.268  15.156 -2.9426 -1.9199  2.0503
 6270TIP3   OH240224   1.064   4.188   0.974  0.1353 -0.2680  0.2464
 6270TIP3    H140225   0.989   4.206   1.031 -0.4874 -2.2036  0.0970
 6270TIP3    H240226   1.110   4.271   0.967 -1.1572  0.5824  1.5819
 6271TIP3   OH240227   5.921   6.671  16.450  0.4434 -0.4937  0.1307
 6271TIP3    H140228   5.912   6.581  16.482  1.2332 -1.0672 -1.2256
 6271TIP3    H240229   6.015   6.688  16.453  0.3747 -0.0126 -0.4329
 6272TIP3   OH240230   4.374   2.759   0.222 -0.1329  0.2710  0.1254
 6272TIP3    H140231   4.282   2.781   0.239 -0.8988 -1.2617 -1.8032
 6272TIP3    H240232   4.370   2.694   0.152  2.4492  0.2648 -0.0541
 6273TIP3   OH240233   1.705   5.968  10.558  0.3266 -0.7397 -0.0627
 6273TIP3    H140234   1.745   5.901  10.503 -0.9373 -1.8701  0.3730
 6273TIP3    H240235   1.778   6.024  10.585  1.3469 -1.7710 -0.6446
 6274TIP3   OH240236   6.290   2.641  15.052  0.4662  0.1405 -0.3115
 6274TIP3    H140237   6.246   2.637  14.967  1.1500 -0.1653 -0.6535
 6274TIP3    H240238   6.341   2.723  15.049 -0.7143  0.9149  0.4041
 6275TIP3   OH240239   0.077   3.057   4.510  0.0487  0.2307 -0.1058
 6275TIP3    H140240   0.172   3.062   4.503  0.1694 -2.2116 -0.8325
 6275TIP3    H240241   0.062   3.000   4.585 -0.8986  2.4015  1.3918
 6276TIP3   OH240242   4.463   5.988  12.365  0.3884  0.5579  0.0954
 6276TIP3    H140243   4.394   6.001  12.431  1.0332 -0.2593  0.9414
 6276TIP3    H240244   4.512   5.912  12.396  0.2211 -0.3396 -1.7542
 6277TIP3   OH240245   2.259   1.954  11.959  0.5552 -0.5457 -0.3065
 6277TIP3    H140246   2.307   1.884  12.002 -0.3018 -1.2344 -0.4580
 6277TIP3    H240247   2.175   1.957  12.005  0.7718  0.7192  0.0337
 6278TIP3   OH240248   4.520   0.782  13.215  0.7171  0.1927  0.3482
 6278TIP3    H140249   4.525   0.827  13.300 -1.8636 -0.3760  0.8136
 6278TIP3    H240250   4.519   0.853  13.151 -1.6265  0.7976  1.0087
 6279TIP3   OH240251   3.987   1.148   2.151 -0.0158 -0.5004  0.3655
 6279TIP3    H140252   3.915   1.089   2.174  0.9387 -1.1261  1.8324
 6279TIP3    H240253   4.048   1.142   2.225  0.5603  1.5975  0.0832
 6280TIP3   OH240254   4.015   4.674  15.147  0.1705 -0.1168  0.2635
 6280TIP3    H140255   3.995   4.615  15.219  0.9821 -0.0379  0.5586
 6280TIP3    H240256   4.088   4.632  15.101 -0.7531 -0.4895 -0.8985
 6281TIP3   OH240257   1.818   2.664  14.096 -0.7637  0.1471 -0.5155
 6281TIP3    H140258   1.732   2.704  14.107 -1.3463 -1.0423 -0.6510
 6281TIP3    H240259   1.803   2.571  14.113  0.7395  0.1177  0.6797
 6282TIP3   OH240260   5.118   4.684  13.494 -0.0104  0.1148 -0.4096
 6282TIP3    H140261   5.201   4.677  13.540  0.7153  0.5418 -1.6413
 6282TIP3    H240262   5.105   4.778  13.480 -0.2982 -0.0012 -0.9468
 6283TIP3   OH240263   4.114   5.794  17.209 -0.4110 -0.2949 -0.2984
 6283TIP3    H140264   4.154   5.796  17.122  0.3423 -0.0629  0.0493
 6283TIP3    H240265   4.132   5.881  17.245 -0.1380 -0.6173  0.3506
 6284TIP3   OH240266   2.701   3.997  13.376 -0.0479  0.1054  0.0317
 6284TIP3    H140267   2.764   3.969  13.310 -0.7415  2.2246 -1.5752
 6284TIP3    H240268   2.617   3.964  13.345 -0.3751  1.0883 -0.1630
 6285TIP3   OH240269   4.701   1.293   4.006 -0.3895 -0.1287  0.1121
 6285TIP3    H140270   4.613   1.266   4.031 -0.5381 -0.6398 -0.9256
 6285TIP3    H240271   4.740   1.327   4.087 -0.8753 -1.6741  1.0152
 6286TIP3   OH240272   3.010   3.589   4.040  0.0860  0.0707  0.0303
 6286TIP3    H140273   2.997   3.677   4.077 -0.1682 -1.1193  2.9023
 6286TIP3    H240274   2.921   3.553   4.035  0.3778 -0.7548  0.7738
 6287TIP3   OH240275   6.586   5.665  11.056  0.1613 -0.2096 -0.1627
 6287TIP3    H140276   6.679   5.652  11.039  0.2996 -0.0981  0.5014
 6287TIP3    H240277   6.543   5.595  11.006  0.6307 -0.5953 -0.0281
 6288TIP3   OH240278   1.660   5.702   4.575 -0.3102  0.1298  0.3200
 6288TIP3    H140279   1.637   5.700   4.668 -0.0663  0.2145  0.3819
 6288TIP3    H240280   1.738   5.756   4.570  1.0034 -1.7061  0.3588
 6289TIP3   OH240281   2.909   2.733  11.590 -0.4793  0.8714  0.5354
 6289TIP3    H140282   2.996   2.695  11.577 -1.6932 -1.4488 -1.1116
 6289TIP3    H240283   2.876   2.691  11.669 -0.2340  1.4926  0.9654
 6290TIP3   OH240284   6.411   6.294   2.375 -0.1866 -0.5136 -0.0810
 6290TIP3    H140285   6.415   6.333   2.462 -1.7099 -1.8036  0.5970
 6290TIP3    H240286   6.488   6.328   2.329 -0.8439  2.2994  0.8669
 6291TIP3   OH240287   5.216   5.340  12.998  0.1521  0.0256  0.3900
 6291TIP3    H140288   5.186   5.351  13.088  2.4319  1.1022  1.0419
 6291TIP3    H240289   5.167   5.406  12.948 -0.6193 -0.1141  0.9572
 6292TIP3   OH240290   3.113   3.908  10.773 -0.3398  0.0922 -0.0317
 6292TIP3    H140291   3.136   3.891  10.865  1.0739 -0.5936 -0.4925
 6292TIP3    H240292   3.064   3.830  10.746  0.5819 -0.4174 -0.2837
 6293TIP3   OH240293   3.847   2.288   1.545  0.2261 -0.0807 -0.0402
 6293TIP3    H140294   3.796   2.353   1.594 -0.1763 -0.1153 -0.4082
 6293TIP3    H240295   3.805   2.284   1.459  0.7190 -0.2704 -0.2768
 6294TIP3   OH240296   4.943   2.218  14.608 -0.6947 -0.4362 -0.1627
 6294TIP3    H140297   4.882   2.287  14.637 -0.3895 -0.7014  1.1305
 6294TIP3    H240298   4.965   2.243  14.519 -1.5606  0.4726 -0.1444
 6295TIP3   OH240299   0.821   4.778  10.949 -0.6462 -0.0278 -0.2888
 6295TIP3    H140300   0.897   4.769  11.007  1.0084  1.1271 -2.1977
 6295TIP3    H240301   0.800   4.871  10.952 -0.1193  0.1703 -2.0018
 6296TIP3   OH240302   3.846   4.528   3.869 -0.0078  0.1329 -0.2916
 6296TIP3    H140303   3.871   4.576   3.948 -3.5538  0.4625  0.7376
 6296TIP3    H240304   3.880   4.581   3.797  0.8226  1.3304  0.9566
 6297TIP3   OH240305   2.004   3.342   3.878 -0.0666 -0.0948  0.0320
 6297TIP3    H140306   1.984   3.419   3.825  2.5245  0.4997 -0.1521
 6297TIP3    H240307   2.005   3.374   3.968 -1.7224 -0.5178  0.2122
 6298TIP3   OH240308   4.780   6.403   5.166  0.1659 -0.1379  0.3907
 6298TIP3    H140309   4.874   6.388   5.180  1.0067  2.6158 -1.7478
 6298TIP3    H240310   4.774   6.428   5.074 -2.6476  0.0107  0.5948
 6299TIP3   OH240311   1.817   1.199   2.327 -0.0265  0.5769 -0.0754
 6299TIP3    H140312   1.815   1.108   2.296 -1.9018  0.6282 -0.2114
 6299TIP3    H240313   1.846   1.249   2.251  0.1719  0.1800 -0.2643
 6300TIP3   OH240314   4.419   0.947  17.235  0.4666  0.2383 -0.3617
 6300TIP3    H140315   4.412   1.003  17.158  0.1119 -0.0441 -0.5363
 6300TIP3    H240316   4.378   0.998  17.305  3.1362  1.6248  0.2606
 6301TIP3   OH240317   5.312   2.780   4.186 -0.0974 -0.0683  0.0704
 6301TIP3    H140318   5.283   2.698   4.225 -0.5192 -0.0993 -0.3026
 6301TIP3    H240319   5.231   2.828   4.167  0.0602 -0.3367 -1.3698
 6302TIP3   OH240320   6.160   5.332  16.593 -0.1000  0.1198  0.1113
 6302TIP3    H140321   6.140   5.334  16.499 -1.5030  1.1904  0.4052
 6302TIP3    H240322   6.076   5.313  16.634  0.1404  1.4240  1.2332
 6303TIP3   OH240323   3.525   2.533  14.384  0.3677 -0.0856 -0.5999
 6303TIP3    H140324   3.606   2.506  14.342  1.3094 -0.1066  1.1911
 6303TIP3    H240325   3.494   2.455  14.430  1.1834  0.8397  1.5772
 6304TIP3   OH240326   2.675   4.230  16.975  0.0142 -0.3228  0.0148
 6304TIP3    H140327   2.738   4.249  17.045 -0.9704 -0.2890  0.8919
 6304TIP3    H240328   2.591   4.221  17.020 -0.5112 -0.9501 -1.0891
 6305TIP3   OH240329   2.598   2.488  17.113 -0.3394  0.4562  0.7362
 6305TIP3    H140330   2.635   2.491  17.024 -0.3567  2.9871  0.7759
 6305TIP3    H240331   2.652   2.550  17.163 -2.4442  1.5655  1.6667
 6306TIP3   OH240332   0.678   2.756  11.217 -0.1894  0.0213 -0.5540
 6306TIP3    H140333   0.708   2.845  11.235  0.6576 -0.4932  0.6976
 6306TIP3    H240334   0.649   2.724  11.302 -1.0950 -0.6745 -1.1276
 6307TIP3   OH240335   4.183   3.785  12.133  0.2948 -0.0574 -0.4287
 6307TIP3    H140336   4.148   3.860  12.086 -0.8550  1.2742  2.5143
 6307TIP3    H240337   4.108   3.748  12.179  1.2976 -1.6936 -0.0782
 6308TIP3   OH240338   2.247   5.324  16.889  0.0492  0.6159 -0.2258
 6308TIP3    H140339   2.218   5.413  16.874 -1.2364  0.2797  0.2244
 6308TIP3    H240340   2.189   5.291  16.958  2.1814  0.3016  1.4870
 6309TIP3   OH240341   1.700   5.228  15.979 -0.0920  0.1803  0.2200
 6309TIP3    H140342   1.655   5.190  15.904  1.0340  0.9295 -0.8603
 6309TIP3    H240343   1.680   5.321  15.974 -0.0518  0.2231  0.8820
 6310TIP3   OH240344   0.160   2.663   0.876 -0.0539 -0.4675 -0.2391
 6310TIP3    H140345   0.157   2.700   0.788 -0.1531  0.4423  0.1426
 6310TIP3    H240346   0.242   2.695   0.914 -0.1659 -0.5916  0.1160
 6311TIP3   OH240347   5.237   3.454   3.185  0.3090  0.0259 -0.3631
 6311TIP3    H140348   5.198   3.378   3.230  0.4281  0.3529  0.3014
 6311TIP3    H240349   5.165   3.516   3.176  0.6315  0.5783  0.7502
 6312TIP3   OH240350   5.974   5.672   3.857 -0.5656  0.2326 -0.2976
 6312TIP3    H140351   5.923   5.635   3.929 -1.7144  1.8147 -0.2739
 6312TIP3    H240352   5.910   5.687   3.787  0.1562  0.7281 -0.8611
 6313TIP3   OH240353   4.711   2.580   0.145  0.0887 -0.1933 -0.2447
 6313TIP3    H140354   4.784   2.620   0.098  1.0265 -2.1375 -0.5030
 6313TIP3    H240355   4.639   2.579   0.081  0.5546 -0.4093 -0.7716
 6314TIP3   OH240356   6.403   5.509   4.723 -0.1175  0.3430  0.0989
 6314TIP3    H140357   6.392   5.564   4.645  0.8809 -0.5491 -0.6877
 6314TIP3    H240358   6.373   5.563   4.796  0.5549  1.8104 -0.7077
 6315TIP3   OH240359   0.767   2.408   0.086  0.2048  0.3880  0.3254
 6315TIP3    H140360   0.681   2.386   0.119 -0.0435  1.7675  0.6348
 6315TIP3    H240361   0.816   2.326   0.087 -1.1668 -0.4393 -0.0645
 6316TIP3   OH240362   3.870   1.039   4.342  0.2364  0.4463 -0.3664
 6316TIP3    H140363   3.863   1.074   4.253 -0.2479  2.3917  0.3922
 6316TIP3    H240364   3.918   1.106   4.390 -0.6834  0.0460  1.1459
 6317TIP3   OH240365   1.498   1.341   5.277  0.9735  0.6448 -0.4221
 6317TIP3    H140366   1.564   1.279   5.308 -0.5144 -1.7339 -1.8426
 6317TIP3    H240367   1.509   1.418   5.333  4.4511  0.0382 -0.1605
 6318TIP3   OH240368   6.094   4.492   1.658  0.8976  0.4219  0.4008
 6318TIP3    H140369   6.150   4.491   1.736  0.9936 -2.0172  0.3279
 6318TIP3    H240370   6.098   4.403   1.624  1.9530  1.7492 -3.2111
 6319TIP3   OH240371   4.010   6.524  12.669  0.1716  0.1589 -0.7131
 6319TIP3    H140372   3.954   6.589  12.712  2.3737  0.5759  1.6184
 6319TIP3    H240373   3.952   6.450  12.653 -0.8036  0.0537  2.8706
 6320TIP3   OH240374   5.996   4.639   0.409  0.4031  0.2539  0.6321
 6320TIP3    H140375   5.951   4.673   0.332  0.9764 -0.1365  0.1196
 6320TIP3    H240376   5.971   4.547   0.412  0.1872  0.3236  1.0603
 6321TIP3   OH240377   1.086   0.059   0.885 -0.0824 -0.5098  0.2176
 6321TIP3    H140378   1.170   0.103   0.877  0.4151 -1.1732  1.6318
 6321TIP3    H240379   1.022   0.122   0.850  0.5487  1.5011  2.5790
 6322TIP3   OH240380   4.989   0.485   4.911 -0.7279  0.4205 -0.0462
 6322TIP3    H140381   5.083   0.484   4.896 -0.3325 -0.0261  2.2093
 6322TIP3    H240382   4.953   0.427   4.845  0.5907  0.4595 -0.8206
 6323TIP3   OH240383   3.938   5.749  16.252 -0.6486  0.3798 -0.0289
 6323TIP3    H140384   4.007   5.707  16.202 -0.0778 -1.1344  1.9524
 6323TIP3    H240385   3.984   5.795  16.322 -1.6509 -2.2768  2.5003
 6324TIP3   OH240386   6.558   3.479   4.945 -0.1237  0.3630  0.3746
 6324TIP3    H140387   6.526   3.531   4.872  1.8582  2.1742  0.7632
 6324TIP3    H240388   6.483   3.472   5.004 -1.0820  0.7537 -0.7795
 6325TIP3   OH240389   1.422   1.055   0.184  0.3858 -0.4930 -0.1474
 6325TIP3    H140390   1.356   1.124   0.189  0.5031 -0.2905 -1.4083
 6325TIP3    H240391   1.404   1.010   0.101  1.0578 -1.2309  0.1003
 6326TIP3   OH240392   2.351   5.760  14.737  0.1297  0.3384  0.0179
 6326TIP3    H140393   2.261   5.744  14.768  0.4645 -0.2793  0.7095
 6326TIP3    H240394   2.341   5.790  14.647 -0.6926 -1.5490 -0.5577
 6327TIP3   OH240395   1.188   1.708  16.304 -0.1784  0.1046 -0.0023
 6327TIP3    H140396   1.157   1.742  16.388 -1.1364 -1.2445  0.2165
 6327TIP3    H240397   1.182   1.613  16.313  2.9385 -0.1688 -0.4028
 6328TIP3   OH240398   6.555   2.643   4.844  0.1695 -0.5115  0.1100
 6328TIP3    H140399   6.571   2.625   4.937  1.9575 -2.7266 -0.5852
 6328TIP3    H240400   6.586   2.732   4.831 -0.8753  0.1155  1.8132
 6329TIP3   OH240401   5.322   2.192   0.111 -0.5111  0.0786  0.0378
 6329TIP3    H140402   5.349   2.146   0.191  0.2138 -0.2858 -0.4141
 6329TIP3    H240403   5.346   2.132   0.040  0.7524  1.3164 -0.5783
 6330TIP3   OH240404   6.721   6.006  14.351  0.4361 -0.0970 -0.6970
 6330TIP3    H140405   6.702   6.096  14.325 -0.0928  0.4917  1.5771
 6330TIP3    H240406   6.674   5.995  14.434  0.9059 -2.3104 -0.6926
 6331TIP3   OH240407   1.834   1.970   2.126  0.3464 -0.1334 -0.7730
 6331TIP3    H140408   1.914   2.022   2.120  0.5486 -0.2203  1.0655
 6331TIP3    H240409   1.854   1.902   2.190 -1.4509  0.3276  0.3105
 6332TIP3   OH240410   5.022   6.775   1.008  0.3138 -0.2353 -0.3621
 6332TIP3    H140411   5.006   6.868   0.994 -0.9029 -0.3630  0.0856
 6332TIP3    H240412   5.112   6.761   0.979  0.7216  1.2021  0.1558
 6333TIP3   OH240413   4.608   4.624  14.187  0.5373  0.3898 -0.3975
 6333TIP3    H140414   4.660   4.641  14.266  0.3742 -0.4757 -0.0995
 6333TIP3    H240415   4.635   4.693  14.126  2.1613 -0.1493 -0.3131
 6334TIP3   OH240416   6.669   6.030   4.022  0.0484  0.1993 -0.0884
 6334TIP3    H140417   6.632   6.056   4.106 -0.4940 -0.1333 -0.2196
 6334TIP3    H240418   6.687   6.113   3.977 -1.2687  0.3716 -0.3330
 6335TIP3   OH240419   2.796   4.928  15.974 -0.0289  0.0605  0.6217
 6335TIP3    H140420   2.798   5.019  15.944  0.1670 -0.5674 -1.3600
 6335TIP3    H240421   2.726   4.925  16.039  0.2065  1.7080  0.9623
 6336TIP3   OH240422   4.454   5.498   1.618 -0.2574 -0.0639  0.0401
 6336TIP3    H140423   4.492   5.418   1.655  0.0664  0.1488  0.1703
 6336TIP3    H240424   4.503   5.512   1.537  0.5938  0.7296  0.6741
 6337TIP3   OH240425   2.862   1.881   4.880  0.2737 -0.5927 -0.4019
 6337TIP3    H140426   2.956   1.900   4.880  0.0874  0.3831  1.0139
 6337TIP3    H240427   2.849   1.825   4.956 -0.2818 -0.8301 -0.6674
 6338TIP3   OH240428   0.087   6.717   5.477 -0.1888 -0.3585  0.2836
 6338TIP3    H140429   0.094   6.655   5.549 -0.1587  0.1557  0.7203
 6338TIP3    H240430   0.155   6.690   5.415 -0.6137 -1.1635  0.1678
 6339TIP3   OH240431   4.126   5.196  11.471 -0.6960 -0.3566  0.0016
 6339TIP3    H140432   4.039   5.158  11.462 -0.5773 -1.3131  2.3778
 6339TIP3    H240433   4.152   5.174  11.561  0.2675  3.5694  0.7449
 6340TIP3   OH240434   5.651   1.444   5.514 -0.1568  0.1229 -0.0706
 6340TIP3    H140435   5.657   1.540   5.521  1.9754  0.0713 -0.8757
 6340TIP3    H240436   5.730   1.419   5.467 -1.6970 -1.8695 -1.6403
 6341TIP3   OH240437   3.155   6.223   6.291 -0.2160  0.4518  0.3523
 6341TIP3    H140438   3.099   6.268   6.355 -1.2976 -1.4495  0.7658
 6341TIP3    H240439   3.228   6.190   6.343 -0.5550 -0.1809  0.4269
 6342TIP3   OH240440   4.186   2.828   5.794 -0.0467  0.1367 -0.3001
 6342TIP3    H140441   4.234   2.746   5.805  0.6005  0.3607 -1.3693
 6342TIP3    H240442   4.156   2.850   5.882  1.2530 -0.3578  0.2870
 6343TIP3   OH240443   1.030   4.403   3.390  0.4125 -0.0400 -0.1272
 6343TIP3    H140444   1.033   4.498   3.396  0.1971 -0.0435  0.0268
 6343TIP3    H240445   1.077   4.382   3.309 -2.7874  0.4114 -2.1660
 6344TIP3   OH240446   1.070   3.226  16.172  0.1106 -0.2022  0.0696
 6344TIP3    H140447   1.048   3.263  16.258  2.1840  1.3812 -0.0335
 6344TIP3    H240448   0.986   3.198  16.136 -0.7524 -1.1947  2.7361
 6345TIP3   OH240449   3.803   4.643   0.544 -0.2851  0.2474 -0.1435
 6345TIP3    H140450   3.729   4.698   0.518 -0.4347  0.6388  1.1062
 6345TIP3    H240451   3.864   4.703   0.586 -1.3908 -0.8605  3.1592
 6346TIP3   OH240452   6.170   2.050  16.355  0.0623 -0.1546  0.0207
 6346TIP3    H140453   6.127   1.964  16.354  0.8933 -0.6483  2.9804
 6346TIP3    H240454   6.261   2.032  16.332 -0.3618  0.3419 -2.1445
 6347TIP3   OH240455   4.661   0.801   2.525 -0.0486  0.0569  0.0528
 6347TIP3    H140456   4.751   0.799   2.557  0.1292 -0.8210 -0.4700
 6347TIP3    H240457   4.669   0.786   2.431 -0.8481 -1.6999  0.2493
 6348TIP3   OH240458   2.380   5.152  16.026 -0.5919  0.6011  0.0767
 6348TIP3    H140459   2.395   5.150  15.931  0.6233  0.2363  0.2692
 6348TIP3    H240460   2.467   5.166  16.064 -0.8950 -0.4505  1.1915
 6349TIP3   OH240461   1.837   3.843  14.484 -0.1944 -0.6197  0.5527
 6349TIP3    H140462   1.769   3.899  14.522 -0.8282 -0.9918 -0.0288
 6349TIP3    H240463   1.804   3.754  14.494 -1.2898 -0.6121 -2.6383
 6350TIP3   OH240464   2.161   4.711  17.212  0.3331 -0.1990  0.1024
 6350TIP3    H140465   2.209   4.676  17.137  0.9378  0.9659 -0.0618
 6350TIP3    H240466   2.077   4.741  17.175  1.2812  1.8874 -0.4275
 6351TIP3   OH240467   1.675   4.716  15.338 -0.5111  0.0735 -0.2487
 6351TIP3    H140468   1.615   4.663  15.391  0.4450  0.0867  0.8738
 6351TIP3    H240469   1.620   4.786  15.302 -1.0803  0.3678  1.1487
 6352TIP3   OH240470   2.414   4.577   3.927  0.6503  0.3232  0.0251
 6352TIP3    H140471   2.335   4.628   3.945  0.6826  0.1668  0.6307
 6352TIP3    H240472   2.455   4.621   3.853  1.3479  1.9361  1.3431
 6353TIP3   OH240473   3.727   3.339   5.868  0.2197  0.4545  0.1629
 6353TIP3    H140474   3.678   3.421   5.864 -0.4210 -0.0337 -2.9293
 6353TIP3    H240475   3.812   3.364   5.905 -0.4080  2.2766  0.4205
 6354TIP3   OH240476   0.722   2.859   4.543  0.1529 -0.1777 -0.0161
 6354TIP3    H140477   0.695   2.787   4.600 -0.7442 -0.4797 -0.7997
 6354TIP3    H240478   0.776   2.915   4.599 -1.1692 -0.1663  1.2961
 6355TIP3   OH240479   4.897   1.701  15.241  0.3821 -0.0211  0.1610
 6355TIP3    H140480   4.884   1.754  15.162 -0.0769 -0.3484  0.0153
 6355TIP3    H240481   4.925   1.616  15.207  0.8064  0.0274  0.3814
 6356TIP3   OH240482   2.289   4.291   2.318  0.3456  0.6381  0.8694
 6356TIP3    H140483   2.380   4.302   2.289  0.6661 -0.4968  1.4339
 6356TIP3    H240484   2.290   4.316   2.410 -0.0484  1.2482  0.7098
 6357TIP3   OH240485   5.220   5.842  11.745 -0.2407  0.1153 -0.0642
 6357TIP3    H140486   5.177   5.870  11.826  1.1447  0.1996  0.6476
 6357TIP3    H240487   5.308   5.816  11.771  0.9096  2.0066 -1.8079
 6358TIP3   OH240488   4.235   0.930   5.220 -0.1025  0.9763  0.0835
 6358TIP3    H140489   4.299   0.860   5.212 -1.4709 -0.1408 -1.3119
 6358TIP3    H240490   4.270   1.000   5.164  0.9948  1.2262  1.0664
 6359TIP3   OH240491   0.967   4.403   2.630  0.4982 -0.1008  0.2695
 6359TIP3    H140492   1.040   4.348   2.601  0.6472 -0.1646  0.7601
 6359TIP3    H240493   0.990   4.491   2.602 -0.4784 -0.5168 -1.9318
 6360TIP3   OH240494   3.485   1.755   2.572  0.1452  0.2267  0.0303
 6360TIP3    H140495   3.513   1.688   2.509  0.4186  0.1529  0.2287
 6360TIP3    H240496   3.452   1.705   2.647  2.0395  0.3031  0.9322
 6361TIP3   OH240497   0.906   3.804  14.004 -0.0486 -0.4311  0.1774
 6361TIP3    H140498   0.959   3.884  14.007  1.8759 -1.7370  1.3221
 6361TIP3    H240499   0.950   3.748  13.941 -0.4978 -1.2402  0.5708
 6362TIP3   OH240500   5.880   5.882   0.836 -0.1949 -0.0676  0.2958
 6362TIP3    H140501   5.946   5.814   0.829 -0.2959 -0.0702 -0.7372
 6362TIP3    H240502   5.831   5.877   0.753 -2.3833 -0.9934  1.6014
 6363TIP3   OH240503   3.474   6.613  13.744  0.1019  0.0915  0.3950
 6363TIP3    H140504   3.507   6.683  13.686  2.2011  0.0569  1.5097
 6363TIP3    H240505   3.409   6.567  13.691  1.6657  0.3393 -1.7813
 6364TIP3   OH240506   1.721   5.161   5.531 -0.0051 -0.0061  0.1115
 6364TIP3    H140507   1.649   5.150   5.468  1.7400 -0.5721 -1.8491
 6364TIP3    H240508   1.694   5.109   5.607 -1.4005 -0.7042 -0.8208
 6365TIP3   OH240509   4.092   6.719  13.264  0.3051  0.2357  0.3469
 6365TIP3    H140510   4.183   6.745  13.246  0.4524  1.1121  2.1705
 6365TIP3    H240511   4.039   6.783  13.216  0.5131 -3.0684 -4.6673
 6366TIP3   OH240512   0.918   6.052   4.161 -0.5294  0.7452 -0.5133
 6366TIP3    H140513   0.980   6.016   4.224 -0.5450  1.8214  0.1289
 6366TIP3    H240514   0.873   5.975   4.126 -0.6001  0.1227  0.8769
 6367TIP3   OH240515   0.904   0.590  11.522 -0.1541  0.7987 -0.4229
 6367TIP3    H140516   0.908   0.640  11.604 -0.4793  0.9974 -0.5280
 6367TIP3    H240517   0.991   0.549  11.515 -0.1064  0.8250 -0.0080
 6368TIP3   OH240518   5.599   6.618  16.613 -0.4187 -0.6852 -0.4976
 6368TIP3    H140519   5.679   6.570  16.635  0.7525  0.8036 -1.4019
 6368TIP3    H240520   5.613   6.705  16.650 -0.8142  0.1404 -2.2478
 6369TIP3   OH240521   5.057   5.383   2.419 -0.3503 -0.1556  0.3343
 6369TIP3    H140522   5.011   5.401   2.501 -0.0471  0.3819  0.3893
 6369TIP3    H240523   5.128   5.447   2.416  0.7812 -1.3874  0.5451
 6370TIP3   OH240524   5.505   4.546   2.965 -0.4989 -0.2361 -0.4797
 6370TIP3    H140525   5.493   4.453   2.984 -0.2692 -0.2980 -0.6386
 6370TIP3    H240526   5.460   4.591   3.036 -0.4808 -0.4678 -0.3205
 6371TIP3   OH240527   3.664   2.999   4.606 -0.5369  0.2787  0.9625
 6371TIP3    H140528   3.571   2.994   4.631 -0.1007 -1.7455  2.2869
 6371TIP3    H240529   3.706   3.046   4.678 -0.3016 -0.0261  1.0226
 6372TIP3   OH240530   5.300   1.435   3.380 -0.2373  0.0316  0.0291
 6372TIP3    H140531   5.289   1.434   3.475  1.4378 -0.0971  0.2419
 6372TIP3    H240532   5.348   1.516   3.362  1.0756 -0.8465 -0.4956
 6373TIP3   OH240533   3.451   4.300   6.059  0.2819 -0.3218 -0.4765
 6373TIP3    H140534   3.519   4.253   6.010 -0.4692  0.4357 -2.2959
 6373TIP3    H240535   3.381   4.237   6.070  0.1553 -0.2830 -1.0344
 6374TIP3   OH240536   6.402   1.946   1.701  0.3197 -0.3168  0.3362
 6374TIP3    H140537   6.389   1.894   1.780  0.5822 -1.9709 -0.6845
 6374TIP3    H240538   6.475   2.003   1.722  0.2485 -0.5855  1.3658
 6375TIP3   OH240539   3.808   3.784  15.766  0.3577  0.1707  0.4133
 6375TIP3    H140540   3.801   3.864  15.818  1.7186  0.8429 -0.4157
 6375TIP3    H240541   3.801   3.813  15.675 -0.8022 -0.8622  0.1530
 6376TIP3   OH240542   0.922   6.331  12.680 -0.2196 -0.1839 -0.3107
 6376TIP3    H140543   0.955   6.262  12.623  1.4378 -0.8846  1.4730
 6376TIP3    H240544   0.853   6.289  12.731 -0.0414 -0.2102 -0.0892
 6377TIP3   OH240545   5.360   6.283  10.990  0.1572 -0.1407  0.3063
 6377TIP3    H140546   5.338   6.217  10.923 -0.8596 -0.8874  1.3410
 6377TIP3    H240547   5.311   6.361  10.964  1.3798  0.2235 -0.9399
 6378TIP3   OH240548   3.562   3.940  13.688 -0.7779  0.2798 -0.2107
 6378TIP3    H140549   3.487   3.907  13.736 -0.7629 -0.2401 -0.5345
 6378TIP3    H240550   3.526   3.971  13.605 -0.9818  2.3112  0.6021
 6379TIP3   OH240551   2.757   1.098  12.904 -0.4728 -0.2869 -0.2739
 6379TIP3    H140552   2.722   1.144  12.980 -0.8010  2.1454 -1.8366
 6379TIP3    H240553   2.703   1.019  12.897 -1.4014  0.2086  1.1571
 6380TIP3   OH240554   3.056   5.024   6.256  0.0984  0.2199 -0.8239
 6380TIP3    H140555   2.985   5.086   6.240 -1.4507 -1.4522 -0.5383
 6380TIP3    H240556   3.033   4.981   6.338  0.9449 -1.0012 -1.2060
 6381TIP3   OH240557   5.119   1.576  13.135 -0.4917 -0.4036  0.5388
 6381TIP3    H140558   5.115   1.564  13.040 -0.2360 -1.7774  0.6842
 6381TIP3    H240559   5.112   1.671  13.148 -0.2695 -0.1802 -0.8628
 6382TIP3   OH240560   4.746   0.962  12.220 -0.0617 -0.4109 -0.3472
 6382TIP3    H140561   4.826   0.941  12.171  0.0467 -1.0292  0.0885
 6382TIP3    H240562   4.751   0.906  12.298  1.5967  3.1596  2.2590
 6383TIP3   OH240563   0.680   6.186   6.041  0.3860  0.0992 -0.3912
 6383TIP3    H140564   0.597   6.214   6.003  1.0279  1.7588 -0.5879
 6383TIP3    H240565   0.668   6.194   6.136  0.1258 -0.2382 -0.3950
 6384TIP3   OH240566   2.101   3.510   0.758  0.9024 -0.1014 -0.0579
 6384TIP3    H140567   2.018   3.508   0.710  1.0594  2.3689 -0.5206
 6384TIP3    H240568   2.107   3.424   0.799 -2.6526  0.1915  1.2532
 6385TIP3   OH240569   6.134   0.294   3.167  0.5092 -0.0093 -0.4365
 6385TIP3    H140570   6.154   0.255   3.082 -1.6511 -0.2785 -0.8436
 6385TIP3    H240571   6.039   0.301   3.169  0.6668  2.4463  0.8874
 6386TIP3   OH240572   2.617   3.020   3.027  0.1732 -0.4442  0.2062
 6386TIP3    H140573   2.658   2.987   2.947 -1.9224 -0.0583 -1.0719
 6386TIP3    H240574   2.528   2.986   3.024 -0.4237  0.9462  1.5473
 6387TIP3   OH240575   6.167   1.806  12.096 -0.0370  0.1987 -0.1137
 6387TIP3    H140576   6.152   1.821  12.189 -0.9469 -0.7453 -0.1072
 6387TIP3    H240577   6.080   1.800  12.058  0.3213 -1.0236 -0.7689
 6388TIP3   OH240578   4.922   3.898   0.003 -0.0639  0.1537 -0.4565
 6388TIP3    H140579   5.002   3.942   0.033 -1.6403  1.7353  1.5207
 6388TIP3    H240580   4.888   3.855   0.081  0.2331 -2.7637 -1.8797
 6389TIP3   OH240581   3.610   0.837   3.582 -0.7528 -0.0652  0.2396
 6389TIP3    H140582   3.625   0.865   3.491 -1.0264  1.8796  0.7535
 6389TIP3    H240583   3.531   0.885   3.608 -0.5661 -0.4664  1.5502
 6390TIP3   OH240584   3.080   5.628   1.611 -0.0650 -0.2707  0.2717
 6390TIP3    H140585   3.042   5.629   1.523 -2.4681 -0.4398  1.2512
 6390TIP3    H240586   3.127   5.545   1.616  0.3554 -0.1177 -0.9501
 6391TIP3   OH240587   6.115   2.651   2.443  0.2423 -0.6721  0.1201
 6391TIP3    H140588   6.039   2.652   2.385 -0.4123 -0.2949  0.9578
 6391TIP3    H240589   6.106   2.731   2.495  0.9015 -0.9219  0.6208
 6392TIP3   OH240590   2.406   1.510  13.867 -0.3470  0.9240  0.1052
 6392TIP3    H140591   2.490   1.501  13.911 -1.4549  0.7637  2.2723
 6392TIP3    H240592   2.418   1.581  13.805  1.3714  0.9079  0.4053
 6393TIP3   OH240593   1.140   4.365   1.253 -0.3855 -0.6317  0.7038
 6393TIP3    H140594   1.187   4.431   1.305  1.8809 -1.1788 -0.5889
 6393TIP3    H240595   1.120   4.410   1.170 -0.7482 -0.9138  0.6366
 6394TIP3   OH240596   1.586   2.152  15.653  0.5424  0.3035  0.3690
 6394TIP3    H140597   1.572   2.115  15.740  3.1227  1.4513  1.3270
 6394TIP3    H240598   1.583   2.077  15.594  1.1711 -0.8073  1.7337
 6395TIP3   OH240599   3.284   5.458   5.844 -0.2073  0.2046 -0.2940
 6395TIP3    H140600   3.376   5.433   5.851 -0.7131 -0.9315  2.7481
 6395TIP3    H240601   3.271   5.521   5.915 -1.9091 -0.0340 -0.3877
 6396TIP3   OH240602   5.801   1.043   2.413 -0.2001  0.2927 -0.3297
 6396TIP3    H140603   5.857   0.968   2.395 -0.2187  0.3160 -0.4837
 6396TIP3    H240604   5.714   1.017   2.381 -0.3187  0.1864  0.0730
 6397TIP3   OH240605   2.269   0.464   1.352 -0.3386 -0.0470 -0.7463
 6397TIP3    H140606   2.223   0.380   1.352 -1.0496  0.3258 -2.4050
 6397TIP3    H240607   2.260   0.497   1.442 -0.5254 -1.4796 -0.2288
 6398TIP3   OH240608   3.501   6.427   4.676  0.0422 -0.3189 -0.0403
 6398TIP3    H140609   3.430   6.379   4.719 -1.6071  0.8568 -1.3690
 6398TIP3    H240610   3.579   6.375   4.693 -0.7393 -0.4983  3.3369
 6399TIP3   OH240611   1.131   4.053  12.057 -0.1062 -0.2404  1.2114
 6399TIP3    H140612   1.100   3.977  12.008  2.2662  0.3571 -1.3317
 6399TIP3    H240613   1.081   4.050  12.139 -2.3675 -2.6977 -0.1530
 6400TIP3   OH240614   6.278   6.416  12.458 -0.1014 -0.1907  0.1296
 6400TIP3    H140615   6.225   6.408  12.379  1.0266  0.2185 -0.6896
 6400TIP3    H240616   6.262   6.505  12.489 -1.4141 -0.7125  1.0232
 6401TIP3   OH240617   0.896   5.804  14.587 -0.5436 -0.3346 -0.2116
 6401TIP3    H140618   0.953   5.728  14.578 -1.2668 -1.0676  1.1914
 6401TIP3    H240619   0.843   5.805  14.507  1.4869  0.4232 -1.5818
 6402TIP3   OH240620   0.381   0.342   3.241 -0.1130  0.7158  0.3593
 6402TIP3    H140621   0.452   0.286   3.212 -0.9456  0.4409 -1.2199
 6402TIP3    H240622   0.362   0.398   3.166 -1.8213  0.5104  0.6017
 6403TIP3   OH240623   2.741   2.736  14.245 -0.0299  0.2949  0.3863
 6403TIP3    H140624   2.695   2.763  14.166  0.3060 -1.2580 -0.3690
 6403TIP3    H240625   2.834   2.748  14.224  0.0014  1.4892  1.1683
 6404TIP3   OH240626   1.034   6.123  12.497  0.2350 -0.1294 -0.4894
 6404TIP3    H140627   0.955   6.069  12.505 -0.1311  0.5038  0.3406
 6404TIP3    H240628   1.098   6.066  12.455 -0.1985 -1.1426  0.1923
 6405TIP3   OH240629   0.644   3.553  15.689  0.2888 -0.0553  0.3854
 6405TIP3    H140630   0.665   3.630  15.742 -1.6139  1.3114 -0.7996
 6405TIP3    H240631   0.550   3.558  15.675  0.2352 -2.3053 -0.1895
 6406TIP3   OH240632   2.159   0.746   5.720  0.3820 -0.1140 -0.0880
 6406TIP3    H140633   2.073   0.704   5.724 -0.2579  1.3076  1.6717
 6406TIP3    H240634   2.194   0.739   5.808  1.8889 -0.2680 -0.6836
 6407TIP3   OH240635   6.042   6.157   2.752 -0.6365 -0.5632 -0.0846
 6407TIP3    H140636   6.094   6.090   2.797 -0.8642  0.0964  1.1747
 6407TIP3    H240637   6.077   6.157   2.662 -0.0530 -1.7591  0.1249
 6408TIP3   OH240638   1.639   1.569  11.170  0.4379 -0.0065  0.0568
 6408TIP3    H140639   1.693   1.501  11.210  1.0345  1.1592  1.2952
 6408TIP3    H240640   1.554   1.527  11.156  0.5291 -0.7452  1.6301
 6409TIP3   OH240641   6.537   2.624   5.837  0.3452 -0.9359 -0.0342
 6409TIP3    H140642   6.444   2.603   5.832  0.1306  0.1885 -1.2396
 6409TIP3    H240643   6.556   2.629   5.930 -1.4362  1.4240  0.2541
 6410TIP3   OH240644   0.754   1.416   0.647  0.5104 -0.7135  0.7998
 6410TIP3    H140645   0.804   1.497   0.637  0.1436 -0.6190 -0.2675
 6410TIP3    H240646   0.663   1.444   0.651  0.3420 -1.1150 -0.1482
 6411TIP3   OH240647   3.824   0.061   5.263  0.2582  0.0006  0.3161
 6411TIP3    H140648   3.904   0.043   5.215  0.3367  1.0533  0.0444
 6411TIP3    H240649   3.759   0.081   5.195 -0.0380 -0.0749  0.5721
 6412TIP3   OH240650   2.752   6.100   1.930  0.0594  0.5463  0.5511
 6412TIP3    H140651   2.798   6.054   1.860 -1.3655  0.6961 -0.5185
 6412TIP3    H240652   2.792   6.069   2.011  1.7993  0.4423 -0.3352
 6413TIP3   OH240653   0.891   5.790   1.005 -0.0380  0.2385 -0.3620
 6413TIP3    H140654   0.861   5.702   0.984  2.2176 -0.2914 -1.4672
 6413TIP3    H240655   0.946   5.779   1.083 -0.1223  0.7383 -0.2298
 6414TIP3   OH240656   1.025   0.283   4.185 -0.2133  0.1104  0.1210
 6414TIP3    H140657   1.002   0.251   4.098 -1.3715 -0.0920  0.4855
 6414TIP3    H240658   1.100   0.341   4.171  1.1001 -1.7522 -0.7010
 6415TIP3   OH240659   4.431   4.821   2.735 -0.4107  0.4110  0.1581
 6415TIP3    H140660   4.399   4.733   2.755 -1.6052  0.7339 -0.3232
 6415TIP3    H240661   4.380   4.878   2.793  0.6464  0.7616  0.7604
 6416TIP3   OH240662   2.252   5.781   2.322 -0.9742  0.0886  0.0874
 6416TIP3    H140663   2.303   5.773   2.242 -1.5988  3.3863 -0.6821
 6416TIP3    H240664   2.306   5.740   2.390  1.2547  0.6708 -1.3079
 6417TIP3   OH240665   1.262   6.482  13.566 -0.1333 -0.4704  0.2106
 6417TIP3    H140666   1.176   6.523  13.576  0.2651  0.0189  1.7080
 6417TIP3    H240667   1.312   6.545  13.513  0.1228  0.4756  1.5635
 6418TIP3   OH240668   5.808   4.271   5.512  0.1179  0.2986 -0.3018
 6418TIP3    H140669   5.739   4.205   5.523  1.0766 -0.2359  3.2656
 6418TIP3    H240670   5.768   4.353   5.541  0.6908  0.1309  1.0221
 6419TIP3   OH240671   3.701   4.655   6.233  0.7284 -0.2279 -0.2466
 6419TIP3    H140672   3.610   4.643   6.203  0.5042 -0.2549  0.4469
 6419TIP3    H240673   3.703   4.744   6.266  0.4525 -0.8635  1.5181
 6420TIP3   OH240674   4.552   3.422  12.314 -0.0923 -0.2551 -0.2193
 6420TIP3    H140675   4.527   3.464  12.397 -2.2967 -1.0365 -0.4491
 6420TIP3    H240676   4.580   3.493  12.258 -2.3567  0.7618 -0.1004
 6421TIP3   OH240677   4.118   1.463   0.806 -0.7238  0.2745 -0.5523
 6421TIP3    H140678   4.142   1.519   0.880 -1.6127  1.7205 -1.3356
 6421TIP3    H240679   4.024   1.475   0.797 -0.3885  1.2928 -2.8714
 6422TIP3   OH240680   0.453   4.129   0.849 -0.1287 -0.0013 -0.0577
 6422TIP3    H140681   0.533   4.130   0.902  0.1356  0.3194 -0.4583
 6422TIP3    H240682   0.484   4.127   0.758 -0.5760 -0.0195 -0.2136
 6423TIP3   OH240683   2.175   0.211  15.731 -0.0813  0.2890  0.8326
 6423TIP3    H140684   2.257   0.238  15.772  1.1317  0.3417 -1.5300
 6423TIP3    H240685   2.181   0.246  15.642 -0.1903 -4.2966 -1.1200
 6424TIP3   OH240686   0.481   5.130  13.570 -0.5793 -0.2333  0.2214
 6424TIP3    H140687   0.447   5.194  13.507 -0.3524 -0.1539  0.1807
 6424TIP3    H240688   0.419   5.057  13.566 -0.8866  0.0216  0.3324
 6425TIP3   OH240689   5.406   1.650   3.260  0.1151 -0.1938 -0.6273
 6425TIP3    H140690   5.330   1.704   3.236 -1.8699 -0.9887  3.5916
 6425TIP3    H240691   5.410   1.583   3.191 -3.3571 -0.4873 -0.6369
 6426TIP3   OH240692   3.963   0.715  12.845 -0.1718  0.8085  0.2683
 6426TIP3    H140693   3.966   0.661  12.924  1.9009 -0.5675 -0.7202
 6426TIP3    H240694   3.870   0.721  12.824 -0.4926 -2.0092  0.6904
 6427TIP3   OH240695   0.009   4.286  14.489  0.4089 -0.2722  0.2256
 6427TIP3    H140696   0.062   4.297  14.568 -0.5883 -1.4400  1.0707
 6427TIP3    H240697   0.026   4.365  14.438  0.9340  0.5826  1.6877
 6428TIP3   OH240698   0.804   4.701   3.488  0.0350  0.0402 -0.2689
 6428TIP3    H140699   0.771   4.620   3.448 -0.0926  0.0817 -0.2466
 6428TIP3    H240700   0.727   4.757   3.497  0.0428 -0.0150  0.1498
 6429TIP3   OH240701   1.959   1.903  16.193 -0.2949  0.2873 -0.1119
 6429TIP3    H140702   2.001   1.989  16.201  0.4884  0.0607 -1.6815
 6429TIP3    H240703   1.891   1.916  16.127 -1.2855  0.1035  0.8492
 6430TIP3   OH240704   0.164   6.302  16.793  0.1040 -0.2725 -0.1091
 6430TIP3    H140705   0.250   6.323  16.757  0.3282 -1.8044 -0.4935
 6430TIP3    H240706   0.163   6.343  16.880  0.5205  1.2753 -0.8078
 6431TIP3   OH240707   6.365   2.883  10.931 -0.0578 -0.3804 -0.3374
 6431TIP3    H140708   6.353   2.948  10.861  2.1204  0.8504  0.3698
 6431TIP3    H240709   6.449   2.842  10.911 -0.1192 -1.0610  0.7500
 6432TIP3   OH240710   2.700   1.478  14.846 -0.4041 -0.2349 -0.2109
 6432TIP3    H140711   2.633   1.412  14.829 -0.0983 -0.4075 -0.7592
 6432TIP3    H240712   2.725   1.510  14.759  1.6387 -1.5611 -0.1342
 6433TIP3   OH240713   3.829   0.139   2.381  0.5073 -0.3220  0.1574
 6433TIP3    H140714   3.833   0.195   2.304  0.2553  0.7931  0.9496
 6433TIP3    H240715   3.737   0.115   2.389  0.4199  0.1297  0.5130
 6434TIP3   OH240716   4.985   3.687   5.419 -0.2906  0.4348 -0.4173
 6434TIP3    H140717   5.023   3.599   5.420 -1.2081  0.0025 -1.7641
 6434TIP3    H240718   4.891   3.673   5.418 -0.4569  1.4489  0.2199
 6435TIP3   OH240719   1.159   6.486  11.628 -0.1527  0.0650 -1.1835
 6435TIP3    H140720   1.155   6.429  11.552 -1.1377  0.5796 -1.5219
 6435TIP3    H240721   1.252   6.489  11.651  0.0347 -0.8231 -1.7979
 6436TIP3   OH240722   3.558   5.066   3.331  0.2525 -0.3602  0.9151
 6436TIP3    H140723   3.601   5.087   3.414 -0.7705 -0.6303  1.5236
 6436TIP3    H240724   3.618   5.005   3.288  0.6346 -0.4715  1.6049
 6437TIP3   OH240725   1.637   6.065   2.732 -0.0526 -0.1583 -0.1213
 6437TIP3    H140726   1.685   6.142   2.764  1.1841 -0.3848 -1.3698
 6437TIP3    H240727   1.564   6.102   2.682 -0.0129  0.2035  0.0847
 6438TIP3   OH240728   3.480   1.235   3.264 -0.1064  0.5228 -0.4770
 6438TIP3    H140729   3.553   1.296   3.271  0.0417  0.2431  0.5635
 6438TIP3    H240730   3.485   1.202   3.175 -0.3664  2.2389 -1.1441
 6439TIP3   OH240731   4.064   6.329  15.396 -0.1178 -0.2719  0.1185
 6439TIP3    H140732   4.145   6.379  15.387  0.4700 -1.3168 -0.4717
 6439TIP3    H240733   4.047   6.327  15.490  0.3724  0.2152  0.2189
 6440TIP3   OH240734   0.977   2.244  13.260  0.1905 -0.0005 -0.1733
 6440TIP3    H140735   0.909   2.284  13.206 -0.2786  0.4230  0.7236
 6440TIP3    H240736   0.939   2.162  13.289  0.2616 -0.0045 -0.0924
 6441TIP3   OH240737   4.616   4.265   4.437  0.8113 -0.0889  0.2907
 6441TIP3    H140738   4.587   4.347   4.478  0.3770  0.1609 -0.5041
 6441TIP3    H240739   4.675   4.293   4.367  1.9360 -0.5369  1.0558
 6442TIP3   OH240740   4.056   5.721   1.712  0.9260 -0.3503 -0.6017
 6442TIP3    H140741   3.992   5.771   1.764 -0.0445 -0.6670 -1.4639
 6442TIP3    H240742   4.015   5.713   1.626  1.6682 -1.4631 -0.8630
 6443TIP3   OH240743   6.000   1.558   0.122 -0.2415 -0.2528  0.1410
 6443TIP3    H140744   6.090   1.553   0.155 -0.7410 -1.0370  1.4263
 6443TIP3    H240745   6.009   1.559   0.027  1.2006  1.1750  0.2763
 6444TIP3   OH240746   3.068   0.700   6.363  0.6660 -0.2033  0.8402
 6444TIP3    H140747   3.082   0.757   6.438  3.4377 -0.4790  0.5893
 6444TIP3    H240748   3.070   0.758   6.287 -0.2362 -0.1710  0.8357
 6445TIP3   OH240749   6.616   6.683  17.045 -0.1298 -0.0639 -0.4307
 6445TIP3    H140750   6.688   6.721  17.095 -1.1002  0.2626  0.7210
 6445TIP3    H240751   6.638   6.589  17.040  3.0335  0.7018 -4.5525
 6446TIP3   OH240752   1.469   4.383  14.711 -0.1626  0.1647  0.0954
 6446TIP3    H140753   1.551   4.342  14.686 -0.6771 -0.6333 -0.2974
 6446TIP3    H240754   1.447   4.441  14.638  0.0369  0.3714  0.1968
 6447TIP3   OH240755   5.922   6.682   0.211 -0.6041  0.2133 -0.2616
 6447TIP3    H140756   5.901   6.614   0.147 -3.3023  1.5777 -0.9208
 6447TIP3    H240757   5.935   6.634   0.293 -1.7439 -1.1791 -0.8777
 6448TIP3   OH240758   0.290   3.977   5.976 -0.4696 -0.0667  0.1818
 6448TIP3    H140759   0.253   3.956   6.061 -0.6321  1.0998  0.4025
 6448TIP3    H240760   0.355   4.045   5.993 -0.3099 -0.0129 -0.5896
 6449TIP3   OH240761   6.095   1.179   0.336 -0.2438 -1.1931 -0.5275
 6449TIP3    H140762   6.075   1.202   0.245  0.6057  0.5076 -0.2974
 6449TIP3    H240763   6.191   1.185   0.341 -0.3704 -0.1338  0.7796
 6450TIP3   OH240764   6.205   6.003   2.888 -1.1332 -0.4264  0.0081
 6450TIP3    H140765   6.271   6.035   2.950 -0.1038 -2.0540 -0.2127
 6450TIP3    H240766   6.255   5.952   2.824 -2.1804  1.1966 -2.1576
 6451TIP3   OH240767   2.361   6.509  11.065  0.1692 -0.5011  0.4354
 6451TIP3    H140768   2.440   6.495  11.013  2.6575  1.8230  3.3344
 6451TIP3    H240769   2.339   6.423  11.099  2.4908 -0.9377  0.9071
 6452TIP3   OH240770   3.338   5.812   3.952 -0.1717 -0.1575  0.0054
 6452TIP3    H140771   3.318   5.729   3.908  0.2953 -0.0451 -0.4264
 6452TIP3    H240772   3.431   5.827   3.933  0.1129 -0.2656  1.2963
 6453TIP3   OH240773   1.205   3.170   0.517 -0.3161 -0.1764  0.4476
 6453TIP3    H140774   1.144   3.216   0.575  1.2042  1.9572  0.4189
 6453TIP3    H240775   1.160   3.167   0.433 -1.4858 -1.0503  1.0770
 6454TIP3   OH240776   6.049   6.499   5.054  0.3266 -0.1666  0.9638
 6454TIP3    H140777   6.067   6.410   5.027  1.5807  0.3241  0.1705
 6454TIP3    H240778   6.113   6.517   5.123  1.2810  0.7474 -0.1575
 6455TIP3   OH240779   4.430   5.291   0.281 -0.1867  0.0187 -0.2687
 6455TIP3    H140780   4.380   5.331   0.352 -0.0659 -0.1432 -0.0904
 6455TIP3    H240781   4.516   5.334   0.286 -1.4964  3.1655 -3.0556
 6456TIP3   OH240782   5.406   5.433  16.763  0.0574 -0.0961  0.4967
 6456TIP3    H140783   5.435   5.348  16.729 -2.5086 -0.4766 -0.8734
 6456TIP3    H240784   5.402   5.490  16.686  2.0163  1.3815  1.4530
 6457TIP3   OH240785   0.993   6.741   1.969 -0.7062  0.0054 -0.4357
 6457TIP3    H140786   1.065   6.759   2.029 -1.4235  1.7704 -0.1089
 6457TIP3    H240787   0.970   6.649   1.987  1.1895 -0.4712 -0.2839
 6458TIP3   OH240788   0.017   4.701   1.325 -0.4859 -0.3134 -0.0427
 6458TIP3    H140789   0.095   4.698   1.380 -1.7035  0.8250  1.7954
 6458TIP3    H240790  -0.037   4.769   1.364 -1.5157  0.3192 -2.5065
 6459TIP3   OH240791   3.773   1.505  17.171 -0.3555 -0.2936 -0.7917
 6459TIP3    H140792   3.797   1.536  17.083  0.3190  0.4940 -0.3395
 6459TIP3    H240793   3.699   1.561  17.196  0.0086  0.0605 -0.5096
 6460TIP3   OH240794   5.441   0.300  11.612  0.3720  0.4957  0.6014
 6460TIP3    H140795   5.389   0.232  11.570  0.4698 -0.2064  1.6089
 6460TIP3    H240796   5.386   0.378  11.608 -0.1329  0.1247  0.2998
 6461TIP3   OH240797   6.187   3.810   0.455 -0.4885  0.0914  0.0107
 6461TIP3    H140798   6.162   3.867   0.382 -0.7422  0.7209  0.5804
 6461TIP3    H240799   6.170   3.721   0.423 -2.4008  0.4468 -0.0149
 6462TIP3   OH240800   5.535   4.600  11.651 -0.2816  0.2672 -0.2168
 6462TIP3    H140801   5.477   4.533  11.687  0.1295 -0.2214 -0.4499
 6462TIP3    H240802   5.602   4.611  11.719  1.4755 -1.8999 -1.4970
 6463TIP3   OH240803   5.543   5.515   0.409 -0.1480  0.2092  0.1468
 6463TIP3    H140804   5.532   5.454   0.482  0.5434 -1.1230 -0.8203
 6463TIP3    H240805   5.563   5.458   0.334 -0.1019  1.5946 -0.9105
 6464TIP3   OH240806   1.549   0.393   2.842 -0.6703 -0.2584  0.0920
 6464TIP3    H140807   1.577   0.478   2.877 -1.2539 -0.9705  2.3596
 6464TIP3    H240808   1.458   0.385   2.870 -0.1061 -2.4000  1.3827
 6465TIP3   OH240809   2.609   1.785   0.490 -0.1902 -0.0190  0.3396
 6465TIP3    H140810   2.592   1.707   0.437 -1.0232  0.3136  0.1020
 6465TIP3    H240811   2.698   1.812   0.467  0.1361 -0.9628  0.5046
 6466TIP3   OH240812   2.990   5.326   3.319 -0.1306  0.0083 -0.4698
 6466TIP3    H140813   3.021   5.349   3.406 -1.1867  3.5991 -0.9656
 6466TIP3    H240814   3.067   5.339   3.262 -0.2228  0.4507 -0.4902
 6467TIP3   OH240815   2.081   2.623   1.489 -0.1946  0.1111  0.3264
 6467TIP3    H140816   2.105   2.711   1.518 -0.4748  0.2591  0.1125
 6467TIP3    H240817   2.164   2.584   1.460 -0.2855  0.8144 -0.9212
 6468TIP3   OH240818   2.170   3.622  12.836 -0.1611 -0.0118  1.0486
 6468TIP3    H140819   2.104   3.555  12.853 -1.1960  0.3257 -1.4104
 6468TIP3    H240820   2.176   3.626  12.741  3.5253 -0.1105  1.1950
 6469TIP3   OH240821   2.206   2.764   5.783  0.3505  0.4465  0.1807
 6469TIP3    H140822   2.186   2.806   5.866  0.5833  0.7613  0.0763
 6469TIP3    H240823   2.142   2.800   5.721 -0.0269 -0.0254  0.2948
 6470TIP3   OH240824   5.337   2.892  16.324 -0.8372  0.4240 -0.1102
 6470TIP3    H140825   5.307   2.802  16.308 -1.3960  0.6221 -0.1887
 6470TIP3    H240826   5.303   2.942  16.251 -0.4313  0.6847 -0.1220
 6471TIP3   OH240827   6.470   2.295  15.086 -0.0908 -0.0295  0.4349
 6471TIP3    H140828   6.420   2.245  15.151  1.4067 -0.9965  0.8543
 6471TIP3    H240829   6.408   2.308  15.014 -0.3560 -3.0267  0.0473
 6472TIP3   OH240830   4.641   1.977   4.027 -0.1647  0.0242  0.3745
 6472TIP3    H140831   4.649   1.906   4.091 -0.4055  0.5065  0.9561
 6472TIP3    H240832   4.591   2.044   4.074 -1.9870 -0.3682 -0.9528
 6473TIP3   OH240833   1.507   0.458  15.096 -0.2844 -0.3809 -0.3512
 6473TIP3    H140834   1.436   0.487  15.038 -0.1385 -0.2832 -0.4779
 6473TIP3    H240835   1.554   0.391  15.046 -0.1491 -0.2857 -0.3489
 6474TIP3   OH240836   5.833   6.297  10.808 -0.6970  0.2700 -0.3152
 6474TIP3    H140837   5.920   6.270  10.780 -0.1522 -0.3116  1.8687
 6474TIP3    H240838   5.819   6.381  10.765  0.8861  0.3164 -0.7648
 6475TIP3   OH240839   2.827   2.788   6.103 -0.5398  0.0062  0.6356
 6475TIP3    H140840   2.775   2.727   6.154 -0.6715 -0.2845  0.1492
 6475TIP3    H240841   2.901   2.809   6.160  0.0415 -1.3931  0.4123
 6476TIP3   OH240842   2.110   1.137  14.385 -0.4265 -0.1166 -0.6607
 6476TIP3    H140843   2.024   1.166  14.355 -1.2472 -1.0329  0.7180
 6476TIP3    H240844   2.110   1.043  14.372  0.7151 -0.0172 -1.4626
 6477TIP3   OH240845   3.342   1.029   2.463  0.5369  0.1104  0.2565
 6477TIP3    H140846   3.281   1.102   2.447  1.1087  0.5597  0.1259
 6477TIP3    H240847   3.408   1.066   2.521  0.2450 -0.6093  1.0546
 6478TIP3   OH240848   1.474   0.952   6.733 -0.2527 -0.2525  0.8720
 6478TIP3    H140849   1.560   0.909   6.732  0.1723  0.5300  2.5032
 6478TIP3    H240850   1.445   0.950   6.642  1.0242 -1.4795  0.4880
 6479TIP3   OH240851   1.556   6.329  12.566  0.2758 -0.1091 -0.6177
 6479TIP3    H140852   1.586   6.238  12.567  1.9025  0.4120 -1.4812
 6479TIP3    H240853   1.469   6.325  12.606  0.0886 -2.1295 -1.1641
 6480TIP3   OH240854   4.535   6.365   5.502 -0.0958  0.1291  0.0914
 6480TIP3    H140855   4.611   6.420   5.521  1.0413 -1.7664  1.0993
 6480TIP3    H240856   4.486   6.415   5.437  1.9169  1.4575 -0.4537
 6481TIP3   OH240857   1.665   2.739  13.204  0.0584 -0.3715  0.3663
 6481TIP3    H140858   1.622   2.745  13.289 -1.1354  1.1144 -0.3175
 6481TIP3    H240859   1.597   2.709  13.144  0.6063 -0.3544 -0.2725
 6482TIP3   OH240860   2.951   6.434   5.151  0.3642 -0.2625  0.2810
 6482TIP3    H140861   2.915   6.514   5.112  2.8561  0.9230  0.3103
 6482TIP3    H240862   2.921   6.364   5.093  1.4530  1.1522 -2.0910
 6483TIP3   OH240863   4.939   0.104  14.403 -0.6939 -0.0190 -0.2252
 6483TIP3    H140864   4.873   0.035  14.405 -2.4287  1.5008 -1.6932
 6483TIP3    H240865   4.948   0.125  14.310  2.3536 -0.6268 -0.0899
 6484TIP3   OH240866   6.285   1.761  15.849 -0.1313  0.5026  0.2050
 6484TIP3    H140867   6.300   1.852  15.822  0.1537  0.3501 -0.1464
 6484TIP3    H240868   6.362   1.739  15.901 -0.6655  0.7881  1.1372
 6485TIP3   OH240869   0.357   3.108  12.909  0.4761 -0.0741 -0.8033
 6485TIP3    H140870   0.287   3.122  12.973 -0.4353 -1.6154 -1.4480
 6485TIP3    H240871   0.332   3.162  12.834 -0.9265 -1.9212 -1.6973
 6486TIP3   OH240872   4.726   1.332  11.412 -0.8439  0.0803  0.0221
 6486TIP3    H140873   4.814   1.337  11.374 -0.5977  2.3233  0.7953
 6486TIP3    H240874   4.667   1.356  11.341 -0.8379 -1.3260 -0.4692
 6487TIP3   OH240875   4.531   4.952  14.527  0.1133 -0.5490  0.5809
 6487TIP3    H140876   4.515   4.868  14.571 -0.4566 -0.9181 -0.3274
 6487TIP3    H240877   4.533   4.931  14.434  0.3864  0.3846  0.3699
 6488TIP3   OH240878   5.607   0.272  13.233  0.1996  0.2185 -0.1241
 6488TIP3    H140879   5.527   0.220  13.231 -0.3169  1.0011  0.1143
 6488TIP3    H240880   5.604   0.317  13.318 -1.4007  3.8597 -2.0285
 6489TIP3   OH240881   1.521   2.973   4.438  0.0103  0.5603  0.3275
 6489TIP3    H140882   1.580   2.977   4.362  1.2901  1.3739  1.3505
 6489TIP3    H240883   1.492   2.882   4.440  1.4807  0.0550 -0.0220
 6490TIP3   OH240884   1.798   0.910   0.035 -0.1362  0.3549  0.0672
 6490TIP3    H140885   1.811   1.001   0.009  1.6776  0.5713  1.5650
 6490TIP3    H240886   1.795   0.862  -0.047  1.7929  1.4451 -0.6888
 6491TIP3   OH240887   3.222   3.141  14.795 -0.5330  0.3370 -0.4909
 6491TIP3    H140888   3.181   3.188  14.723  0.4651  2.5660  0.3555
 6491TIP3    H240889   3.214   3.199  14.870  1.0642 -0.6687  0.5024
 6492TIP3   OH240890   0.317   3.487   5.838 -0.7913  0.7865  0.1063
 6492TIP3    H140891   0.306   3.412   5.897  2.8184 -0.0424 -0.1555
 6492TIP3    H240892   0.297   3.453   5.751  0.2999  0.2338  0.0587
 6493TIP3   OH240893   2.168   1.259  13.092 -0.3154 -0.3224  0.0704
 6493TIP3    H140894   2.218   1.209  13.027  0.0733 -0.5073  0.5131
 6493TIP3    H240895   2.204   1.348  13.085 -1.7754  0.1736 -1.5149
 6494TIP3   OH240896   4.344   6.446  16.868  0.6211  0.7191  0.1259
 6494TIP3    H140897   4.262   6.403  16.843 -0.8151  2.4287  1.7264
 6494TIP3    H240898   4.337   6.456  16.963  2.8091  0.6822  0.3050
 6495TIP3   OH240899   5.425   2.290   2.912 -0.3542  0.1993  0.1460
 6495TIP3    H140900   5.505   2.251   2.877 -0.8324 -0.9638  0.3355
 6495TIP3    H240901   5.417   2.374   2.867  0.1155 -0.3917 -1.0458
 6496TIP3   OH240902   3.324   3.916   5.181 -0.5382  0.4922 -0.3356
 6496TIP3    H140903   3.236   3.890   5.206  0.4086 -0.3507  2.2546
 6496TIP3    H240904   3.376   3.837   5.191  1.0711  1.6885  0.9799
 6497TIP3   OH240905   5.637   4.007   2.366 -0.8270  0.2731  0.1053
 6497TIP3    H140906   5.569   4.017   2.433 -1.3368 -1.7749 -0.0498
 6497TIP3    H240907   5.712   3.969   2.412 -1.4492 -1.8906 -0.5668
 6498TIP3   OH240908   0.956   5.698   4.820 -0.2542 -0.2940 -0.1079
 6498TIP3    H140909   1.030   5.677   4.877  0.2771  1.0367 -0.2977
 6498TIP3    H240910   0.918   5.612   4.797 -0.4402 -0.8584  2.1763
 6499TIP3   OH240911   1.715   3.357  13.480  0.2062  0.4407  0.2277
 6499TIP3    H140912   1.634   3.343  13.431  0.8404  1.7765 -1.2222
 6499TIP3    H240913   1.690   3.416  13.551 -0.4089 -0.4052  0.7368
 6500TIP3   OH240914   1.558   4.647  12.581  0.0316 -0.1261 -0.2408
 6500TIP3    H140915   1.494   4.589  12.622 -0.1307 -0.7134 -1.3099
 6500TIP3    H240916   1.594   4.596  12.509  0.5081  0.7984 -0.6663
 6501TIP3   OH240917   2.919   3.851   4.069 -0.2376 -0.1296  0.1247
 6501TIP3    H140918   2.830   3.815   4.074  0.2683 -1.1518  2.5714
 6501TIP3    H240919   2.912   3.937   4.110  0.7902 -2.1848  4.9892
 6502TIP3   OH240920   3.423   4.580  13.139  0.1442  0.3501  0.2043
 6502TIP3    H140921   3.365   4.656  13.141  2.7708  2.4649 -0.6743
 6502TIP3    H240922   3.468   4.582  13.223 -1.3877 -1.5973  1.1044
 6503TIP3   OH240923   1.303   6.169   3.478  0.2563 -0.4016 -0.3149
 6503TIP3    H140924   1.344   6.099   3.427 -0.3662 -0.8290 -0.2246
 6503TIP3    H240925   1.357   6.176   3.557  0.8371 -0.1769 -0.7226
 6504TIP3   OH240926   5.413   3.546  14.288  0.6087  0.4274 -0.4064
 6504TIP3    H140927   5.471   3.609  14.244 -0.6242  1.4357 -0.6243
 6504TIP3    H240928   5.339   3.599  14.317 -0.8862 -1.0990 -1.3916
 6505TIP3   OH240929   2.924   6.519  15.836  0.2051  0.3350 -0.5166
 6505TIP3    H140930   2.908   6.604  15.876 -0.3001 -0.2336  0.5322
 6505TIP3    H240931   2.855   6.462  15.872  0.2906 -0.4076 -1.5138
 6506TIP3   OH240932   5.230   5.138   2.383  0.6634 -0.3342 -0.1087
 6506TIP3    H140933   5.247   5.223   2.341 -0.9818  0.0654 -0.0186
 6506TIP3    H240934   5.298   5.129   2.449  2.2287 -0.1408 -1.6575
 6507TIP3   OH240935   6.256   5.813  17.100 -0.6982 -0.2984 -0.9426
 6507TIP3    H140936   6.177   5.843  17.147  0.5426 -0.1280  1.1000
 6507TIP3    H240937   6.275   5.727  17.138  1.9781  1.0720  0.9813
 6508TIP3   OH240938   1.539   1.437   6.925  0.1565  0.1042 -0.4065
 6508TIP3    H140939   1.526   1.345   6.899  0.1116 -0.0256  0.0662
 6508TIP3    H240940   1.587   1.476   6.852 -0.4863 -0.1060 -0.9559
 6509TIP3   OH240941   1.092   5.749  16.585 -0.7255 -0.3443  0.0906
 6509TIP3    H140942   1.092   5.844  16.573 -0.4391 -0.2109  1.1746
 6509TIP3    H240943   1.135   5.715  16.506  0.4588  0.5075  0.3533
 6510TIP3   OH240944   0.597   3.870  10.743  0.0006 -0.0354  0.2882
 6510TIP3    H140945   0.580   3.947  10.797  0.4687  0.2156  0.0878
 6510TIP3    H240946   0.663   3.900  10.679  0.0050 -0.5320  0.0579
 6511TIP3   OH240947   2.580   3.724   0.448  0.0635  0.2187 -0.3228
 6511TIP3    H140948   2.554   3.751   0.361  0.8095 -0.8571 -0.8909
 6511TIP3    H240949   2.597   3.630   0.441 -2.5938 -0.4915  1.6289
 6512TIP3   OH240950   4.837   0.625   1.903 -0.2105 -0.4204  0.3039
 6512TIP3    H140951   4.881   0.627   1.818 -1.9726 -0.4955 -0.6294
 6512TIP3    H240952   4.872   0.702   1.949 -0.5607  0.6577 -1.1734
 6513TIP3   OH240953   2.127   5.658  14.421 -0.1498 -0.6277  0.2666
 6513TIP3    H140954   2.133   5.648  14.516  1.4041  1.2003  0.3939
 6513TIP3    H240955   2.168   5.743  14.403 -2.4288  0.0951 -1.8180
 6514TIP3   OH240956   4.173   5.008  14.638 -0.0582  0.0411  0.4411
 6514TIP3    H140957   4.175   4.912  14.639  1.6362  0.0615  2.5696
 6514TIP3    H240958   4.187   5.033  14.729 -3.4001  2.3036  0.4479
 6515TIP3   OH240959   4.294   3.076  17.222 -0.5111  0.3170  0.6373
 6515TIP3    H140960   4.290   3.038  17.134  1.2324 -1.8935  1.4645
 6515TIP3    H240961   4.206   3.063  17.258  0.1226 -3.3838  1.0347
 6516TIP3   OH240962   3.534   3.657   4.483 -0.1084 -0.2278 -0.0178
 6516TIP3    H140963   3.604   3.654   4.549 -0.6427 -0.8834  0.5346
 6516TIP3    H240964   3.497   3.745   4.492  0.7069  0.1516 -0.3762
 6517TIP3   OH240965   6.111   2.357   2.465  0.3017  0.0075  0.2466
 6517TIP3    H140966   6.053   2.430   2.445 -0.1051  0.2546  2.2315
 6517TIP3    H240967   6.186   2.398   2.510  0.6596 -0.6453  0.2542
 6518TIP3   OH240968   2.896   2.422  15.704  0.2163  0.1419  0.7537
 6518TIP3    H140969   2.891   2.443  15.797 -1.0524 -1.5370  1.0698
 6518TIP3    H240970   2.982   2.381  15.693 -0.0778 -0.6371  1.3772
 6519TIP3   OH240971   6.384   6.419   1.796  0.5944 -0.0939  0.2544
 6519TIP3    H140972   6.333   6.354   1.748 -1.1753  1.6974 -0.3167
 6519TIP3    H240973   6.357   6.408   1.887  0.1365 -0.0123  0.1276
 6520TIP3   OH240974   5.867   3.637   6.639 -0.4734  0.1948 -0.3394
 6520TIP3    H140975   5.915   3.615   6.560  0.2737  0.1835  0.1112
 6520TIP3    H240976   5.888   3.729   6.656  0.2187 -0.0937  0.4236
 6521TIP3   OH240977   4.076   5.863  15.195  0.0031 -0.0330 -0.4278
 6521TIP3    H140978   4.064   5.769  15.182  2.4358 -0.2678 -1.0786
 6521TIP3    H240979   4.037   5.880  15.281  2.5498 -2.2525  1.2506
 6522TIP3   OH240980   1.443   3.372   0.426 -0.0810  0.1053  0.2914
 6522TIP3    H140981   1.523   3.424   0.420 -0.6725  1.0345  0.4207
 6522TIP3    H240982   1.377   3.424   0.381 -0.4438 -1.0187 -0.5144
 6523TIP3   OH240983   0.151   5.509   2.903  0.0628  0.1413  0.0768
 6523TIP3    H140984   0.234   5.469   2.877 -0.3094 -0.7493  0.2405
 6523TIP3    H240985   0.093   5.498   2.827  0.3949  1.6938 -0.4349
 6524TIP3   OH240986   6.640   4.294  14.096  0.0068 -0.0055 -0.2589
 6524TIP3    H140987   6.561   4.272  14.144 -0.9030  0.9216 -1.2985
 6524TIP3    H240988   6.609   4.323  14.010  1.4135  1.1469 -0.4040
 6525TIP3   OH240989   3.318   3.003   2.976  0.0873  0.5324 -0.1348
 6525TIP3    H140990   3.381   3.028   3.044  0.1138 -1.2139  0.5185
 6525TIP3    H240991   3.303   3.083   2.926  3.3392  0.8046 -0.7238
 6526TIP3   OH240992   5.680   2.222   5.178 -0.3016 -0.0312  0.1053
 6526TIP3    H140993   5.613   2.163   5.211  1.4117 -3.3219 -2.1009
 6526TIP3    H240994   5.746   2.225   5.248 -1.2068  0.6956  0.9426
 6527TIP3   OH240995   4.238   3.098   6.405  0.4360 -0.1187  0.1367
 6527TIP3    H140996   4.289   3.018   6.391  0.9403  0.2546 -0.1767
 6527TIP3    H240997   4.298   3.169   6.379 -1.3463  0.1861 -3.4814
 6528TIP3   OH240998   1.938   1.074   2.631 -0.0537 -0.0784  0.4080
 6528TIP3    H140999   1.981   1.103   2.551 -0.7468  1.2290  0.4997
 6528TIP3    H241000   1.930   0.979   2.621  0.6282 -0.0314 -0.6847
 6529TIP3   OH241001   3.398   1.378  10.718 -0.7133 -0.2892  0.0524
 6529TIP3    H141002   3.428   1.301  10.671  0.1362  1.6808 -2.7815
 6529TIP3    H241003   3.303   1.368  10.722 -0.7150 -0.9628 -1.3365
 6530TIP3   OH241004   3.398   5.537  10.982 -0.5805  0.0396 -0.5670
 6530TIP3    H141005   3.305   5.516  10.976 -0.7114  0.8836 -1.6890
 6530TIP3    H241006   3.401   5.630  11.003  0.0177 -0.2808  0.8435
 6531TIP3   OH241007   2.304   3.729  16.341 -0.4768  0.7803 -0.8932
 6531TIP3    H141008   2.244   3.791  16.382 -1.1377  0.2095 -0.9894
 6531TIP3    H241009   2.369   3.709  16.408 -0.8070  0.8500 -0.5556
 6532TIP3   OH241010   4.446   0.840   2.729  0.4243 -0.5355 -0.1087
 6532TIP3    H141011   4.532   0.826   2.688  0.6465 -3.0661  1.1155
 6532TIP3    H241012   4.462   0.830   2.822 -0.8796  0.8888  0.2788
 6533TIP3   OH241013   3.184   3.464  12.779  0.4538 -0.7970 -0.0587
 6533TIP3    H141014   3.147   3.545  12.813  2.9677  0.4756 -0.2931
 6533TIP3    H241015   3.107   3.413  12.752 -1.1280  1.8583 -0.7898
 6534TIP3   OH241016   3.684   3.573   4.205 -0.4563 -0.3941  0.1037
 6534TIP3    H141017   3.594   3.543   4.194  0.1615 -2.6117  0.6655
 6534TIP3    H241018   3.709   3.541   4.292  1.2234 -0.7808 -0.4965
 6535TIP3   OH241019   6.118   5.237  12.847 -0.0295 -0.4881  0.3105
 6535TIP3    H141020   6.163   5.322  12.853 -2.1860  0.7704 -0.8777
 6535TIP3    H241021   6.171   5.187  12.784  1.5248 -0.2276  1.3778
 6536TIP3   OH241022   3.036   3.074   4.472 -0.6377 -0.5883 -0.5252
 6536TIP3    H141023   3.120   3.029   4.483  0.0166  0.6585 -0.2815
 6536TIP3    H241024   3.000   3.081   4.560 -0.0874  0.5581 -0.3753
 6537TIP3   OH241025   2.971   2.208  14.279  0.2562 -0.1793  0.6654
 6537TIP3    H141026   2.995   2.282  14.224 -0.5682 -0.7915 -0.5298
 6537TIP3    H241027   3.028   2.215  14.356  1.8187  0.3474 -0.5241
 6538TIP3   OH241028   4.273   1.458  13.117  0.4414  0.2104  0.1545
 6538TIP3    H141029   4.368   1.473  13.124  0.3846  0.3649  0.6273
 6538TIP3    H241030   4.239   1.487  13.202 -0.1369  1.0116 -0.3478
 6539TIP3   OH241031   4.287   0.287   0.151  0.2515 -0.2866 -0.4559
 6539TIP3    H141032   4.337   0.277   0.071  1.3530  3.4292 -0.3151
 6539TIP3    H241033   4.347   0.261   0.221  0.5468  0.1214 -0.5616
 6540TIP3   OH241034   2.014   2.171   0.246  0.0257  0.1041  0.4343
 6540TIP3    H141035   2.103   2.188   0.216 -0.2723  0.3132 -0.3226
 6540TIP3    H241036   1.996   2.242   0.309  0.5996 -0.2683  1.0190
 6541TIP3   OH241037   6.244   4.608   1.111  0.1404 -0.0183 -0.1544
 6541TIP3    H141038   6.205   4.559   1.039  0.6121  1.2977 -1.3342
 6541TIP3    H241039   6.337   4.588   1.106  0.1271 -0.1962  0.3025
 6542TIP3   OH241040   3.462   1.080   0.525 -0.2677 -0.4411 -0.3510
 6542TIP3    H141041   3.415   1.090   0.608 -0.6516 -0.9844 -0.4970
 6542TIP3    H241042   3.449   0.988   0.502  3.4001 -1.3934  1.1272
 6543TIP3   OH241043   0.700   6.710  13.763 -0.6044  0.2738 -0.2764
 6543TIP3    H141044   0.729   6.787  13.715 -1.8947  0.7463 -0.3226
 6543TIP3    H241045   0.742   6.718  13.849 -0.4983  0.8744 -0.3789
 6544TIP3   OH241046   1.910   3.584   2.468  0.2249  0.3895 -0.3210
 6544TIP3    H141047   1.963   3.661   2.484 -0.5367  1.2745 -1.9520
 6544TIP3    H241048   1.899   3.544   2.555  0.8000  1.9693  0.5004
 6545TIP3   OH241049   0.090   1.698  11.351  0.1108  0.3547 -0.0052
 6545TIP3    H141050   0.122   1.656  11.431 -1.3197 -1.0355 -0.1375
 6545TIP3    H241051   0.152   1.670  11.283  1.3505  1.5721  0.6080
 6546TIP3   OH241052   1.520   4.390   1.023  0.3354  0.3646 -0.3560
 6546TIP3    H141053   1.520   4.296   1.007 -0.2141  0.4935 -1.1561
 6546TIP3    H241054   1.575   4.402   1.100  1.1309 -0.5297 -0.7713
 6547TIP3   OH241055   2.639   5.136  15.688  0.3569 -0.1304 -0.2132
 6547TIP3    H141056   2.550   5.173  15.685  0.8863  1.1595 -0.3325
 6547TIP3    H241057   2.630   5.050  15.648 -0.9179 -0.1464  0.0842
 6548TIP3   OH241058   5.419   1.412  14.399  0.6603 -0.0438  0.4745
 6548TIP3    H141059   5.511   1.399  14.422  0.6946  0.7318  0.7900
 6548TIP3    H241060   5.371   1.377  14.474  0.6139 -2.6936 -0.7265
 6549TIP3   OH241061   3.714   2.793   3.192  0.7224  0.0821  0.2011
 6549TIP3    H141062   3.714   2.730   3.264 -1.1496 -0.5805 -0.3507
 6549TIP3    H241063   3.698   2.739   3.114 -0.0370  1.1356 -0.3821
 6550TIP3   OH241064   5.403   4.098  11.775 -0.4223  0.0714 -0.0472
 6550TIP3    H141065   5.444   4.180  11.746  2.2246 -1.0647  0.4181
 6550TIP3    H241066   5.391   4.110  11.870 -0.1786 -0.0431 -0.0045
 6551TIP3   OH241067   4.912   2.271  16.682 -0.4284  0.1804 -0.2662
 6551TIP3    H141068   4.976   2.205  16.655  1.8115  1.9857  0.5396
 6551TIP3    H241069   4.861   2.228  16.750  1.5354 -0.4571  0.8365
 6552TIP3   OH241070   5.325   6.491   1.615  0.0855  0.9029 -0.0641
 6552TIP3    H141071   5.261   6.492   1.686 -0.2197  1.4048 -0.3477
 6552TIP3    H241072   5.387   6.560   1.638  0.5191  0.4322  0.2003
 6553TIP3   OH241073   0.286   4.003  11.660  0.5872  0.0218  0.2323
 6553TIP3    H141074   0.278   3.941  11.734  1.1618  0.7259  0.8924
 6553TIP3    H241075   0.275   4.089  11.700  1.6101  0.4497 -0.3950
 6554TIP3   OH241076   2.599   3.344  15.180 -0.4897 -0.1276 -0.3012
 6554TIP3    H141077   2.655   3.309  15.111 -0.5262  1.6719 -1.2588
 6554TIP3    H241078   2.515   3.359  15.137 -0.1384  2.2276 -0.1934
 6555TIP3   OH241079   3.753   4.224   2.127 -0.4687 -0.0278  0.0460
 6555TIP3    H141080   3.835   4.253   2.167  0.2830  0.0279 -1.4836
 6555TIP3    H241081   3.766   4.238   2.033 -2.9746  1.7668 -0.0665
 6556TIP3   OH241082   2.696   3.453  15.862 -0.2153  0.5316  0.0343
 6556TIP3    H141083   2.696   3.544  15.833 -0.8815  0.6183  0.2873
 6556TIP3    H241084   2.603   3.427  15.860  0.2597 -1.4329 -4.0532
 6557TIP3   OH241085   3.322   5.208  12.020  0.0651 -0.5874 -0.4181
 6557TIP3    H141086   3.286   5.121  12.038 -0.2209 -0.1381  1.2431
 6557TIP3    H241087   3.264   5.269  12.065  1.6156  0.2895  0.4677
 6558TIP3   OH241088   2.514   5.336  16.945 -0.1631  0.8951 -0.3016
 6558TIP3    H141089   2.425   5.303  16.933  0.7335 -1.7083  0.0384
 6558TIP3    H241090   2.529   5.392  16.869 -2.0004  1.1717 -0.4833
 6559TIP3   OH241091   0.442   1.977   2.509  0.5618 -0.2283 -0.7355
 6559TIP3    H141092   0.500   2.014   2.576 -0.0579  0.3636 -0.5252
 6559TIP3    H241093   0.355   1.981   2.548  0.3047 -0.6222 -1.2659
 6560TIP3   OH241094   6.208   1.863  13.557 -0.1957 -0.1362 -0.6455
 6560TIP3    H141095   6.276   1.904  13.505 -0.9744  1.1779 -0.6524
 6560TIP3    H241096   6.134   1.923  13.551 -1.7147 -2.0201 -1.4875
 6561TIP3   OH241097   2.102   0.707  16.843 -0.4712  0.3667 -0.3734
 6561TIP3    H141098   2.144   0.782  16.802 -0.4772 -0.3742 -1.7968
 6561TIP3    H241099   2.019   0.697  16.796 -0.9900  0.1651  0.5705
 6562TIP3   OH241100   4.861   4.006  14.095 -0.2572 -0.3660 -0.0674
 6562TIP3    H141101   4.812   4.084  14.123  0.0310 -0.2459  0.0966
 6562TIP3    H241102   4.950   4.020  14.126 -0.4360 -1.2299  0.8735
 6563TIP3   OH241103   1.550   0.670   1.877  0.6746  0.1277  0.6890
 6563TIP3    H141104   1.608   0.678   1.801  2.0369 -2.1851  1.4272
 6563TIP3    H241105   1.574   0.743   1.934  1.4878  0.3322  0.0856
 6564TIP3   OH241106   1.889   3.239  12.515 -0.0198  0.0282  0.1530
 6564TIP3    H141107   1.817   3.204  12.462 -0.8379  0.6456  0.8705
 6564TIP3    H241108   1.932   3.302  12.457  1.2643 -1.8665 -1.0395
 6565TIP3   OH241109   6.001   5.433   1.311  0.0113  0.3115  0.0643
 6565TIP3    H141110   5.988   5.484   1.231 -1.2487  1.0583  0.7114
 6565TIP3    H241111   6.061   5.486   1.364 -0.0407  0.3599  0.0756
 6566TIP3   OH241112   3.663   1.979   1.244  0.5985 -0.4786 -0.2403
 6566TIP3    H141113   3.602   1.994   1.316 -1.5564  0.8110 -2.2616
 6566TIP3    H241114   3.658   1.885   1.228  2.1139 -0.9877  2.1401
 6567TIP3   OH241115   2.690   0.131  11.737 -0.0054  0.1901  0.4387
 6567TIP3    H141116   2.667   0.043  11.707  0.1354  0.8048 -1.5888
 6567TIP3    H241117   2.623   0.153  11.802 -0.3401 -1.2035  0.5782
 6568TIP3   OH241118   3.865   0.006   4.182  0.2077 -0.0929  0.2435
 6568TIP3    H141119   3.919  -0.072   4.190 -0.4575 -0.4689  1.2137
 6568TIP3    H241120   3.873   0.050   4.266  1.3912  1.4392 -0.6395
 6569TIP3   OH241121   5.897   2.956  12.792  0.2670  0.2067 -0.6608
 6569TIP3    H141122   5.894   2.898  12.715  1.0548  0.7860 -1.1404
 6569TIP3    H241123   5.815   3.005  12.788  0.4469  0.4611 -1.3152
 6570TIP3   OH241124   3.594   2.031   6.333 -0.2346 -0.3826 -0.1563
 6570TIP3    H141125   3.503   2.057   6.352 -0.8797 -2.5639 -0.1956
 6570TIP3    H241126   3.589   1.986   6.249  0.5146 -2.5982  0.9670
 6571TIP3   OH241127   5.053   5.199  13.884  0.0526 -0.7612 -0.2630
 6571TIP3    H141128   5.035   5.145  13.807 -2.7132 -1.1481  0.5825
 6571TIP3    H241129   4.998   5.161  13.953 -1.3586  2.6418  0.5684
 6572TIP3   OH241130   4.018   1.358  13.052  0.0799 -0.1459 -0.3057
 6572TIP3    H141131   4.003   1.354  12.958  0.1778  1.3301 -0.3910
 6572TIP3    H241132   4.087   1.423  13.063  1.3148 -1.6076  0.6492
 6573TIP3   OH241133   2.358   6.455  14.644  0.6515 -0.2247  0.0812
 6573TIP3    H141134   2.318   6.457  14.557 -0.2043  1.5194  0.4959
 6573TIP3    H241135   2.421   6.383  14.640 -0.1877 -0.8840 -1.6187
 6574TIP3   OH241136   6.228   1.533  12.181 -0.1949 -0.1826 -0.1811
 6574TIP3    H141137   6.300   1.495  12.132  0.7840  0.4811  0.7295
 6574TIP3    H241138   6.236   1.627  12.166 -0.0327  0.0068  1.0367
 6575TIP3   OH241139   6.196   5.205   1.302 -0.0976  0.2008  0.0950
 6575TIP3    H141140   6.121   5.249   1.263  0.0443  0.5094  0.1631
 6575TIP3    H241141   6.165   5.117   1.322 -0.9620  0.8200  1.6544
 6576TIP3   OH241142   5.853   3.100  12.434  0.1610 -0.0866  0.3129
 6576TIP3    H141143   5.845   3.193  12.456  0.1466  0.5665 -2.3580
 6576TIP3    H241144   5.788   3.057  12.491  2.1476  1.1419  3.6430
 6577TIP3   OH241145   2.930   4.478   0.790 -0.0555  0.3438  0.0006
 6577TIP3    H141146   2.914   4.422   0.714 -2.1975  1.2494 -0.2548
 6577TIP3    H241147   2.986   4.548   0.757  2.0763 -1.2321  0.1625
 6578TIP3   OH241148   1.193   0.982  11.802  0.2766  0.3748 -0.3795
 6578TIP3    H141149   1.263   0.942  11.854  1.0303  1.8389 -0.2415
 6578TIP3    H241150   1.153   1.046  11.862 -2.3385 -1.6411  0.1269
 6579TIP3   OH241151   0.682   0.361   5.171  0.1719  0.0131  0.1097
 6579TIP3    H141152   0.745   0.338   5.102  0.2000 -0.8019  0.3997
 6579TIP3    H241153   0.728   0.341   5.252 -0.4127 -0.4392  0.3299
 6580TIP3   OH241154   2.314   2.467  13.968 -0.4676 -1.0925 -0.5350
 6580TIP3    H141155   2.333   2.396  13.908 -0.4368 -0.6425 -1.0643
 6580TIP3    H241156   2.243   2.516  13.926  0.0395 -0.3636 -0.5430
 6581TIP3   OH241157   6.198   0.331  12.113 -0.2205  0.1010  0.2009
 6581TIP3    H141158   6.283   0.355  12.148 -0.2667  0.3116  0.1659
 6581TIP3    H241159   6.138   0.398  12.145 -0.1793  0.5575 -0.6631
 6582TIP3   OH241160   0.387   2.617  16.422 -0.2615  0.2248  0.0696
 6582TIP3    H141161   0.350   2.591  16.507 -4.2803 -2.1041 -2.2325
 6582TIP3    H241162   0.470   2.571  16.417 -0.4648 -0.4570  2.3126
 6583TIP3   OH241163   1.950   3.624   3.451  0.0956  0.8183  0.3646
 6583TIP3    H141164   2.015   3.693   3.435  0.9801  0.0768  0.7196
 6583TIP3    H241165   2.001   3.550   3.482 -1.0641  0.6969  2.0815
 6584TIP3   OH241166   5.870   6.458   6.518  0.1787 -0.0028 -0.2019
 6584TIP3    H141167   5.837   6.373   6.547 -1.0987  1.6542  3.5207
 6584TIP3    H241168   5.806   6.488   6.453 -0.2526 -1.1479 -0.3203
 6585TIP3   OH241169   4.774   6.339   6.070  0.3133 -0.2899 -0.0118
 6585TIP3    H141170   4.749   6.404   6.135 -0.2536 -1.6307  1.1317
 6585TIP3    H241171   4.718   6.263   6.088  1.4282 -1.3522 -0.8816
 6586TIP3   OH241172   0.891   0.798   6.602 -0.1004  0.6135  0.0020
 6586TIP3    H141173   0.875   0.746   6.681 -1.0963  0.5650 -0.2280
 6586TIP3    H241174   0.954   0.746   6.552 -1.4332 -0.5947 -0.4402
 6587TIP3   OH241175   3.034   0.186   2.986 -0.1058 -0.2822  0.0914
 6587TIP3    H141176   3.088   0.121   3.031 -0.0049  0.6758  1.3756
 6587TIP3    H241177   2.995   0.237   3.056 -1.7250 -0.1826 -0.8709
 6588TIP3   OH241178   1.279   3.781   1.920  0.8083  0.5533  0.0091
 6588TIP3    H141179   1.318   3.867   1.935  0.8423  0.5555 -0.0919
 6588TIP3    H241180   1.184   3.797   1.928  0.7622  0.7873 -0.9389
 6589TIP3   OH241181   5.978   5.568   2.146  0.7055 -0.1330  0.0972
 6589TIP3    H141182   5.944   5.491   2.190  0.5314 -0.5841 -0.8128
 6589TIP3    H241183   6.048   5.600   2.203  1.5868 -1.6627 -0.1018
 6590TIP3   OH241184   2.882   1.194  16.069  0.0112  0.4694 -0.4208
 6590TIP3    H141185   2.805   1.249  16.055  0.7665  1.1446 -2.0374
 6590TIP3    H241186   2.944   1.222  16.003  0.5869 -2.0423 -1.0129
 6591TIP3   OH241187   3.894   4.262  12.549  0.2305  0.0741 -0.0218
 6591TIP3    H141188   3.848   4.302  12.475 -0.1949 -2.5082 -1.2006
 6591TIP3    H241189   3.827   4.251  12.616  0.0356 -0.0260 -0.2339
 6592TIP3   OH241190   2.474   5.062  12.907  0.3265  0.2815  0.0899
 6592TIP3    H141191   2.428   5.021  12.834  0.4503 -2.7254  1.6378
 6592TIP3    H241192   2.405   5.104  12.958 -0.3108 -1.4277  0.6488
 6593TIP3   OH241193   0.701   5.039   4.478 -0.0680  0.1095 -0.0611
 6593TIP3    H141194   0.712   4.979   4.552  0.8432  1.5161  0.9702
 6593TIP3    H241195   0.772   5.102   4.487  0.3217  0.0734 -2.3924
 6594TIP3   OH241196   3.140   1.887   1.614 -0.3919  0.1696  0.3459
 6594TIP3    H141197   3.200   1.950   1.573  0.8779 -1.3935 -0.2286
 6594TIP3    H241198   3.078   1.865   1.545 -1.1214  1.1377  0.6861
 6595TIP3   OH241199   1.864   3.690   1.570 -0.4799 -0.5856  0.2717
 6595TIP3    H141200   1.869   3.683   1.665 -1.6987 -1.3752  0.2964
 6595TIP3    H241201   1.776   3.725   1.553 -0.4121 -0.8135 -0.5709
 6596TIP3   OH241202   0.131   5.210  10.534  0.2142 -0.0993  0.3637
 6596TIP3    H141203   0.115   5.116  10.526 -2.6127  0.3461  0.3147
 6596TIP3    H241204   0.206   5.216  10.593  0.0041 -2.3555  0.9138
 6597TIP3   OH241205   4.779   0.450  14.264  0.4872 -0.4231  0.1309
 6597TIP3    H141206   4.778   0.511  14.190  2.1596  1.1695  1.3911
 6597TIP3    H241207   4.707   0.389  14.246 -2.3275  2.8982 -0.3396
 6598TIP3   OH241208   3.803   2.104   1.974  0.5918 -0.7958  0.1430
 6598TIP3    H141209   3.894   2.094   2.003  0.4169  0.2156  1.0854
 6598TIP3    H241210   3.806   2.091   1.879  1.6265 -1.3736  0.2561
 6599TIP3   OH241211   2.416   4.930  12.309  0.4525 -0.0607  0.1890
 6599TIP3    H141212   2.369   4.915  12.391 -0.5572 -4.0026 -0.9943
 6599TIP3    H241213   2.507   4.907  12.329  0.4633  0.2612  0.5271
 6600TIP3   OH241214   0.896   4.861  15.355 -0.3484 -0.0409  0.1117
 6600TIP3    H141215   0.929   4.837  15.442  0.7355 -1.1592 -0.5986
 6600TIP3    H241216   0.956   4.818  15.294 -1.3139  0.4526 -1.1984
 6601TIP3   OH241217   4.591   3.720   0.757  0.3217  0.3071 -0.3831
 6601TIP3    H141218   4.501   3.702   0.729 -0.8700  1.0765  2.6958
 6601TIP3    H241219   4.617   3.641   0.804  1.3814 -0.0347 -1.5408
 6602TIP3   OH241220   4.332   1.311  13.777  0.4282 -0.6618  0.8678
 6602TIP3    H141221   4.420   1.337  13.802  0.9838 -0.6747 -1.0042
 6602TIP3    H241222   4.288   1.394  13.753 -0.0825 -0.6514  1.8098
 6603TIP3   OH241223   2.268   6.606   4.261  0.0807  1.0568  0.1892
 6603TIP3    H141224   2.316   6.592   4.179  0.6268 -0.6374  0.7766
 6603TIP3    H241225   2.332   6.584   4.330 -1.8450 -2.4307  0.9738
 6604TIP3   OH241226   4.879   1.185   1.887 -0.4932  0.0055  0.5835
 6604TIP3    H141227   4.958   1.237   1.903 -0.3987  0.2874 -0.7650
 6604TIP3    H241228   4.812   1.227   1.941  0.3405 -0.4470  2.0110
 6605TIP3   OH241229   6.714   4.883   4.040  0.2067  0.2832 -0.3003
 6605TIP3    H141230   6.758   4.939   3.977  1.5029 -0.3321  0.0434
 6605TIP3    H241231   6.759   4.900   4.123 -1.5982  1.2292  0.5206
 6606TIP3   OH241232   3.076   6.112  10.452  0.4944 -0.3569 -0.4182
 6606TIP3    H141233   3.093   6.122  10.546  2.6716  1.6440 -0.9776
 6606TIP3    H241234   2.982   6.123  10.443  0.1917 -1.1536  1.6013
 6607TIP3   OH241235   4.957   3.630  14.951  0.1435  0.0818 -0.2518
 6607TIP3    H141236   4.940   3.675  15.033  0.1509 -1.4146  0.5806
 6607TIP3    H241237   5.022   3.564  14.972 -0.0388 -0.4820 -1.4016
 6608TIP3   OH241238   2.844   5.355  17.026 -0.3071 -0.3050 -0.0299
 6608TIP3    H141239   2.829   5.340  16.933  0.7398 -1.7441  0.0024
 6608TIP3    H241240   2.810   5.442  17.043 -1.4734 -0.4575 -1.5314
 6609TIP3   OH241241   5.696   4.808   4.259 -0.7171 -0.6224 -0.3256
 6609TIP3    H141242   5.702   4.718   4.227 -0.3665 -0.3521 -1.0524
 6609TIP3    H241243   5.643   4.853   4.193 -0.3241 -0.1423 -0.3159
 6610TIP3   OH241244   4.676   5.319  16.381 -0.4787 -0.2476  0.0078
 6610TIP3    H141245   4.668   5.413  16.363 -0.6268 -0.3586 -0.5114
 6610TIP3    H241246   4.770   5.303  16.386 -0.3991 -0.3862 -1.6010
 6611TIP3   OH241247   6.757   3.675  16.105 -0.6749  0.0696 -0.3569
 6611TIP3    H141248   6.798   3.749  16.149 -0.1879  0.2165 -1.0429
 6611TIP3    H241249   6.751   3.703  16.013  0.4209 -1.1390 -0.7984
 6612TIP3   OH241250   5.995   5.209  15.837 -0.3020  0.4271  0.3172
 6612TIP3    H141251   6.022   5.135  15.783 -2.3466  0.5228 -0.8726
 6612TIP3    H241252   6.059   5.210  15.909  2.1391 -0.0339 -1.7642
 6613TIP3   OH241253   0.674   2.218  13.189 -0.3887  0.5739  0.0091
 6613TIP3    H141254   0.708   2.220  13.099  0.4247  1.4390  0.3176
 6613TIP3    H241255   0.684   2.127  13.217  0.4609  0.5456 -0.3774
 6614TIP3   OH241256   5.210   1.766   1.462 -0.9296 -0.0384  0.0713
 6614TIP3    H141257   5.205   1.671   1.475 -0.7400  0.2242  2.4337
 6614TIP3    H241258   5.183   1.780   1.372  1.5607 -2.5634 -1.1394
 6615TIP3   OH241259   1.281   5.751  14.347 -0.3207 -0.3324 -0.0663
 6615TIP3    H141260   1.371   5.723  14.364  0.1984  0.2547 -1.8000
 6615TIP3    H241261   1.262   5.721  14.258 -2.0963 -1.0641  0.5335
 6616TIP3   OH241262   0.066   2.926  16.212 -0.2635  0.3870  0.4512
 6616TIP3    H141263   0.026   3.000  16.257 -0.2897  1.3732 -1.1600
 6616TIP3    H241264   0.078   2.956  16.122  1.6211 -0.8431  0.2667
 6617TIP3   OH241265   5.078   0.007   4.782 -0.0822  0.1173 -0.1285
 6617TIP3    H141266   5.122   0.091   4.774 -0.1594  0.2042  0.3486
 6617TIP3    H241267   5.127  -0.052   4.724 -0.4165  0.6465 -0.9488
 6618TIP3   OH241268   1.303   2.932   1.985  0.3303  0.1397 -0.5987
 6618TIP3    H141269   1.357   3.000   1.947  0.2466  0.3512 -0.3460
 6618TIP3    H241270   1.321   2.937   2.079  0.8389 -0.6436 -0.6529
 6619TIP3   OH241271   3.467   2.058   1.971  0.0209 -0.4026 -0.1852
 6619TIP3    H141272   3.416   2.139   1.971 -1.2994 -1.2112 -2.7792
 6619TIP3    H241273   3.558   2.087   1.959 -0.5699  0.6466 -2.3207
 6620TIP3   OH241274   5.892   4.796  12.535  0.5595  0.1387  0.9970
 6620TIP3    H141275   5.935   4.711  12.540 -1.6347 -1.1759 -1.3282
 6620TIP3    H241276   5.867   4.805  12.443 -0.8650  2.4848  1.5687
 6621TIP3   OH241277   3.214   2.058   0.962 -0.0293 -0.2530  0.3501
 6621TIP3    H141278   3.227   2.044   0.868  0.6552 -2.8688  0.7835
 6621TIP3    H241279   3.273   2.129   0.984 -0.0279  0.2338 -1.1506
 6622TIP3   OH241280   1.109   4.924   0.477  0.1437 -0.0458  0.3385
 6622TIP3    H141281   1.070   4.847   0.436 -1.5984  0.3896  1.0959
 6622TIP3    H241282   1.192   4.893   0.514 -0.3023 -1.4334  0.2105
 6623TIP3   OH241283   4.814   3.242   1.671 -0.4166 -0.3327  0.1418
 6623TIP3    H141284   4.866   3.249   1.751 -0.0723  0.8716 -0.1670
 6623TIP3    H241285   4.807   3.332   1.639 -1.6973 -0.6246 -0.4601
 6624TIP3   OH241286   6.117   2.838  11.893  0.0187  0.3336 -0.1787
 6624TIP3    H141287   6.033   2.792  11.899 -0.2802  1.1059  1.7851
 6624TIP3    H241288   6.096   2.919  11.846 -0.1594  0.1495 -0.4233
 6625TIP3   OH241289   2.442   4.967  11.980  0.0464 -0.2687 -0.4710
 6625TIP3    H141290   2.404   5.055  11.976 -0.3008 -0.4385 -1.0254
 6625TIP3    H241291   2.432   4.941  12.071 -2.2901 -0.7765 -0.8389
 6626TIP3   OH241292   0.642   0.780   5.020  0.9196  0.1398 -0.2619
 6626TIP3    H141293   0.606   0.703   4.977  1.2128  0.6996 -1.5280
 6626TIP3    H241294   0.569   0.815   5.071  0.7795 -0.9522  0.2924
 6627TIP3   OH241295   2.159   2.365   2.626  0.6853 -0.2435  0.1982
 6627TIP3    H141296   2.205   2.375   2.543 -0.7614  1.7863 -0.4015
 6627TIP3    H241297   2.112   2.283   2.617  1.5734 -0.6903 -0.4680
 6628TIP3   OH241298   4.947   4.486   1.403  0.1033 -0.1505 -0.3334
 6628TIP3    H141299   5.033   4.454   1.430  1.8831  3.7689 -0.9436
 6628TIP3    H241300   4.940   4.461   1.311  2.2110  2.5178 -1.2828
 6629TIP3   OH241301   2.681   4.453   5.402 -0.3880 -0.6377 -0.3898
 6629TIP3    H141302   2.741   4.487   5.336  0.2895 -0.7357  0.1676
 6629TIP3    H241303   2.704   4.501   5.482 -2.0403  0.3912 -0.5059
 6630TIP3   OH241304   5.783   0.158  12.366 -0.6989  0.1318 -0.0729
 6630TIP3    H141305   5.759   0.097  12.435 -0.2346  0.3887  0.3183
 6630TIP3    H241306   5.865   0.123  12.330 -0.6487  0.2996 -0.1239
 6631TIP3   OH241307   1.570   2.027   5.096 -0.5434  0.3588 -0.5152
 6631TIP3    H141308   1.623   2.084   5.041  0.8097 -0.3401  0.0553
 6631TIP3    H241309   1.502   1.994   5.037  0.0548  0.7118 -1.4199
 6632TIP3   OH241310   4.991   6.365   1.754 -0.0004 -0.2980 -0.0410
 6632TIP3    H141311   4.965   6.457   1.761  1.7010  0.0902  1.3773
 6632TIP3    H241312   5.007   6.337   1.844  0.4863 -1.7051 -0.5406
 6633TIP3   OH241313   5.043   3.906   4.067  0.3925  0.0556 -0.2463
 6633TIP3    H141314   5.013   3.876   4.153  0.2371 -1.1225 -0.6963
 6633TIP3    H241315   4.962   3.923   4.019  0.4773  0.4661 -0.2447
 6634TIP3   OH241316   1.501   0.344   4.188  0.1670  0.2569  0.4379
 6634TIP3    H141317   1.516   0.318   4.279 -1.5537  0.4264  0.7798
 6634TIP3    H241318   1.462   0.267   4.147  0.1719  0.4629  0.0468
 6635TIP3   OH241319   3.819   3.452   5.223  0.7137 -0.2323 -0.3082
 6635TIP3    H141320   3.751   3.433   5.287  0.9393  0.1522  0.0480
 6635TIP3    H241321   3.790   3.531   5.178  0.0002 -1.1371 -1.4744
 6636TIP3   OH241322   1.116   0.555   2.299 -0.6291 -0.0011  0.6964
 6636TIP3    H141323   1.109   0.649   2.282  0.2533 -0.3455 -1.7443
 6636TIP3    H241324   1.034   0.532   2.343 -1.1108  1.7832  0.7523
 6637TIP3   OH241325   3.257   5.211  12.789 -0.4677  0.1815 -0.1832
 6637TIP3    H141326   3.341   5.214  12.835  0.6499 -0.8580 -2.0956
 6637TIP3    H241327   3.192   5.199  12.858  0.9767  0.6874  1.3008
 6638TIP3   OH241328   6.042   6.454  13.886  0.2803 -0.0313 -0.5194
 6638TIP3    H141329   5.983   6.522  13.852 -0.8275 -0.1665  1.0830
 6638TIP3    H241330   6.047   6.472  13.980 -0.6833 -2.6380  0.0695
 6639TIP3   OH241331   0.700   4.623   0.365  0.3521 -0.0958 -0.2518
 6639TIP3    H141332   0.621   4.569   0.362 -0.2782  0.8682 -1.2408
 6639TIP3    H241333   0.678   4.694   0.426 -0.1228  1.0437 -1.7207
 6640TIP3   OH241334   0.930   2.674  15.222 -0.2109  0.0905 -0.0117
 6640TIP3    H141335   0.925   2.580  15.240  0.1794  0.2804  1.1832
 6640TIP3    H241336   0.852   2.710  15.265  0.6975  0.5518  1.2991
 6641TIP3   OH241337   6.181   1.571   3.456 -0.0887  0.6536 -0.4213
 6641TIP3    H141338   6.129   1.497   3.487 -0.4989  1.2090  0.2185
 6641TIP3    H241339   6.271   1.551   3.483 -0.1053  0.1223 -0.7488
 6642TIP3   OH241340   5.872   2.657  10.750  0.4414  0.2630 -0.4496
 6642TIP3    H141341   5.916   2.595  10.807  0.5175  0.6277 -0.1108
 6642TIP3    H241342   5.819   2.603  10.691  2.2807 -0.2635 -1.6727
 6643TIP3   OH241343   2.770   3.566   3.539  0.2902 -0.4682  0.1557
 6643TIP3    H141344   2.778   3.512   3.618  0.4177 -0.8908 -0.1449
 6643TIP3    H241345   2.736   3.650   3.571 -1.6679 -1.3249  0.3968
 6644TIP3   OH241346   4.714   4.048   0.103 -0.0424 -0.1250 -0.0130
 6644TIP3    H141347   4.790   3.993   0.082 -0.6107 -0.8819 -0.1309
 6644TIP3    H241348   4.654   3.989   0.148 -1.0110  0.1806 -0.8702
 6645TIP3   OH241349   5.211   5.336   4.703  0.0437  0.5379 -0.6763
 6645TIP3    H141350   5.118   5.360   4.698 -0.2999 -0.2447  1.2401
 6645TIP3    H241351   5.236   5.358   4.793  1.4403 -0.2478 -0.8558
 6646TIP3   OH241352   3.634   5.569   5.568  0.0966 -0.2206  0.2130
 6646TIP3    H141353   3.581   5.585   5.646  0.2303 -1.4956  0.5762
 6646TIP3    H241354   3.697   5.640   5.567 -1.5342  1.2548 -0.1543
 6647TIP3   OH241355   2.569   0.991  14.761 -0.3052 -0.2898 -0.0773
 6647TIP3    H141356   2.545   0.908  14.804  1.6449 -0.8480 -0.0384
 6647TIP3    H241357   2.538   0.981  14.671  1.5948 -1.8372 -0.5843
 6648TIP3   OH241358   4.344   0.019  13.220 -0.0459 -0.3445  0.2078
 6648TIP3    H141359   4.386   0.025  13.306  1.8217 -0.7061 -0.6673
 6648TIP3    H241360   4.365   0.102  13.177  0.0772 -0.6866 -0.3858
 6649TIP3   OH241361   6.203   3.655  12.103  0.2198  0.1833  0.2162
 6649TIP3    H141362   6.218   3.745  12.132  0.1421  0.4981 -0.7163
 6649TIP3    H241363   6.257   3.602  12.162 -1.8211  0.5899  2.5622
 6650TIP3   OH241364   0.663   5.182  12.501  0.2069  0.4350 -0.6932
 6650TIP3    H141365   0.572   5.177  12.470 -0.2892  0.5985  0.6868
 6650TIP3    H241366   0.692   5.091  12.504  0.1663  0.3968 -1.3392
 6651TIP3   OH241367   4.869   5.832  14.532 -0.1909  0.1275  0.2461
 6651TIP3    H141368   4.926   5.823  14.455 -0.6037  1.5359 -0.2353
 6651TIP3    H241369   4.874   5.925  14.555 -3.3267  0.5361 -0.5851
 6652TIP3   OH241370   0.921   0.172   5.058 -0.5302 -0.1340  0.0089
 6652TIP3    H141371   0.989   0.239   5.069 -1.2737  0.9434 -1.7045
 6652TIP3    H241372   0.899   0.175   4.964 -2.3353 -1.0470  0.3721
 6653TIP3   OH241373   2.682   2.587   5.351  0.8557  0.4997 -0.5266
 6653TIP3    H141374   2.652   2.496   5.354  2.5488 -0.0999 -1.4787
 6653TIP3    H241375   2.601   2.639   5.346 -0.0622 -1.1067 -3.6893
 6654TIP3   OH241376   0.792   0.374   1.744  0.2676 -0.1425  0.0118
 6654TIP3    H141377   0.828   0.321   1.673  0.6220  0.7677 -0.4890
 6654TIP3    H241378   0.869   0.401   1.794  0.0069 -0.9361  0.8662
 6655TIP3   OH241379   5.205   4.917  12.904  0.1404  0.3681  0.0204
 6655TIP3    H141380   5.245   4.993  12.860  1.0784  0.5904  1.2312
 6655TIP3    H241381   5.258   4.843  12.876 -0.2538  0.2761 -0.4905
 6656TIP3   OH241382   0.286   6.721  12.069  0.1006 -0.2923  0.3898
 6656TIP3    H141383   0.281   6.748  11.977  1.2849  0.0354  0.4083
 6656TIP3    H241384   0.235   6.640  12.073 -0.1011 -0.2173 -0.5281
 6657TIP3   OH241385   2.146   6.557   1.608 -0.1715 -0.2236  0.5472
 6657TIP3    H141386   2.059   6.562   1.569  0.3192 -1.3587 -0.7522
 6657TIP3    H241387   2.142   6.481   1.666  0.0965 -0.6437  0.0336
 6658TIP3   OH241388   3.918   5.082   2.144 -0.4119 -0.1863 -0.1713
 6658TIP3    H141389   3.950   5.112   2.229  0.0259 -1.1520  0.0085
 6658TIP3    H241390   3.988   5.106   2.082 -0.1860 -0.5721 -0.0691
 6659TIP3   OH241391   5.695   4.207  13.871  0.3134  0.0365  0.7804
 6659TIP3    H141392   5.682   4.194  13.965 -0.7483  0.5460  0.7146
 6659TIP3    H241393   5.607   4.203  13.834  0.8335 -1.5860 -0.3921
 6660TIP3   OH241394   3.394   6.593   4.946 -0.4202  0.0368 -0.0806
 6660TIP3    H141395   3.382   6.498   4.950  0.4277 -0.0717  0.1735
 6660TIP3    H241396   3.409   6.618   5.037  0.7139  0.2101 -0.3023
 6661TIP3   OH241397   5.876   5.920   5.604  0.0190  0.1534  0.1659
 6661TIP3    H141398   5.804   5.925   5.667  1.1529  1.5647  1.3912
 6661TIP3    H241399   5.836   5.884   5.525 -1.9276  0.5034  0.9573
 6662TIP3   OH241400   4.049   1.705  12.268 -0.4807 -0.0265  0.6756
 6662TIP3    H141401   3.978   1.658  12.312  0.7905  0.5399  3.4592
 6662TIP3    H241402   4.123   1.644  12.272 -0.4981 -0.2010 -1.2670
 6663TIP3   OH241403   3.575   1.071  16.221  0.6770 -0.4976 -0.6175
 6663TIP3    H141404   3.570   1.071  16.125 -1.0803  1.8665 -0.5681
 6663TIP3    H241405   3.615   1.155  16.243  0.8227 -0.9158  0.7384
 6664TIP3   OH241406   4.889   0.645  16.984 -0.4097 -0.2126 -0.0161
 6664TIP3    H141407   4.865   0.609  17.069 -0.4705 -1.1468 -0.4206
 6664TIP3    H241408   4.855   0.734  16.984  1.1535  0.4052  1.6305
 6665TIP3   OH241409   6.428   0.935  11.694 -0.3988  0.1649 -0.4204
 6665TIP3    H141410   6.384   0.851  11.680 -0.6176  0.0238  1.0134
 6665TIP3    H241411   6.503   0.933  11.635  0.6222 -1.8160  0.8933
 6666TIP3   OH241412   1.694   1.772   3.738 -0.0490 -0.2764  0.2528
 6666TIP3    H141413   1.671   1.865   3.740  0.9860 -0.0213  0.6178
 6666TIP3    H241414   1.610   1.726   3.740 -0.5626  0.6526  0.0013
 6667TIP3   OH241415   5.051   0.778  16.657 -0.0220  0.1139  0.3932
 6667TIP3    H141416   5.133   0.736  16.632 -0.5994  0.1656 -1.6509
 6667TIP3    H241417   5.032   0.744  16.744  2.0439 -0.0782  0.7962
 6668TIP3   OH241418   0.054   5.789  16.555  0.1697  0.2117  0.2621
 6668TIP3    H141419  -0.013   5.823  16.495  0.9682  1.9524  0.3358
 6668TIP3    H241420   0.085   5.866  16.602  1.7467 -0.6855  0.7198
 6669TIP3   OH241421   3.223   2.022  11.954  0.2323  0.0265  0.1220
 6669TIP3    H141422   3.267   2.058  11.876  0.0198  1.1176  0.5012
 6669TIP3    H241423   3.142   1.984  11.920  0.5485 -0.2762 -0.3108
 6670TIP3   OH241424   1.222   0.645   5.398 -0.8258  0.3865  0.3324
 6670TIP3    H141425   1.184   0.733   5.400 -1.3601  0.1826 -0.6187
 6670TIP3    H241426   1.234   0.622   5.490 -2.6058  0.6168  0.6362
 6671TIP3   OH241427   1.325   5.298   0.600 -0.2854  0.3010 -0.8364
 6671TIP3    H141428   1.246   5.295   0.545  0.9161  0.4753 -2.6340
 6671TIP3    H241429   1.356   5.207   0.599 -1.5326 -0.1818  1.5223
 6672TIP3   OH241430   2.194   3.432  11.133 -0.0992 -0.4558  0.0039
 6672TIP3    H141431   2.107   3.393  11.139  0.1679 -1.2953 -1.2322
 6672TIP3    H241432   2.179   3.522  11.105 -0.5384 -0.9085 -1.2688
 6673TIP3   OH241433   5.081   6.348   2.603  0.4805 -0.5088  0.1130
 6673TIP3    H141434   5.017   6.420   2.596  1.1047  0.0527  0.1261
 6673TIP3    H241435   5.157   6.388   2.645  1.7601 -0.5572 -2.0405
 6674TIP3   OH241436   4.905   3.276   5.293  0.5503  0.4998  0.0977
 6674TIP3    H141437   4.878   3.238   5.376 -0.0450  0.2277 -0.2211
 6674TIP3    H241438   4.850   3.353   5.283 -0.8694 -0.6416 -1.0635
 6675TIP3   OH241439   4.825   1.469   3.504  0.3596  0.6736 -0.0953
 6675TIP3    H141440   4.817   1.382   3.465  3.3789 -0.6554  2.0010
 6675TIP3    H241441   4.737   1.490   3.533 -0.0064 -2.8817  1.6659
 6676TIP3   OH241442   5.535   6.344   4.066 -0.5947  0.2555 -0.0312
 6676TIP3    H141443   5.543   6.263   4.017 -1.3978 -0.2484  0.6542
 6676TIP3    H241444   5.622   6.383   4.063 -0.3525 -0.3458 -0.8561
 6677TIP3   OH241445   5.939   2.923  11.684  0.3338  0.5321  0.1374
 6677TIP3    H141446   5.856   2.899  11.726 -0.4164  2.4088 -0.2151
 6677TIP3    H241447   5.939   2.875  11.601  0.4834 -0.9294  0.9584
 6678TIP3   OH241448   2.261   4.205  14.344  0.2240 -0.1946 -0.2705
 6678TIP3    H141449   2.260   4.267  14.417 -1.6871  1.2148 -1.4502
 6678TIP3    H241450   2.209   4.131  14.375  0.6296 -0.2374  0.3187
 6679TIP3   OH241451   0.602   0.490  14.132  0.6039  0.3648  0.0291
 6679TIP3    H141452   0.629   0.422  14.193  0.6312 -0.3256 -0.7401
 6679TIP3    H241453   0.657   0.476  14.054  0.0964  0.8014 -0.4186
 6680TIP3   OH241454   5.069   0.181   5.324  0.1445  0.0207 -0.3893
 6680TIP3    H141455   5.028   0.106   5.282 -1.3696  0.4526  0.2948
 6680TIP3    H241456   5.000   0.218   5.379  1.1532  1.3724 -0.0261
 6681TIP3   OH241457   0.547   5.443   0.895  0.4877  0.4037  0.2032
 6681TIP3    H141458   0.519   5.357   0.863  2.2107 -1.1877  2.7387
 6681TIP3    H241459   0.466   5.494   0.901 -0.3629 -0.4310 -2.8921
 6682TIP3   OH241460   6.681   6.340  17.077  0.0786 -0.0535 -0.2236
 6682TIP3    H141461   6.596   6.367  17.113 -0.0109 -0.8638  0.1878
 6682TIP3    H241462   6.659   6.296  16.995  0.2312  1.1845 -0.9367
 6683TIP3   OH241463   5.169   1.084  15.216 -0.3286 -0.3276  0.2001
 6683TIP3    H141464   5.173   1.051  15.127 -0.4761 -1.7709  0.7218
 6683TIP3    H241465   5.075   1.097  15.233 -0.1820  1.8308 -0.5230
 6684TIP3   OH241466   3.403   5.057   3.723  0.2937 -0.5016 -0.1914
 6684TIP3    H141467   3.328   5.043   3.781  0.4538 -0.6271 -0.0161
 6684TIP3    H241468   3.377   5.018   3.639 -0.5662  1.0628 -0.6749
 6685TIP3   OH241469   0.597   3.735  12.085  0.0910 -0.0710 -0.1040
 6685TIP3    H141470   0.669   3.772  12.137 -1.1587  0.1375  1.5200
 6685TIP3    H241471   0.519   3.782  12.115 -0.8655 -0.9431 -1.1835
 6686TIP3   OH241472   1.539   4.293  11.623 -0.3518 -0.1677  0.2372
 6686TIP3    H141473   1.481   4.368  11.638  1.2944  0.8891  1.5697
 6686TIP3    H241474   1.582   4.313  11.540  1.5928  1.4354  1.5710
 6687TIP3   OH241475   1.960   6.039  16.110  0.2195 -0.2543 -0.3230
 6687TIP3    H141476   1.967   5.949  16.144  1.0043 -0.1354 -0.1572
 6687TIP3    H241477   1.917   6.029  16.025 -1.0961 -0.6267  0.3733
 6688TIP3   OH241478   1.331   6.411  13.142 -0.3726 -0.2251 -0.4701
 6688TIP3    H141479   1.399   6.391  13.206 -0.5244 -2.1192 -0.8477
 6688TIP3    H241480   1.365   6.375  13.060 -1.0701  0.3692 -1.0166
 6689TIP3   OH241481   6.243   1.631   1.828  0.3636 -0.2801 -0.2416
 6689TIP3    H141482   6.197   1.702   1.782 -1.6228 -0.8490  0.7819
 6689TIP3    H241483   6.228   1.554   1.773  2.2690  0.0129 -1.2015
 6690TIP3   OH241484   0.053   1.427   3.843  0.7270 -0.2567  0.6050
 6690TIP3    H141485   0.093   1.340   3.849 -0.3068 -0.5989  3.0239
 6690TIP3    H241486   0.086   1.474   3.920  1.2606  1.5076 -0.6689
 6691TIP3   OH241487   1.249   2.601   2.284 -0.3008 -0.3485 -0.4184
 6691TIP3    H141488   1.266   2.544   2.208  0.4583  0.2574 -0.7134
 6691TIP3    H241489   1.204   2.677   2.248 -0.6882 -0.4408 -0.1304
 6692TIP3   OH241490   4.676   5.201   0.833  0.1391 -0.4430  0.1906
 6692TIP3    H141491   4.722   5.118   0.847  0.5384 -0.9898 -3.8586
 6692TIP3    H241492   4.589   5.176   0.803  0.2922  0.5543 -1.1570
 6693TIP3   OH241493   1.145   3.974  15.431 -0.0211 -0.5197  0.0796
 6693TIP3    H141494   1.121   3.899  15.486  0.9960 -0.4820  0.5715
 6693TIP3    H241495   1.226   3.948  15.387 -0.4592 -0.2846 -0.8876
 6694TIP3   OH241496   0.895   4.789  14.091  0.1436  0.3159  0.3880
 6694TIP3    H141497   0.881   4.711  14.038  3.1642  1.3064 -2.0558
 6694TIP3    H241498   0.823   4.848  14.068  0.2750 -0.0858 -1.0541
 6695TIP3   OH241499   1.077   2.417  16.564  0.2151  0.1716 -0.0009
 6695TIP3    H141500   1.129   2.337  16.576 -0.6143 -0.2397  0.9643
 6695TIP3    H241501   1.065   2.451  16.653 -0.6530  0.5841 -0.2685
 6696TIP3   OH241502   5.077   0.264  11.578  0.2009  0.3567 -0.2212
 6696TIP3    H141503   5.127   0.332  11.624 -0.0302  0.3139  0.0950
 6696TIP3    H241504   5.142   0.202  11.547  0.3143  0.1155  0.4980
 6697TIP3   OH241505   4.044   4.584  11.932  0.0119 -0.2889  0.0263
 6697TIP3    H141506   4.115   4.561  11.873 -0.5060  0.3537 -0.8530
 6697TIP3    H241507   4.023   4.502  11.978  2.0995 -0.2414  1.1630
 6698TIP3   OH241508   1.174   5.546   6.017  0.5473 -0.6000  0.0363
 6698TIP3    H141509   1.151   5.529   6.108  0.7655  1.3339  0.4791
 6698TIP3    H241510   1.098   5.592   5.981  0.5155 -1.2347 -0.7201
 6699TIP3   OH241511   2.830   5.089  13.570  0.9008  0.5333  0.2778
 6699TIP3    H141512   2.740   5.099  13.539  0.9137 -0.6002 -0.1496
 6699TIP3    H241513   2.824   5.099  13.665  0.2920  0.2968  0.2666
 6700TIP3   OH241514   1.652   2.407  11.448 -0.0802 -0.6463 -0.5664
 6700TIP3    H141515   1.689   2.496  11.456  0.8308 -0.9207 -1.5540
 6700TIP3    H241516   1.591   2.400  11.521 -0.8865  1.1507 -1.0396
 6701TIP3   OH241517   0.697   1.942  16.760  0.6917 -0.5427 -0.2049
 6701TIP3    H141518   0.698   2.033  16.728  2.5746 -0.3568  0.3068
 6701TIP3    H241519   0.745   1.946  16.843  0.4309 -1.9442  0.0233
 6702TIP3   OH241520   5.924   1.810  14.502 -0.3240  0.1543 -0.2513
 6702TIP3    H141521   5.968   1.839  14.582 -0.6518 -0.9642  0.3419
 6702TIP3    H241522   5.996   1.795  14.440 -0.2264  3.4777 -1.0144
 6703TIP3   OH241523   1.377   1.665   1.412  0.5317 -0.8761 -0.3219
 6703TIP3    H141524   1.372   1.696   1.322  1.8540 -0.9075 -0.4265
 6703TIP3    H241525   1.353   1.572   1.407 -1.1372 -0.4526 -0.3587
 6704TIP3   OH241526   4.343   6.653  15.469  0.0843  0.2031 -0.8175
 6704TIP3    H141527   4.401   6.711  15.420  1.5747  0.7657  1.5606
 6704TIP3    H241528   4.330   6.578  15.411  2.4855  0.4568 -1.7498
 6705TIP3   OH241529   5.781   0.099   1.552  0.6234  0.0719 -0.1124
 6705TIP3    H141530   5.777   0.066   1.462  0.5207  0.5818 -0.2990
 6705TIP3    H241531   5.846   0.169   1.549  0.8556 -0.1328  0.2819
 6706TIP3   OH241532   2.083   6.052  14.853 -0.0741 -0.2570 -0.0592
 6706TIP3    H141533   2.130   6.133  14.870  1.4100 -1.1582  0.2967
 6706TIP3    H241534   2.082   6.006  14.937 -0.3576 -0.8737 -0.3950
 6707TIP3   OH241535   0.926   0.975  11.248  1.0797 -0.0835 -0.0438
 6707TIP3    H141536   0.843   0.996  11.206  0.8710  0.9633  0.8830
 6707TIP3    H241537   0.948   1.052  11.299  2.7867 -0.2353 -0.5226
 6708TIP3   OH241538   5.620   6.664  14.387  0.4221  0.6715  0.6712
 6708TIP3    H141539   5.651   6.748  14.419  1.0544  0.2883  1.0705
 6708TIP3    H241540   5.699   6.615  14.366  0.0189  0.7867 -1.1755
 6709TIP3   OH241541   2.748   4.486  17.093  0.7326  0.1438 -0.5970
 6709TIP3    H141542   2.843   4.493  17.101  0.6387  0.6363  0.1990
 6709TIP3    H241543   2.722   4.428  17.165  0.4410 -0.0804 -0.8821
 6710TIP3   OH241544   2.890   0.406  16.792  0.4237  0.0150 -0.5366
 6710TIP3    H141545   2.826   0.477  16.799 -0.3763 -0.9275  2.1655
 6710TIP3    H241546   2.971   0.450  16.766 -0.0738  1.9529  1.0592
 6711TIP3   OH241547   5.616   3.778   2.195 -0.5480 -0.2339  0.5610
 6711TIP3    H141548   5.605   3.824   2.278 -0.5967  1.4603 -0.3657
 6711TIP3    H241549   5.710   3.762   2.188 -0.5791 -0.6571  1.0784
 6712TIP3   OH241550   1.680   0.508  16.945 -0.4357  0.3310 -1.1379
 6712TIP3    H141551   1.648   0.421  16.968  3.4547 -1.3060 -1.4022
 6712TIP3    H241552   1.714   0.498  16.857  1.4064  1.7049 -0.6159
 6713TIP3   OH241553   4.058   0.963   2.652  0.0377 -0.8883  0.6278
 6713TIP3    H141554   4.126   1.017   2.691  0.7736 -1.2234 -0.1682
 6713TIP3    H241555   4.101   0.879   2.633 -0.1317 -0.5532 -1.3910
 6714TIP3   OH241556   1.065   6.498  15.322  0.4019  0.2507  0.6015
 6714TIP3    H141557   0.993   6.542  15.366 -0.4135 -1.6954  1.2729
 6714TIP3    H241558   1.037   6.493  15.230 -0.1097 -0.0899  0.7754
 6715TIP3   OH241559   3.351   4.865  16.619  0.1068  0.5099 -0.2736
 6715TIP3    H141560   3.352   4.960  16.607  0.2672  0.5862  0.3555
 6715TIP3    H241561   3.261   4.839  16.601 -0.3169  0.9864  1.1316
 6716TIP3   OH241562   6.252   4.110   2.026  0.5139  0.2242 -0.3278
 6716TIP3    H141563   6.165   4.084   1.998  0.6598 -0.3685 -0.2358
 6716TIP3    H241564   6.251   4.205   2.023 -0.6742  0.2728  1.3500
 6717TIP3   OH241565   4.110   2.174   1.722 -0.0999  0.0589 -0.6315
 6717TIP3    H141566   4.159   2.137   1.648 -0.2121 -0.8098 -0.2823
 6717TIP3    H241567   4.177   2.201   1.784 -0.0480 -1.3452 -0.0507
 6718TIP3   OH241568   6.457   2.924  16.245 -0.2226  0.2185  0.4178
 6718TIP3    H141569   6.502   3.004  16.218  0.4794 -0.1962  0.3194
 6718TIP3    H241570   6.515   2.854  16.214  0.5567 -0.2812  2.8707
 6719TIP3   OH241571   2.165   2.183   4.953 -0.0548  0.1782 -0.1508
 6719TIP3    H141572   2.252   2.143   4.944 -1.2747 -3.0497  1.6215
 6719TIP3    H241573   2.113   2.144   4.883 -0.6641  0.4366  0.1544
 6720TIP3   OH241574   2.089   5.191   0.011 -0.4672 -0.6242 -0.0877
 6720TIP3    H141575   2.007   5.239  -0.003 -0.0492  0.0383 -0.2746
 6720TIP3    H241576   2.156   5.258   0.014  0.0373 -1.1415  0.4044
 6721TIP3   OH241577   1.604   4.491  12.391  0.8801  0.0691 -0.4421
 6721TIP3    H141578   1.690   4.468  12.357  0.1885  1.1703 -3.0201
 6721TIP3    H241579   1.554   4.410  12.389  1.6391 -0.4215  0.4139
 6722TIP3   OH241580   5.132   1.279   5.519  0.2878  0.0300  0.2216
 6722TIP3    H141581   5.139   1.185   5.503  1.4909  0.3748 -1.4083
 6722TIP3    H241582   5.203   1.297   5.582 -2.5537 -0.8107  3.8550
 6723TIP3   OH241583   2.981   1.677   4.706 -0.8170  0.0740 -0.3940
 6723TIP3    H141584   2.921   1.745   4.676  1.6672  2.8678  0.7653
 6723TIP3    H241585   2.952   1.657   4.795 -1.6188 -0.4747 -0.7766
 6724TIP3   OH241586   1.576   0.439   5.068 -0.2405 -0.5320 -0.0013
 6724TIP3    H141587   1.507   0.412   5.128 -1.4134  0.6720 -0.7848
 6724TIP3    H241588   1.562   0.533   5.054  0.4284 -0.6392 -1.5925
 6725TIP3   OH241589   6.639   5.672   0.784 -0.1838  0.1210 -0.0006
 6725TIP3    H141590   6.585   5.593   0.777  0.7522 -0.8080  2.6498
 6725TIP3    H241591   6.590   5.739   0.736 -1.0276 -2.0272 -2.2385
 6726TIP3   OH241592   1.829   6.736   3.233 -0.0213 -0.2186  0.1977
 6726TIP3    H141593   1.856   6.814   3.184  1.4254 -1.6330 -1.3150
 6726TIP3    H241594   1.909   6.707   3.278 -0.1657 -1.6821 -0.4644
 6727TIP3   OH241595   5.803   0.121  13.130  0.5872  0.0344  0.4618
 6727TIP3    H141596   5.729   0.171  13.166 -0.9024  2.3807 -5.2109
 6727TIP3    H241597   5.775   0.030  13.134 -2.3129  0.8101 -0.6428
 6728TIP3   OH241598   5.071   4.520  17.231 -0.1919  0.4462  0.4970
 6728TIP3    H141599   4.995   4.467  17.254 -0.6134  0.0207 -1.7319
 6728TIP3    H241600   5.138   4.456  17.208 -0.3856  0.8343 -1.2288
 6729TIP3   OH241601   6.170   0.793  11.835  0.2941 -0.5035  0.5015
 6729TIP3    H141602   6.233   0.721  11.830 -0.0826 -0.7298 -1.6938
 6729TIP3    H241603   6.118   0.784  11.755 -2.5019 -0.2785  2.2558
 6730TIP3   OH241604   3.639   3.068  13.962  0.1355 -0.1439  0.0843
 6730TIP3    H141605   3.568   3.132  13.966  0.7883  0.6868 -1.1713
 6730TIP3    H241606   3.595   2.984  13.946 -0.5193  0.5216 -1.7665
 6731TIP3   OH241607   2.575   2.343   5.308 -0.2538  0.2818 -0.7036
 6731TIP3    H141608   2.481   2.360   5.305 -0.4215 -0.6070 -0.5925
 6731TIP3    H241609   2.588   2.286   5.383  0.5482  1.3938  0.0189
 6732TIP3   OH241610   5.586   2.415  14.156  0.0601  0.1311 -0.2079
 6732TIP3    H141611   5.531   2.493  14.164  1.3670  1.1917 -1.2863
 6732TIP3    H241612   5.549   2.369  14.080 -0.6315 -0.2381  0.3479
 6733TIP3   OH241613   4.152   6.158  10.767 -0.4389  0.9970 -0.4846
 6733TIP3    H141614   4.235   6.194  10.800  0.6645 -1.0967 -0.9466
 6733TIP3    H241615   4.137   6.204  10.685  0.6772  0.8022 -0.8008
 6734TIP3   OH241616   3.827   3.347  13.000 -0.1548  0.2408 -0.0190
 6734TIP3    H141617   3.814   3.431  13.045 -1.7946  0.4799 -0.9258
 6734TIP3    H241618   3.755   3.292  13.031 -1.8093  0.6709 -2.9559
 6735TIP3   OH241619   2.048   4.931   4.267  0.3372 -0.3486  0.3823
 6735TIP3    H141620   2.019   5.021   4.251  0.0483 -0.4917  0.0738
 6735TIP3    H241621   2.009   4.908   4.351 -0.4879 -0.5440 -0.0378
 6736TIP3   OH241622   3.317   0.543  11.262 -0.4410 -0.0723  0.4782
 6736TIP3    H141623   3.363   0.490  11.328 -1.7297 -1.0389  0.6035
 6736TIP3    H241624   3.364   0.526  11.181  0.3653  0.1344  0.8862
 6737TIP3   OH241625   3.356   3.352   5.148 -0.3279 -0.3130  0.0099
 6737TIP3    H141626   3.263   3.332   5.159 -0.6393 -0.3523 -2.4976
 6737TIP3    H241627   3.363   3.446   5.167 -1.2851  0.1792 -1.9639
 6738TIP3   OH241628   6.140   2.335  13.374  0.1081  0.2730 -0.4758
 6738TIP3    H141629   6.182   2.257  13.339  1.7706  0.0813  1.8357
 6738TIP3    H241630   6.061   2.346  13.320 -0.1010 -2.9056 -0.9075
 6739TIP3   OH241631   3.431   0.321   5.854  0.4956 -0.2639 -0.0195
 6739TIP3    H141632   3.361   0.284   5.801  1.1006  0.8389 -1.6201
 6739TIP3    H241633   3.407   0.300   5.944 -0.9061 -1.5430 -0.6842
 6740TIP3   OH241634   5.483   2.617  15.025  0.1169 -0.0163 -0.1387
 6740TIP3    H141635   5.439   2.697  14.995 -1.1067 -0.9347 -0.8420
 6740TIP3    H241636   5.439   2.546  14.977  0.5735 -1.1838  1.1408
 6741TIP3   OH241637   5.403   4.514  12.640  0.3299 -0.5369 -0.3733
 6741TIP3    H141638   5.383   4.466  12.721  1.3400  1.8721  1.3741
 6741TIP3    H241639   5.325   4.567  12.624  0.7634  0.2293 -0.0107
 6742TIP3   OH241640   3.396   0.976   3.557 -0.0480 -0.0512 -0.0983
 6742TIP3    H141641   3.424   1.060   3.521  0.4200  0.3525  1.1836
 6742TIP3    H241642   3.313   0.996   3.601 -0.6433 -0.5516 -0.9718
 6743TIP3   OH241643   4.438   6.736  16.530  0.2620 -0.4822  0.2359
 6743TIP3    H141644   4.516   6.769  16.574 -0.1469  0.8233 -0.0043
 6743TIP3    H241645   4.399   6.812  16.488  0.6055 -1.6827 -2.3810
 6744TIP3   OH241646   6.477   4.518   1.424 -0.3173  0.1281 -0.6373
 6744TIP3    H141647   6.560   4.514   1.471  0.3128  0.5833 -1.7025
 6744TIP3    H241648   6.472   4.435   1.376 -0.7297 -0.1218 -0.1760
 6745TIP3   OH241649   4.731   6.372  11.250  0.7354 -0.2179  0.2530
 6745TIP3    H141650   4.781   6.293  11.233  1.3718  0.3229 -0.4287
 6745TIP3    H241651   4.797   6.440  11.262  0.2002  0.1794  1.0006
 6746TIP3   OH241652   1.220   4.218  11.833 -0.4342  0.0532  0.1727
 6746TIP3    H141653   1.226   4.302  11.878  1.6380 -0.8181  1.6002
 6746TIP3    H241654   1.195   4.156  11.902 -0.0501 -0.8205 -0.4614
 6747TIP3   OH241655   0.216   6.384  11.874 -0.1352  0.2171  0.0389
 6747TIP3    H141656   0.257   6.310  11.829  0.8960  0.1370  1.0719
 6747TIP3    H241657   0.129   6.352  11.898 -0.3308 -0.0695 -1.0266
 6748TIP3   OH241658   6.169   0.917  14.041 -0.0809  0.4505  0.0619
 6748TIP3    H141659   6.120   0.988  14.001 -0.5890  1.5248  2.5125
 6748TIP3    H241660   6.255   0.919  13.998 -0.8922  0.9644 -1.5708
 6749TIP3   OH241661   0.232   0.836   1.998 -0.0130 -0.2680  0.2551
 6749TIP3    H141662   0.182   0.768   2.042 -0.2535  0.6021  1.3375
 6749TIP3    H241663   0.226   0.913   2.055 -0.4524  0.9252 -1.3457
 6750TIP3   OH241664   1.784   3.075  14.421 -0.3044 -0.2427 -0.1307
 6750TIP3    H141665   1.832   3.158  14.426  0.8996 -0.9201 -0.3670
 6750TIP3    H241666   1.826   3.019  14.486 -1.1839 -0.6433  0.1026
 6751TIP3   OH241667   6.572   2.349   5.650  0.3537  0.0914  0.3838
 6751TIP3    H141668   6.530   2.411   5.710  0.6478  1.3019 -0.6427
 6751TIP3    H241669   6.642   2.310   5.702 -0.3516  0.0084  1.2931
 6752TIP3   OH241670   5.501   0.551  15.468  0.0468  0.7319  0.3088
 6752TIP3    H141671   5.494   0.457  15.455  0.7911  0.7962 -0.5764
 6752TIP3    H241672   5.591   0.565  15.500  0.1432  1.2082 -0.1688
 6753TIP3   OH241673   0.066   3.030   4.230  0.4174 -0.1144  0.2439
 6753TIP3    H141674  -0.004   3.092   4.211  0.3505 -0.7051 -1.5363
 6753TIP3    H241675   0.077   3.034   4.325 -0.3395  1.7979  0.2681
 6754TIP3   OH241676   2.519   3.980   5.630 -0.6117  0.2725  0.7327
 6754TIP3    H141677   2.428   4.010   5.635 -0.9632 -0.7336  0.3034
 6754TIP3    H241678   2.515   3.898   5.581  0.6054  0.5524  0.1535
 6755TIP3   OH241679   2.025   3.193   0.805  0.1003 -0.0952  0.3823
 6755TIP3    H141680   1.991   3.236   0.727  1.7285 -0.3570 -0.4943
 6755TIP3    H241681   1.978   3.234   0.878  0.6086  2.1336 -0.5293
 6756TIP3   OH241682   3.661   0.747   5.424  0.6550 -0.1119  0.0389
 6756TIP3    H141683   3.685   0.810   5.492 -0.6982  0.5768 -0.1111
 6756TIP3    H241684   3.694   0.786   5.343  2.7354 -1.1796  0.3201
 6757TIP3   OH241685   3.963   0.822  11.324  0.0162 -0.1845  0.3154
 6757TIP3    H141686   3.992   0.889  11.262 -0.7162 -0.6792 -0.5815
 6757TIP3    H241687   3.977   0.739  11.278 -0.4557 -0.5589  0.8437
 6758TIP3   OH241688   6.523   5.554  16.562  0.1772  0.1391  0.0472
 6758TIP3    H141689   6.610   5.531  16.528  0.3295  1.4988 -0.4687
 6758TIP3    H241690   6.536   5.558  16.657 -0.1277 -3.0945  0.2835
 6759TIP3   OH241691   3.149   0.344  13.184 -0.3129 -0.3278 -0.3169
 6759TIP3    H141692   3.242   0.339  13.208 -0.4918 -0.7895  0.2869
 6759TIP3    H241693   3.126   0.254  13.161 -0.8139 -0.3552  0.2858
 6760TIP3   OH241694   5.561   0.662  17.015 -0.3167 -0.2247 -0.2382
 6760TIP3    H141695   5.484   0.716  17.034  0.4007  1.2952 -1.6427
 6760TIP3    H241696   5.539   0.577  17.054 -2.7617  0.1407 -0.6937
 6761TIP3   OH241697   0.372   2.880  11.593 -0.0100  0.9808 -0.2315
 6761TIP3    H141698   0.345   2.835  11.673 -1.0044 -1.2282 -1.7605
 6761TIP3    H241699   0.298   2.935  11.569 -0.8461 -0.5384 -1.1770
 6762TIP3   OH241700   1.362   0.485  15.875  0.0868  0.0496  0.0628
 6762TIP3    H141701   1.429   0.482  15.807  0.3064  0.3580  0.2668
 6762TIP3    H241702   1.336   0.577  15.880  1.1444  0.2922  1.4320
 6763TIP3   OH241703   4.531   1.693  11.839 -0.2934 -0.3090 -0.6672
 6763TIP3    H141704   4.567   1.716  11.924  2.4505 -1.2362 -1.5212
 6763TIP3    H241705   4.471   1.765  11.818 -0.1163  0.5093  1.4959
 6764TIP3   OH241706   0.625   0.042  15.491 -0.0053 -0.6020  0.4597
 6764TIP3    H141707   0.634   0.017  15.399  1.4893  2.0054 -0.1412
 6764TIP3    H241708   0.536   0.074  15.499  0.6964  1.7506 -0.7742
 6765TIP3   OH241709   1.659   1.785  12.868 -0.3924 -0.0120 -0.5317
 6765TIP3    H141710   1.695   1.696  12.865  1.0397  0.4818  0.9537
 6765TIP3    H241711   1.662   1.815  12.778 -1.5025 -1.6964 -1.1515
 6766TIP3   OH241712   3.430   0.768  11.712 -0.7035 -0.6118 -0.0952
 6766TIP3    H141713   3.392   0.687  11.679 -3.0129  1.0988 -1.7620
 6766TIP3    H241714   3.511   0.779  11.661 -0.9518 -1.2893 -0.6461
 6767TIP3   OH241715   3.577   1.497  11.745  0.1263 -0.2485 -0.1665
 6767TIP3    H141716   3.544   1.472  11.831  2.8727 -0.6986  0.7943
 6767TIP3    H241717   3.553   1.424  11.688 -0.7432 -0.4513  0.4425
 6768TIP3   OH241718   3.918   3.622  12.634  0.0142 -0.5985  0.5389
 6768TIP3    H141719   3.832   3.639  12.597 -0.2189 -1.0043  0.8876
 6768TIP3    H241720   3.916   3.529  12.657  0.6705 -0.6915  0.2134
 6769TIP3   OH241721   1.097   6.661   1.069 -0.2504 -0.2600 -0.0129
 6769TIP3    H141722   1.079   6.737   1.012  0.6726 -0.6799 -0.8830
 6769TIP3    H241723   1.192   6.661   1.080 -0.3597 -0.5924  0.9829
 6770TIP3   OH241724   0.676   1.780  13.784 -0.3254  0.3751 -0.0539
 6770TIP3    H141725   0.731   1.799  13.708  0.2012  0.5659  0.3716
 6770TIP3    H241726   0.652   1.866  13.818  0.4232  0.2891  0.7022
 6771TIP3   OH241727   0.500   6.631  12.312 -0.1211 -0.3084 -0.4461
 6771TIP3    H141728   0.532   6.549  12.275  1.4750  0.4855 -0.8748
 6771TIP3    H241729   0.551   6.644  12.391 -0.5101  0.1626 -0.2704
 6772TIP3   OH241730   5.347   3.578   5.186  0.2748 -0.1062 -0.4921
 6772TIP3    H141731   5.276   3.558   5.247  0.6043  0.8480  0.2246
 6772TIP3    H241732   5.324   3.531   5.106 -1.9165  1.3485 -0.7621
 6773TIP3   OH241733   3.414   0.021   3.355 -0.1620 -0.1065  0.0030
 6773TIP3    H141734   3.354   0.057   3.420 -3.6625 -0.4972 -2.8721
 6773TIP3    H241735   3.372  -0.059   3.325  2.6997 -1.3378 -0.8753
 6774TIP3   OH241736   2.174   5.467   1.515  0.0564  0.0946 -1.1073
 6774TIP3    H141737   2.104   5.413   1.480  0.7759 -0.9339 -1.0009
 6774TIP3    H241738   2.249   5.407   1.521  0.3138  0.5981  0.8943
 6775TIP3   OH241739   4.361   5.180  14.514  0.4098 -0.1126  0.6479
 6775TIP3    H141740   4.431   5.115  14.508  0.0764 -0.3281 -1.1819
 6775TIP3    H241741   4.388   5.251  14.456 -0.0386  0.6271  1.3245
 6776TIP3   OH241742   1.882   6.305  16.401  0.3325 -0.4340 -0.1632
 6776TIP3    H141743   1.800   6.324  16.448  0.4362  0.5023 -0.3368
 6776TIP3    H241744   1.868   6.219  16.363  1.0039 -2.1170  3.2106
 6777TIP3   OH241745   5.024   1.600  11.196  0.2157 -0.1794  0.0868
 6777TIP3    H141746   5.010   1.602  11.102 -2.4793 -0.8484  0.4486
 6777TIP3    H241747   4.948   1.645  11.233  1.1825 -0.0215  1.9530
 6778TIP3   OH241748   6.146   3.814  15.477 -0.3150 -0.2815 -0.4563
 6778TIP3    H141749   6.095   3.742  15.440 -0.4018  0.1124 -1.1032
 6778TIP3    H241750   6.187   3.856  15.402  2.1906 -1.5008  0.1716
 6779TIP3   OH241751   3.665   3.069  11.669 -0.8729  0.0282 -0.1202
 6779TIP3    H141752   3.638   3.102  11.583 -4.2581 -1.7239  0.1994
 6779TIP3    H241753   3.608   3.114  11.731  0.7768  0.4255  1.1343
 6780TIP3   OH241754   3.756   6.598  12.917  0.2005  0.1960 -0.2529
 6780TIP3    H141755   3.733   6.680  12.959  0.3945  0.0996  0.0427
 6780TIP3    H241756   3.714   6.530  12.970  0.1824  0.0922 -0.3970
 6781TIP3   OH241757   4.908   0.564  13.317  0.4432  0.0672  0.2184
 6781TIP3    H141758   4.852   0.548  13.241  1.0409  1.3524 -0.5056
 6781TIP3    H241759   4.996   0.537  13.288  0.8328  1.3991  0.1401
 6782TIP3   OH241760   4.980   2.927  11.227  0.1380  0.0246 -0.0750
 6782TIP3    H141761   4.898   2.895  11.189  0.8355 -1.7448 -0.1709
 6782TIP3    H241762   5.046   2.866  11.194  1.5059  1.4931 -0.0741
 6783TIP3   OH241763   4.287   6.394  10.304 -0.2501  0.1483  0.3561
 6783TIP3    H141764   4.241   6.313  10.283  1.5463 -0.7013 -0.4441
 6783TIP3    H241765   4.331   6.376  10.387  1.0897 -0.1153 -0.4005
 6784TIP3   OH241766   1.641   2.542   1.877 -0.0492  0.4791 -0.4811
 6784TIP3    H141767   1.655   2.466   1.934 -2.8179  0.2478  0.0036
 6784TIP3    H241768   1.667   2.617   1.931  1.2533 -0.0069 -0.4157
 6785TIP3   OH241769   0.578   0.142  16.178 -0.1854  0.1338  0.1594
 6785TIP3    H141770   0.530   0.134  16.260  1.0649  0.0942  0.9009
 6785TIP3    H241771   0.582   0.052  16.144 -0.4035  0.0999  0.2198
 6786TIP3   OH241772   1.609   1.165  14.272  0.1340  0.5265  0.9451
 6786TIP3    H141773   1.698   1.176  14.307  0.9287  2.7649 -1.5521
 6786TIP3    H241774   1.575   1.254  14.263 -1.4005 -0.1642 -0.4419
 6787TIP3   OH241775   2.387   6.286   5.863 -0.2837  0.3304 -0.5616
 6787TIP3    H141776   2.340   6.320   5.940  1.0622  0.7781  0.0706
 6787TIP3    H241777   2.344   6.202   5.845 -2.6154  1.6014 -1.1891
 6788TIP3   OH241778   5.383   3.083  12.708  0.5360 -0.1653  0.0085
 6788TIP3    H141779   5.355   3.164  12.751  1.1005  0.3978 -0.6846
 6788TIP3    H241780   5.302   3.048  12.670  0.8734  2.0164 -2.9111
 6789TIP3   OH241781   2.432   6.603   4.058  0.1781 -0.3313 -0.3324
 6789TIP3    H141782   2.446   6.526   4.004 -0.5549  0.1641 -1.2395
 6789TIP3    H241783   2.418   6.674   3.996  0.6219  0.4890  0.4981
 6790TIP3   OH241784   5.861   6.277  16.299 -0.2315  0.5925  0.2904
 6790TIP3    H141785   5.779   6.264  16.347 -0.0217 -2.3509 -0.0784
 6790TIP3    H241786   5.922   6.311  16.365 -1.0530  0.4391  1.1381
 6791TIP3   OH241787   5.339   6.208  14.663  0.4068 -0.1499  0.0797
 6791TIP3    H141788   5.334   6.298  14.629  2.2302 -0.8395 -2.1089
 6791TIP3    H241789   5.316   6.153  14.588 -0.7827 -1.5320  1.4228
 6792TIP3   OH241790   2.867   6.365  11.254 -0.1279  0.7711  0.1708
 6792TIP3    H141791   2.924   6.435  11.285  0.2659  0.7676 -0.5321
 6792TIP3    H241792   2.796   6.410  11.207  1.1185  0.6300 -1.8967
 6793TIP3   OH241793   1.111   4.815  12.630  0.0576  0.2808 -0.0199
 6793TIP3    H141794   1.154   4.733  12.651  2.7648  1.6621  0.0391
 6793TIP3    H241795   1.111   4.864  12.713 -1.4414  0.4122 -0.0781
 6794TIP3   OH241796   5.249   1.922   0.854  0.4578  0.3015  0.3660
 6794TIP3    H141797   5.269   1.923   0.760  1.6540  4.1037  0.6009
 6794TIP3    H241798   5.162   1.962   0.860  0.6572  0.6483  0.9347
 6795TIP3   OH241799   0.043   6.492   5.959 -0.2034  0.0344  0.0185
 6795TIP3    H141800   0.129   6.470   5.923  0.3324  2.7330 -0.4265
 6795TIP3    H241801   0.063   6.544   6.038 -1.4152  0.1315  0.2695
 6796TIP3   OH241802   0.589   2.007   0.746 -0.9749 -0.2992  0.4600
 6796TIP3    H141803   0.676   2.045   0.759 -0.4426 -1.7632  1.3295
 6796TIP3    H241804   0.585   1.987   0.652 -0.6357  0.4006  0.2975
 6797TIP3   OH241805   4.078   2.986  15.711 -0.4153 -0.3702 -0.6446
 6797TIP3    H141806   4.057   3.079  15.701  0.0214 -0.1215  0.6403
 6797TIP3    H241807   4.125   2.963  15.630  1.4458  1.1064 -0.0266
 6798TIP3   OH241808   1.891   1.574   5.031 -0.5005 -0.5569  0.2183
 6798TIP3    H141809   1.962   1.615   5.080 -2.0819 -0.1220  2.1976
 6798TIP3    H241810   1.841   1.648   4.995 -0.5350 -0.8361 -0.3086
 6799TIP3   OH241811   0.131   3.303   4.637 -0.2347  0.5400 -0.4949
 6799TIP3    H141812   0.212   3.274   4.595 -0.9963 -0.9699 -0.9495
 6799TIP3    H241813   0.063   3.245   4.602 -0.9874 -0.3941  2.3783
 6800TIP3   OH241814   3.130   0.730   1.423 -0.2766 -0.3380  0.8925
 6800TIP3    H141815   3.202   0.788   1.448 -0.1841 -0.0081 -0.1359
 6800TIP3    H241816   3.097   0.766   1.341 -0.0769 -1.8630  0.1288
 6801TIP3   OH241817   5.964   5.167   0.644 -0.7828 -0.0542 -0.4237
 6801TIP3    H141818   5.936   5.105   0.711  2.1892  0.0019  0.9259
 6801TIP3    H241819   5.988   5.112   0.569  1.0723 -0.5442  0.4903
 6802TIP3   OH241820   0.241   2.589  13.178  0.1594 -0.5681 -0.6647
 6802TIP3    H141821   0.324   2.628  13.151  0.1165 -0.6087 -0.8574
 6802TIP3    H241822   0.200   2.560  13.096 -1.4537  2.1995 -0.9072
 6803TIP3   OH241823   3.275   4.380  12.204  0.3151 -0.0293 -0.5115
 6803TIP3    H141824   3.251   4.434  12.128 -1.9325 -0.4491 -0.1568
 6803TIP3    H241825   3.253   4.435  12.279 -0.4335 -0.7976 -0.1649
 6804TIP3   OH241826   5.923   0.167  16.464 -0.2973  0.0827  0.4950
 6804TIP3    H141827   5.907   0.073  16.472 -0.8596  0.1451  0.0404
 6804TIP3    H241828   5.857   0.199  16.403  1.9132  0.2215 -1.9140
 6805TIP3   OH241829   6.016   4.590   5.453  0.2114 -0.0851  0.3619
 6805TIP3    H141830   5.971   4.622   5.531  0.0460 -0.5443  0.4528
 6805TIP3    H241831   6.070   4.664   5.425  0.4778 -0.0067  1.0686
 6806TIP3   OH241832   3.278   6.665  15.294 -0.4014 -0.5674 -0.2253
 6806TIP3    H141833   3.235   6.695  15.214  1.1315  2.1734 -0.1081
 6806TIP3    H241834   3.330   6.590  15.267 -1.2958 -0.7611 -1.4232
 6807TIP3   OH241835   0.545   0.867  15.003  0.8710 -0.2037 -0.5429
 6807TIP3    H141836   0.536   0.802  14.933  0.6588  0.0514 -0.7547
 6807TIP3    H241837   0.498   0.830  15.077 -0.3673  0.2973 -1.0703
 6808TIP3   OH241838   6.765   3.131  16.391  0.5199 -0.0334 -0.5205
 6808TIP3    H141839   6.835   3.172  16.441  1.8596 -0.9367 -1.6092
 6808TIP3    H241840   6.728   3.202  16.338  0.5126  0.4710  0.1593
 6809TIP3   OH241841   5.135   0.022  14.630 -0.1719  0.2705 -0.3644
 6809TIP3    H141842   5.052   0.014  14.678  0.8335  1.5324  1.6466
 6809TIP3    H241843   5.110   0.062  14.546 -1.7678 -0.6678 -0.3669
 6810TIP3   OH241844   1.062   4.452   3.908  0.3000  0.4123 -0.1921
 6810TIP3    H141845   1.037   4.413   3.824 -0.8296  0.9930 -0.1297
 6810TIP3    H241846   1.089   4.377   3.962  1.2544  0.0594 -1.1362
 6811TIP3   OH241847   0.390   6.219   4.037 -0.1568 -0.0906 -0.6677
 6811TIP3    H141848   0.369   6.143   4.091  1.7693 -1.3895 -1.6890
 6811TIP3    H241849   0.451   6.269   4.090 -1.1214  0.5644 -0.1574
 6812TIP3   OH241850   6.400   2.983   3.100 -0.5421 -0.2024  0.0360
 6812TIP3    H141851   6.488   3.015   3.121 -0.1710 -0.7117 -0.7692
 6812TIP3    H241852   6.348   3.009   3.176  0.2834  0.1577  0.4919
 6813TIP3   OH241853   4.315   6.039  12.579 -0.5661  0.1305 -0.2442
 6813TIP3    H141854   4.300   6.134  12.581  0.3234  0.2661  0.5683
 6813TIP3    H241855   4.379   6.024  12.649 -0.7767 -1.0820 -0.3106
 6814TIP3   OH241856   2.263   5.689   1.869  0.0095 -0.5995 -0.1131
 6814TIP3    H141857   2.187   5.729   1.910 -0.1326 -0.1171 -0.8495
 6814TIP3    H241858   2.234   5.600   1.849 -1.0288  0.1945 -2.2178
 6815TIP3   OH241859   0.459   1.204  13.570 -0.1928 -0.8555 -0.1736
 6815TIP3    H141860   0.499   1.291  13.564  1.5976 -1.4780  1.9194
 6815TIP3    H241861   0.371   1.216  13.534  0.4114  1.5533 -0.9862
 6816TIP3   OH241862   4.196   0.157  16.177  0.1525 -0.4235 -0.2799
 6816TIP3    H141863   4.272   0.100  16.187 -0.9907 -1.8553  0.4490
 6816TIP3    H241864   4.208   0.200  16.093  1.2484 -1.4287 -0.6341
 6817TIP3   OH241865   3.287   3.564   4.826  0.1722  0.6914  0.1917
 6817TIP3    H141866   3.262   3.581   4.735 -2.5584  0.2514  0.8074
 6817TIP3    H241867   3.362   3.505   4.819 -1.0090 -0.6673 -1.7879
 6818TIP3   OH241868   3.238   2.473  12.909  0.5550  0.0241 -0.1321
 6818TIP3    H141869   3.200   2.494  12.994 -1.0467 -0.3273 -0.7557
 6818TIP3    H241870   3.330   2.498  12.918 -0.0682  2.0638  0.9743
 6819TIP3   OH241871   5.264   3.864   0.499 -0.3421 -0.1895 -0.3921
 6819TIP3    H141872   5.296   3.884   0.587  0.5499  1.5617 -1.0811
 6819TIP3    H241873   5.168   3.868   0.507 -0.3439 -2.1963  0.9534
 6820TIP3   OH241874   6.090   2.390   0.784 -0.5597  0.1358 -0.0195
 6820TIP3    H141875   5.996   2.380   0.798 -0.7178  1.9515  0.2350
 6820TIP3    H241876   6.104   2.483   0.771  1.2403 -0.0773  0.1330
 6821TIP3   OH241877   4.891   0.822  13.406  0.2149 -0.0341 -0.0632
 6821TIP3    H141878   4.821   0.815  13.471  1.8306  0.0017  1.7589
 6821TIP3    H241879   4.927   0.733  13.400  1.1270  0.2935  0.3498
 6822TIP3   OH241880   3.053   5.342   5.577 -0.0086  0.1327  0.2546
 6822TIP3    H141881   3.001   5.404   5.628  0.8003 -0.3893  1.7464
 6822TIP3    H241882   3.056   5.263   5.632  0.0474 -0.7811 -1.0550
 6823TIP3   OH241883   0.354   5.369   2.774  0.8117  0.2866  0.0820
 6823TIP3    H141884   0.359   5.426   2.697 -1.0389  0.7402  0.2822
 6823TIP3    H241885   0.302   5.294   2.745  0.9354 -0.0065  0.6125
 6824TIP3   OH241886   0.637   0.178  14.575 -0.1502 -0.0390  0.3700
 6824TIP3    H141887   0.724   0.162  14.613 -0.7950 -1.1297  1.4238
 6824TIP3    H241888   0.643   0.266  14.539  2.2583 -1.1126 -1.9969
 6825TIP3   OH241889   1.077   4.355  13.292 -0.0903  0.0905  0.2168
 6825TIP3    H141890   1.051   4.436  13.248  0.1775 -0.0253 -0.1526
 6825TIP3    H241891   1.155   4.379  13.342  0.8282 -0.2739 -1.0128
 6826TIP3   OH241892   4.825   2.746   2.702 -0.2046  0.3336  0.4302
 6826TIP3    H141893   4.846   2.778   2.614 -0.1444  1.0300  0.6884
 6826TIP3    H241894   4.769   2.670   2.688  0.8672 -0.3390 -0.2310
 6827TIP3   OH241895   2.352   6.613  15.556 -0.4575 -0.1545  0.0811
 6827TIP3    H141896   2.360   6.670  15.479 -0.7451 -0.0720  0.1106
 6827TIP3    H241897   2.273   6.645  15.600  1.1570  1.5435  1.8332
 6828TIP3   OH241898   5.675   2.971   3.380  0.0687  0.6115  0.9212
 6828TIP3    H141899   5.624   3.033   3.327 -0.3917  0.5183  1.2515
 6828TIP3    H241900   5.674   2.890   3.328  0.2011  0.7218  0.7480
 6829TIP3   OH241901   1.691   5.600   0.159  0.3049  0.3665  0.7455
 6829TIP3    H141902   1.737   5.592   0.242 -1.1357 -0.1723  1.5046
 6829TIP3    H241903   1.656   5.513   0.142  1.7514  0.1081 -1.1454
 6830TIP3   OH241904   0.537   3.804   0.094 -0.2802  0.0913 -0.1001
 6830TIP3    H141905   0.569   3.730   0.147 -1.0790  1.4039  2.3237
 6830TIP3    H241906   0.444   3.812   0.119 -0.2314  1.8092 -0.4179
 6831TIP3   OH241907   2.520   3.330  13.431  0.1867  0.3133 -0.0304
 6831TIP3    H141908   2.464   3.279  13.490  0.3762  0.1045 -0.0305
 6831TIP3    H241909   2.485   3.312  13.344  0.5663 -0.2143 -0.0759
 6832TIP3   OH241910   2.768   3.925  10.958 -0.0279  0.0728 -0.1669
 6832TIP3    H141911   2.833   3.914  11.027  0.0562  1.2635 -0.0337
 6832TIP3    H241912   2.729   3.838  10.946 -0.1011 -0.1326  1.4296
 6833TIP3   OH241913   2.625   1.517  11.485 -0.0309  0.5648 -0.1992
 6833TIP3    H141914   2.658   1.602  11.455  1.7805  0.2889  0.8945
 6833TIP3    H241915   2.557   1.494  11.422  0.5142  2.1184 -1.4028
 6834TIP3   OH241916   2.842   4.208  15.798 -0.3258 -0.2883 -0.2029
 6834TIP3    H141917   2.900   4.133  15.783  0.5590  0.0012  1.5531
 6834TIP3    H241918   2.754   4.173  15.787  0.0769 -1.6150  0.6372
 6835TIP3   OH241919   6.286   4.745  12.860  0.7128 -0.5110  0.3720
 6835TIP3    H141920   6.266   4.761  12.768  2.6051  0.8970  0.1851
 6835TIP3    H241921   6.221   4.798  12.907  0.1023 -0.7925 -0.1367
 6836TIP3   OH241922   4.859   4.288  10.939  0.3556  0.4153 -0.9264
 6836TIP3    H141923   4.929   4.318  10.882  0.9566 -0.0692 -0.4637
 6836TIP3    H241924   4.892   4.304  11.028 -0.0118 -0.0346 -0.7015
 6837TIP3   OH241925   0.218   4.544  12.447 -0.4225 -0.4858 -0.6013
 6837TIP3    H141926   0.277   4.616  12.472 -0.8723 -0.2923 -0.0752
 6837TIP3    H241927   0.160   4.582  12.381 -1.4743  0.0015  0.5920
 6838TIP3   OH241928   6.274   4.811  16.114 -0.0694  0.3154 -0.1679
 6838TIP3    H141929   6.345   4.796  16.176  0.2000  0.4108 -0.4522
 6838TIP3    H241930   6.280   4.904  16.093 -0.3723  0.3560 -0.0788
 6839TIP3   OH241931   4.725   3.462  11.138  0.0394  0.2042 -0.5372
 6839TIP3    H141932   4.785   3.530  11.170 -1.6627  1.7498 -0.5746
 6839TIP3    H241933   4.748   3.451  11.046  0.4155  0.6214 -0.4952
 6840TIP3   OH241934   3.658   6.149   2.744  0.0363  0.3134 -0.6160
 6840TIP3    H141935   3.668   6.073   2.687 -2.4964  0.1680 -0.9108
 6840TIP3    H241936   3.723   6.135   2.813 -0.3922 -2.1294 -0.6453
 6841TIP3   OH241937   4.754   4.962  15.635  0.3210 -0.1972 -0.0841
 6841TIP3    H141938   4.822   5.013  15.592  1.2931  0.3677  2.0561
 6841TIP3    H241939   4.801   4.892  15.680 -0.3972  0.6747  2.0886
 6842TIP3   OH241940   4.276   3.870  16.065 -0.0240 -0.3529 -0.5525
 6842TIP3    H141941   4.315   3.785  16.087 -0.8563 -0.7297 -0.5074
 6842TIP3    H241942   4.187   3.849  16.037 -1.3388  0.7766  2.5795
 6843TIP3   OH241943   2.168   0.810  15.675  0.0634 -0.4193 -0.4396
 6843TIP3    H141944   2.258   0.824  15.705  0.9485 -3.3019 -1.6093
 6843TIP3    H241945   2.121   0.783  15.754  0.5983 -0.5132 -0.1472
 6844TIP3   OH241946   2.392   2.184  15.877  0.0363  0.0535 -0.2569
 6844TIP3    H141947   2.461   2.239  15.914 -0.2221  0.5760 -0.5420
 6844TIP3    H241948   2.314   2.239  15.878 -1.2616 -1.6791  3.3587
 6845TIP3   OH241949   2.029   5.133  14.516 -0.5903  0.0102 -0.2951
 6845TIP3    H141950   2.115   5.156  14.551  0.3156 -1.0153 -1.8463
 6845TIP3    H241951   2.012   5.198  14.448  0.1994 -1.4258 -1.9004
 6846TIP3   OH241952   4.121   2.816  11.626 -0.3337 -0.1650  0.0934
 6846TIP3    H141953   4.125   2.726  11.594  1.9400  0.4437 -1.4663
 6846TIP3    H241954   4.052   2.815  11.692 -0.5998 -2.9553 -0.1663
 6847TIP3   OH241955   0.496   4.977  10.672 -0.0650  0.0096 -0.0899
 6847TIP3    H141956   0.583   4.982  10.712 -0.6981 -0.6959  1.4385
 6847TIP3    H241957   0.456   4.899  10.711 -2.0649  1.3776  0.6690
 6848TIP3   OH241958   2.716   5.382   1.175  0.4198 -0.1781  0.2160
 6848TIP3    H141959   2.625   5.409   1.163  0.3161 -0.6030  0.0410
 6848TIP3    H241960   2.731   5.388   1.269  0.7709  1.6901  0.0500
 6849TIP3   OH241961   0.082   3.259   3.173 -0.5377  0.1746  0.8329
 6849TIP3    H141962   0.122   3.343   3.198  1.0400 -0.4862  0.5912
 6849TIP3    H241963   0.150   3.215   3.122 -1.7733 -0.7792 -0.0185
 6850TIP3   OH241964   0.719   2.256   1.179 -0.2052  0.9700  0.0125
 6850TIP3    H141965   0.710   2.173   1.226  0.6287  0.6070 -0.4515
 6850TIP3    H241966   0.643   2.260   1.121  1.1842 -0.7935 -1.9804
 6851TIP3   OH241967   0.262   2.283  17.033 -0.1152  0.0394  0.5219
 6851TIP3    H141968   0.200   2.356  17.027  0.7262  0.7133  0.0157
 6851TIP3    H241969   0.323   2.296  16.961 -0.3071 -1.5052  0.0525
 6852TIP3   OH241970   5.679   4.988  15.334 -0.3875 -0.0127 -0.3686
 6852TIP3    H141971   5.638   4.936  15.403  2.7492 -0.4857  1.1783
 6852TIP3    H241972   5.692   4.927  15.261 -0.9695 -0.2340 -0.2882
 6853TIP3   OH241973   0.979   0.336  15.925 -0.6113  0.3901  0.3707
 6853TIP3    H141974   1.018   0.351  15.839 -2.0417 -0.9577 -0.5470
 6853TIP3    H241975   0.955   0.423  15.956 -0.1904  0.8781 -0.6470
 6854TIP3   OH241976   5.693   0.644   3.462 -0.1837 -0.1454 -0.4076
 6854TIP3    H141977   5.637   0.720   3.447 -1.1574 -0.0143  3.4611
 6854TIP3    H241978   5.636   0.579   3.503  1.2840 -1.9770 -1.1740
 6855TIP3   OH241979   0.211   2.843   5.684 -0.1358  0.3376 -0.0460
 6855TIP3    H141980   0.190   2.759   5.724 -0.6394  0.1675 -0.6619
 6855TIP3    H241981   0.274   2.883   5.744 -0.5723 -0.0914  0.7054
 6856TIP3   OH241982   4.651   2.091   5.276  0.1385  0.2984 -0.4053
 6856TIP3    H141983   4.557   2.104   5.263 -0.0626 -0.3386  0.3524
 6856TIP3    H241984   4.677   2.160   5.336 -0.3943 -1.1111  1.5035
 6857TIP3   OH241985   5.683   0.266  17.236 -0.1153  0.0892 -0.1892
 6857TIP3    H141986   5.726   0.220  17.308 -1.3947 -0.8577 -0.0148
 6857TIP3    H241987   5.690   0.206  17.161  1.9334  1.4106 -1.1090
 6858TIP3   OH241988   3.040   6.083  12.032  0.1026 -0.1989  0.4801
 6858TIP3    H141989   2.962   6.104  12.083 -0.1381  0.0241  0.0244
 6858TIP3    H241990   3.074   6.168  12.004 -1.5118 -0.4134 -2.3103
 6859TIP3   OH241991   4.269   5.546   5.258 -0.3142  0.2096  0.3485
 6859TIP3    H141992   4.278   5.600   5.337  0.5695 -1.5430  1.4828
 6859TIP3    H241993   4.180   5.512   5.262  0.0261 -0.6060  1.0794
 6860TIP3   OH241994   6.304   6.409   5.789 -0.3039 -0.1495 -0.0333
 6860TIP3    H141995   6.391   6.404   5.748  0.5322 -5.3694  1.9731
 6860TIP3    H241996   6.322   6.407   5.883 -2.5272  3.1425  0.5374
 6861TIP3   OH241997   4.774   4.620  11.870 -0.6666 -0.6720 -0.0764
 6861TIP3    H141998   4.797   4.625  11.777 -0.8187 -2.5935 -0.2358
 6861TIP3    H241999   4.741   4.707  11.892 -0.3957 -0.1372 -1.7632
 6862TIP3   OH242000   4.331   1.490   0.284  0.6453 -0.1779 -0.0266
 6862TIP3    H142001   4.330   1.422   0.352 -1.6225  0.7093  0.8740
 6862TIP3    H242002   4.401   1.550   0.311  1.0775 -0.8802  0.4480
 6863TIP3   OH242003   3.995   3.736  14.130  0.3724 -0.4442  0.1360
 6863TIP3    H142004   4.042   3.789  14.066 -0.6840  0.1067 -0.2038
 6863TIP3    H242005   4.002   3.646  14.097 -0.7039 -0.0877 -1.1139
 6864TIP3   OH242006   3.690   6.540   5.708  0.6621 -0.2902  0.6130
 6864TIP3    H142007   3.702   6.578   5.620  1.1250  0.2780  0.9103
 6864TIP3    H242008   3.773   6.496   5.726  0.8676  0.2727  1.0820
 6865TIP3   OH242009   4.358   3.302  13.146  0.0993  0.4064  0.2702
 6865TIP3    H142010   4.342   3.327  13.238 -1.2352  1.6473 -0.2777
 6865TIP3    H242011   4.276   3.262  13.118 -0.1145  1.6557 -0.9067
 6866TIP3   OH242012   6.349   6.260  16.629 -0.1420 -0.0294 -0.0889
 6866TIP3    H142013   6.259   6.229  16.616  0.5513 -1.6742 -1.1566
 6866TIP3    H242014   6.347   6.304  16.713 -1.9285 -0.1640 -0.0384
 6867TIP3   OH242015   5.745   3.385  11.745 -0.1871  0.3300  0.0611
 6867TIP3    H142016   5.839   3.387  11.725 -0.1586 -2.0665 -0.1367
 6867TIP3    H242017   5.705   3.438  11.676  0.7929 -0.5735 -1.2334
 6868TIP3   OH242018   5.752   5.189   4.797 -0.2609  0.1025 -0.0174
 6868TIP3    H142019   5.749   5.105   4.843  1.7611 -0.4777 -0.8732
 6868TIP3    H242020   5.662   5.204   4.767 -1.1027 -0.6614  2.0454
 6869TIP3   OH242021   6.043   3.588   6.050 -0.4305 -0.1235  0.4026
 6869TIP3    H142022   6.054   3.670   6.099 -1.0902  0.4976 -0.4850
 6869TIP3    H242023   6.104   3.527   6.093 -0.5528  0.5791  1.6117
 6870TIP3   OH242024   4.858   6.319   2.045  0.6840  1.0248 -0.2639
 6870TIP3    H142025   4.831   6.281   2.129  0.9019  1.7768  0.1516
 6870TIP3    H242026   4.790   6.384   2.026 -0.9973 -1.2403 -2.1663
 6871TIP3   OH242027   5.258   6.668  16.747  0.1633 -0.0739  0.0764
 6871TIP3    H142028   5.295   6.582  16.762 -0.5818 -0.5178 -0.5582
 6871TIP3    H242029   5.286   6.692  16.659  0.2108  0.2474  0.1762
 6872TIP3   OH242030   5.215   0.004   2.109  0.1854  0.0339 -0.2521
 6872TIP3    H142031   5.185  -0.076   2.154  0.6422 -0.2529 -0.4554
 6872TIP3    H242032   5.189   0.075   2.167 -1.4003 -0.1741 -0.6856
 6873TIP3   OH242033   3.638   5.768  11.586  0.3381 -0.6101 -0.0097
 6873TIP3    H142034   3.709   5.774  11.650 -0.6060  0.7601  0.9499
 6873TIP3    H242035   3.577   5.705  11.625 -0.4947  0.6249  0.7277
 6874TIP3   OH242036   0.405   0.997  16.177 -0.0892 -0.4781  0.3334
 6874TIP3    H142037   0.363   1.045  16.105 -1.6882 -2.2575  0.0298
 6874TIP3    H242038   0.497   1.022  16.172 -0.7229  1.7982 -0.4131
 6875TIP3   OH242039   4.683   0.469   4.994  0.2318  0.0048  0.0498
 6875TIP3    H142040   4.691   0.414   5.072  3.4339  1.6417  0.9818
 6875TIP3    H242041   4.734   0.424   4.927 -0.8338 -0.3654 -0.5303
 6876TIP3   OH242042   1.638   5.233   0.910  0.7274  0.4695  0.4103
 6876TIP3    H142043   1.622   5.154   0.960  0.5123  0.2577  0.0122
 6876TIP3    H242044   1.551   5.261   0.881  0.6470  1.6062  1.6859
 6877TIP3   OH242045   1.794   5.579   3.073 -0.1654 -0.5760 -0.2443
 6877TIP3    H142046   1.775   5.640   3.144 -0.0858  0.7114 -1.3018
 6877TIP3    H242047   1.835   5.504   3.116  1.7994  1.0573  0.8446
 6878TIP3   OH242048   1.276   6.708  15.578  0.4862 -0.3824 -0.4751
 6878TIP3    H142049   1.305   6.710  15.669 -0.3807  0.2869 -0.2066
 6878TIP3    H242050   1.300   6.621  15.547 -1.1515 -1.4235  1.0488
 6879TIP3   OH242051   5.019   0.215  16.538  0.4290  0.6078 -0.0461
 6879TIP3    H142052   4.926   0.234  16.545  0.1016 -0.8103 -0.4322
 6879TIP3    H242053   5.046   0.196  16.628 -0.0478 -0.6797 -0.1577
 6880TIP3   OH242054   2.952   5.734  14.953 -0.1645 -0.1746  0.4149
 6880TIP3    H142055   2.981   5.684  14.878 -0.3897 -0.0921  0.2729
 6880TIP3    H242056   2.897   5.674  15.003 -2.0778  0.5289 -0.7904
 6881TIP3   OH242057   1.512   0.466  11.887 -0.3029  1.2278 -0.3841
 6881TIP3    H142058   1.566   0.524  11.833  0.3419  0.7197 -0.2997
 6881TIP3    H242059   1.556   0.466  11.973 -1.1192  1.7548  0.0334
 6882TIP3   OH242060   5.747   5.858  12.312  0.9376 -0.2131  0.1805
 6882TIP3    H142061   5.678   5.860  12.245  2.6565 -0.7051 -1.6337
 6882TIP3    H242062   5.781   5.947  12.314  0.7347 -0.1425  0.5847
 6883TIP3   OH242063   1.810   6.271  13.650  0.5460  0.4552  0.2296
 6883TIP3    H142064   1.893   6.238  13.616  0.5294  0.6050  0.0464
 6883TIP3    H242065   1.825   6.364  13.666  0.9130  0.1555  1.7331
 6884TIP3   OH242066   4.192   1.948   2.391  0.0657 -0.6321 -0.0353
 6884TIP3    H142067   4.283   1.946   2.361 -0.1323 -2.6229 -0.5686
 6884TIP3    H242068   4.159   2.033   2.361  1.8588  0.2848  0.5299
 6885TIP3   OH242069   3.911   5.222  13.044  0.0898 -0.5030  0.1373
 6885TIP3    H142070   3.861   5.198  13.123  1.3844 -0.9950  0.8260
 6885TIP3    H242071   3.947   5.308  13.065 -1.0428  0.1801 -0.6526
 6886TIP3   OH242072   3.520   5.185  16.250  0.3720 -0.3655 -0.0427
 6886TIP3    H142073   3.441   5.131  16.241  1.9209 -2.0271 -5.4485
 6886TIP3    H242074   3.590   5.122  16.265  1.5083  0.5205 -1.4813
 6887TIP3   OH242075   0.409   3.778  14.934 -0.6487  0.2753 -0.1402
 6887TIP3    H142076   0.376   3.743  14.851 -1.1130 -0.4085  0.3269
 6887TIP3    H242077   0.332   3.781  14.991 -1.0315  3.9075 -0.7431
 6888TIP3   OH242078   2.357   1.954   1.722  0.0775  0.6918 -0.1758
 6888TIP3    H142079   2.401   2.028   1.679 -0.3308 -0.3124 -2.3794
 6888TIP3    H242080   2.280   1.992   1.762  1.4919  2.0009  1.3805
 6889TIP3   OH242081   5.552   5.455   3.593 -0.2363 -0.3449 -0.0336
 6889TIP3    H142082   5.598   5.417   3.668 -0.8090 -1.7666 -0.3891
 6889TIP3    H242083   5.466   5.413   3.593 -0.8850  0.9559 -0.4504
 6890TIP3   OH242084   5.014   3.588  13.894  0.3929  0.2783  0.5120
 6890TIP3    H142085   5.103   3.555  13.911  0.0897 -0.1117  1.4111
 6890TIP3    H242086   5.027   3.661  13.834  1.4740  1.1260  1.7336
 6891TIP3   OH242087   5.637   2.475  15.600  0.6871  0.5257 -0.7448
 6891TIP3    H142088   5.618   2.566  15.621  0.1851  0.6045 -1.5205
 6891TIP3    H242089   5.726   2.461  15.633 -0.8304 -0.0098  3.3845
 6892TIP3   OH242090   2.835   3.469   2.182  0.4438 -0.0595 -0.7491
 6892TIP3    H142091   2.777   3.461   2.107 -0.4970  2.3661 -0.3063
 6892TIP3    H242092   2.782   3.442   2.257  1.3946 -2.5294 -0.9092
 6893TIP3   OH242093   4.180   0.457  11.836 -0.2454 -0.4882  0.1485
 6893TIP3    H142094   4.114   0.527  11.826  0.2665 -0.0316 -0.0717
 6893TIP3    H242095   4.224   0.454  11.751  1.8057  1.0317  1.1127
 6894TIP3   OH242096   1.880   4.877  15.430 -0.0889 -0.1416  0.3037
 6894TIP3    H142097   1.830   4.959  15.423  0.7081  0.2439 -1.0465
 6894TIP3    H242098   1.822   4.811  15.392 -0.1423  0.0573  0.0322
 6895TIP3   OH242099   1.590   0.202  11.891  0.5591 -0.5878  0.0360
 6895TIP3    H142100   1.569   0.280  11.840  3.4046  0.3895  0.3212
 6895TIP3    H242101   1.540   0.213  11.972  0.4259  0.6069 -0.2021
 6896TIP3   OH242102   1.163   3.863  14.453 -0.3634  0.1809  0.6218
 6896TIP3    H142103   1.136   3.948  14.418 -2.4320 -0.9842 -0.6951
 6896TIP3    H242104   1.141   3.868  14.546 -1.7539  0.6039  0.2877
 6897TIP3   OH242105   0.178   0.928  14.769  0.3865 -0.1167  0.0445
 6897TIP3    H142106   0.147   1.012  14.801 -2.5205 -0.2768 -2.1436
 6897TIP3    H242107   0.120   0.907  14.696  2.1058 -3.2360 -0.5251
 6898TIP3   OH242108   2.486   6.220  16.040 -0.0626 -0.2176 -0.3845
 6898TIP3    H142109   2.421   6.268  15.989 -0.0911  0.8621  0.6168
 6898TIP3    H242110   2.494   6.271  16.121  1.2520 -0.9230 -0.0590
 6899TIP3   OH242111   0.353   1.265  14.800  0.7393  0.1887 -0.4273
 6899TIP3    H142112   0.364   1.359  14.785 -0.2485  0.1787 -1.2964
 6899TIP3    H242113   0.291   1.258  14.872  0.6462  0.2091 -0.5044
 6900TIP3   OH242114   6.510   1.424  12.072 -0.1638  0.2129 -0.5969
 6900TIP3    H142115   6.470   1.459  11.992  0.4996 -0.8643 -1.4113
 6900TIP3    H242116   6.581   1.486  12.091 -0.3181  0.4664 -0.8392
 6901TIP3   OH242117   5.754   2.047   0.568  0.1190 -0.1252 -0.5229
 6901TIP3    H142118   5.817   2.109   0.604 -1.2096  1.2261 -0.4769
 6901TIP3    H242119   5.742   2.075   0.477 -0.9216  0.0738 -0.3402
 6902TIP3   OH242120   3.681   1.139   5.426 -0.1086 -0.4089  0.4069
 6902TIP3    H142121   3.771   1.110   5.442  0.7395  2.0615  0.3983
 6902TIP3    H242122   3.686   1.184   5.341 -0.6485  2.4252  1.8158
 6903TIP3   OH242123   4.242   4.932   4.841 -0.2142 -0.4197  0.1031
 6903TIP3    H142124   4.268   5.019   4.812  0.9951 -0.0444  2.1896
 6903TIP3    H242125   4.283   4.872   4.779  0.9927  0.4175  0.0798
 6904TIP3   OH242126   0.654   3.638   5.999 -0.3289 -0.2121  0.1191
 6904TIP3    H142127   0.646   3.720   6.047  0.7366  0.7892 -1.3644
 6904TIP3    H242128   0.580   3.638   5.938 -1.7797 -1.5615  1.8003
 6905TIP3   OH242129   3.677   2.701   2.930 -0.2666 -0.0874  0.5065
 6905TIP3    H142130   3.671   2.696   2.835 -0.2640 -1.0461  0.5532
 6905TIP3    H242131   3.709   2.615   2.957  0.4201  0.4112  1.3210
 6906TIP3   OH242132   1.945   6.156  16.986 -0.3447 -0.1417  0.3586
 6906TIP3    H142133   1.951   6.237  16.935  2.5136  1.1071  2.5077
 6906TIP3    H242134   1.855   6.154  17.019 -0.3040  2.4874  0.7329
 6907TIP3   OH242135   0.804   1.137  13.125  0.1383  0.2436 -0.2175
 6907TIP3    H142136   0.798   1.209  13.063 -1.1040 -0.0324 -0.4317
 6907TIP3    H242137   0.785   1.176  13.210 -3.1486 -0.2618 -0.6453
 6908TIP3   OH242138   3.676   1.554  15.883 -0.3593 -0.1445 -0.0983
 6908TIP3    H142139   3.609   1.547  15.951 -0.1626 -1.5993 -0.0362
 6908TIP3    H242140   3.636   1.513  15.806  0.1592 -0.3053 -0.2826
 6909TIP3   OH242141   4.383   2.199   2.671  0.6233 -0.4962 -0.3854
 6909TIP3    H142142   4.395   2.239   2.757 -0.7097 -1.0651  0.0725
 6909TIP3    H242143   4.353   2.271   2.615  0.1168 -0.4461 -0.0410
 6910TIP3   OH242144   4.243   0.653   4.794  0.5866 -0.2343 -0.1737
 6910TIP3    H142145   4.320   0.708   4.781  0.8298 -0.5359 -0.0024
 6910TIP3    H242146   4.277   0.572   4.832  0.3581 -0.9358 -1.4544
 6911TIP3   OH242147   5.657   3.190  13.484 -0.3990 -0.3355 -0.1554
 6911TIP3    H142148   5.608   3.135  13.545  1.2801 -1.1416  0.4808
 6911TIP3    H242149   5.637   3.154  13.398 -1.6480 -0.0788  0.0157
 6912TIP3   OH242150   4.851   3.835   0.263 -0.0260 -0.2917 -0.2525
 6912TIP3    H142151   4.850   3.816   0.357 -0.7529  0.5868 -0.0784
 6912TIP3    H242152   4.808   3.759   0.223  0.2336 -0.6422  0.1198
 6913TIP3   OH242153   1.814   2.729  15.328  0.8280 -0.0315  0.0121
 6913TIP3    H142154   1.909   2.720  15.314  0.6568 -2.1877 -0.0273
 6913TIP3    H242155   1.779   2.644  15.301 -0.8915  0.0707  1.8805
 6914TIP3   OH242156   4.410   6.034  15.175  0.3096 -0.0168 -0.5032
 6914TIP3    H142157   4.427   5.986  15.094  2.0891  0.8423 -0.6824
 6914TIP3    H242158   4.470   5.995  15.239 -0.7161 -0.3494  0.2679
 6915TIP3   OH242159   1.647   5.482  15.000 -0.0226  0.2866 -0.1138
 6915TIP3    H142160   1.593   5.526  14.935 -0.2950  0.2911  0.1152
 6915TIP3    H242161   1.663   5.395  14.963  0.8509  0.7173 -0.7473
 6916TIP3   OH242162   4.025   1.736   6.098  0.3744  0.2198  0.5494
 6916TIP3    H142163   4.026   1.688   6.015  1.7270  0.4897  0.3941
 6916TIP3    H242164   4.070   1.818   6.078 -0.0918  0.6711  1.3302
 6917TIP3   OH242165   3.713   3.212   6.624  0.7815 -0.6133 -0.1823
 6917TIP3    H142166   3.674   3.192   6.539  1.7406  0.4484 -0.8959
 6917TIP3    H242167   3.769   3.137   6.642  1.6068 -0.2521 -1.1448
 6918TIP3   OH242168   4.556   5.939  14.182 -0.0843  0.3442  0.5110
 6918TIP3    H142169   4.555   5.948  14.087 -0.9219 -1.1581  0.3574
 6918TIP3    H242170   4.649   5.940  14.206  0.4045 -3.7987 -0.8264
 6919TIP3   OH242171   4.577   1.683   5.107  0.4252  0.6593  0.0825
 6919TIP3    H142172   4.653   1.632   5.135  0.5970  1.1551  0.5235
 6919TIP3    H242173   4.615   1.763   5.070  0.1824  0.2223 -1.1276
 6920TIP3   OH242174   3.611   6.662   4.798  0.7845 -0.6523 -0.4418
 6920TIP3    H142175   3.545   6.647   4.866  1.4292 -2.3773 -0.1617
 6920TIP3    H242176   3.597   6.591   4.735  0.2490  0.8730 -2.0925
 6921TIP3   OH242177   1.877   1.472  12.456  0.4283 -0.5050  0.0360
 6921TIP3    H142178   1.940   1.542  12.473 -1.3712  1.2148 -0.1275
 6921TIP3    H242179   1.802   1.517  12.418 -0.7258 -2.5666 -0.1730
 6922TIP3   OH242180   5.308   1.346  15.402  0.1290  0.2490 -0.0833
 6922TIP3    H142181   5.282   1.377  15.315 -0.3882  0.0112 -0.0130
 6922TIP3    H242182   5.269   1.410  15.462  3.0550  2.2153 -0.1397
 6923TIP3   OH242183   6.390   0.224  11.725 -0.2108 -0.4887 -0.0069
 6923TIP3    H142184   6.376   0.255  11.635 -0.1982 -0.0076  0.1569
 6923TIP3    H242185   6.477   0.256  11.748 -1.7102  2.7331  1.5586
 6924TIP3   OH242186   6.696   0.646   5.861 -0.0045 -0.8963  0.3120
 6924TIP3    H142187   6.702   0.571   5.920  0.4732 -0.1270  1.2503
 6924TIP3    H242188   6.604   0.672   5.865 -0.0645 -1.1090  0.3727
 6925TIP3   OH242189   1.310   5.916   2.635  0.1317  0.4092 -0.1826
 6925TIP3    H142190   1.361   5.930   2.714 -0.8123  0.9194  0.3321
 6925TIP3    H242191   1.261   5.997   2.622 -1.3619 -0.4474 -0.0827
 6926TIP3   OH242192   2.173   4.448   2.937 -0.2093 -0.0892  0.0791
 6926TIP3    H142193   2.099   4.483   2.987  1.2147  0.2704  1.9834
 6926TIP3    H242194   2.203   4.373   2.988  0.1659 -0.8104 -1.1844
 6927TIP3   OH242195   3.145   4.393   5.544 -0.8384  0.2166 -0.4555
 6927TIP3    H142196   3.109   4.330   5.606  0.9540 -0.9475 -0.5552
 6927TIP3    H242197   3.112   4.365   5.459 -0.3158 -0.3858 -0.4606
 6928TIP3   OH242198   0.248   6.042  15.331 -0.3136  0.1766 -0.1079
 6928TIP3    H142199   0.305   6.069  15.403 -0.8711  0.7087  0.1355
 6928TIP3    H242200   0.307   6.010  15.264  0.2731  0.7618  0.1298
 6929TIP3   OH242201   2.163   6.040   0.301  0.1710 -0.1386 -0.1311
 6929TIP3    H142202   2.122   6.093   0.233 -1.5434 -0.9974  0.2028
 6929TIP3    H242203   2.238   6.092   0.330 -0.2089  1.1013 -1.3266
 6930TIP3   OH242204   3.383   3.165  13.231  0.2854 -0.2372 -0.0746
 6930TIP3    H142205   3.365   3.074  13.252  0.9298  0.1389  2.2756
 6930TIP3    H242206   3.446   3.161  13.159 -0.9001 -1.6108 -1.0604
 6931TIP3   OH242207   6.349   1.368  14.773 -0.2594  0.1312  0.1486
 6931TIP3    H142208   6.301   1.446  14.744 -0.1660 -0.2988 -1.1951
 6931TIP3    H242209   6.308   1.296  14.726  1.7748 -0.2297 -1.1367
 6932TIP3   OH242210   2.002   0.975   1.704  0.7400  0.1301 -0.0139
 6932TIP3    H142211   1.928   0.998   1.648 -0.3134 -1.9423  0.4842
 6932TIP3    H242212   2.032   1.059   1.740 -1.7562  0.9253  0.3000
 6933TIP3   OH242213   1.788   0.806  15.612 -0.5564 -0.2232 -0.2053
 6933TIP3    H142214   1.790   0.890  15.566 -1.0029 -0.2707 -0.3153
 6933TIP3    H242215   1.710   0.763  15.579 -0.3160 -0.6938 -0.1631
 6934TIP3   OH242216   0.695   5.554   5.437  0.9265 -0.0833  0.0183
 6934TIP3    H142217   0.624   5.547   5.501 -0.6730 -1.9925 -1.8987
 6934TIP3    H242218   0.771   5.515   5.480  0.0468 -0.7203  1.0154
 6935TIP3   OH242219   4.485   4.077  16.940  0.3235 -0.0142 -0.3017
 6935TIP3    H142220   4.410   4.036  16.899  1.5577  0.2229 -2.9040
 6935TIP3    H242221   4.534   4.005  16.979  0.3100 -0.5307 -1.2289
 6936TIP3   OH242222   0.402   3.535  15.576  0.1504 -0.6225  0.3823
 6936TIP3    H142223   0.420   3.587  15.497 -0.1283  1.6290  1.7392
 6936TIP3    H242224   0.308   3.519  15.572  0.1858 -0.7666  0.1073
 6937TIP3   OH242225   4.427   6.182  15.594 -0.1996 -0.0790 -0.2553
 6937TIP3    H142226   4.482   6.106  15.612 -1.4402 -0.7561  0.7783
 6937TIP3    H242227   4.368   6.153  15.524 -1.2154 -0.3599  0.7004
 6938TIP3   OH242228   1.929   1.039   0.830 -0.4488  0.3566 -0.6442
 6938TIP3    H142229   1.834   1.038   0.813 -0.7292 -0.2641  0.8859
 6938TIP3    H242230   1.946   1.128   0.862 -0.1381  1.1235 -2.8442
 6939TIP3   OH242231   2.450   0.571   1.084  0.0643  0.0075  0.0496
 6939TIP3    H142232   2.534   0.618   1.077 -0.4749  0.6675 -2.5119
 6939TIP3    H242233   2.446   0.543   1.176  2.9414  0.2265  0.2908
 6940TIP3   OH242234   0.208   2.079   3.291  0.6577 -0.2395 -0.2383
 6940TIP3    H142235   0.279   2.044   3.237  0.4846 -1.9797  0.6377
 6940TIP3    H242236   0.181   2.006   3.346 -0.0377  1.1470  1.3140
 6941TIP3   OH242237   5.652   6.276  16.479 -0.5442 -0.2092 -0.1994
 6941TIP3    H142238   5.601   6.211  16.430 -0.4660  0.1415 -0.7605
 6941TIP3    H242239   5.679   6.231  16.559 -1.3714 -0.5319 -0.0969
 6942TIP3   OH242240   5.685   1.002  16.514 -0.3707  0.0401 -0.2470
 6942TIP3    H142241   5.670   0.907  16.510 -0.8414  0.1248 -0.4100
 6942TIP3    H242242   5.612   1.040  16.467 -0.5521  0.5244  0.4299
 6943TIP3   OH242243   2.925   3.889   2.458 -0.0093  0.3124  0.4320
 6943TIP3    H142244   2.998   3.884   2.519  2.4690 -0.3318 -2.4956
 6943TIP3    H242245   2.920   3.802   2.419 -1.6997  0.6496 -0.1705
 6944TIP3   OH242246   4.246   1.977   5.167  0.5477  0.1141 -0.3033
 6944TIP3    H142247   4.160   1.963   5.128  1.0237 -1.4693 -0.8137
 6944TIP3    H242248   4.305   1.988   5.093  0.6238  2.3494  0.0544
 6945TIP3   OH242249   5.681   5.738  14.403 -0.6344  0.5083 -0.6014
 6945TIP3    H142250   5.736   5.712  14.477 -1.2786 -1.4154 -0.7759
 6945TIP3    H242251   5.719   5.695  14.327 -2.7844 -1.5469 -0.6012
 6946TIP3   OH242252   4.311   4.779   3.940  0.1144  0.0359  0.2078
 6946TIP3    H142253   4.259   4.829   3.877 -0.6577 -1.1077 -0.0725
 6946TIP3    H242254   4.260   4.781   4.021  1.1425  1.5686  0.8334
 6947TIP3   OH242255   4.134   6.579   0.867  0.1528 -0.0103  0.6035
 6947TIP3    H142256   4.145   6.620   0.952  0.9912 -0.7349  0.8544
 6947TIP3    H242257   4.192   6.628   0.809 -0.6840  0.7087  0.3635
 6948TIP3   OH242258   2.144   3.019   4.775 -0.3128  0.0955  0.4413
 6948TIP3    H142259   2.148   2.938   4.724 -1.3852 -0.4689  1.2256
 6948TIP3    H242260   2.144   3.089   4.710  0.0241 -0.5563 -0.2603
 6949TIP3   OH242261   3.030   0.887  14.807 -0.4842  0.6047  0.0686
 6949TIP3    H142262   3.031   0.970  14.760  1.2041  1.1647  1.0814
 6949TIP3    H242263   2.963   0.899  14.875  1.2513  1.9136  1.5748
 6950TIP3   OH242264   3.637   1.835  16.473  0.3248 -0.5764  0.3942
 6950TIP3    H142265   3.623   1.881  16.390  1.5040 -0.2586  0.3633
 6950TIP3    H242266   3.727   1.858  16.498  0.0843 -0.9263  1.5996
 6951TIP3   OH242267   2.585   2.117  11.435 -0.3795 -0.9336 -0.5698
 6951TIP3    H142268   2.536   2.164  11.367  2.0988  2.4756 -0.1032
 6951TIP3    H242269   2.559   2.158  11.517  0.3532 -1.6870  0.0494
 6952TIP3   OH242270   3.428   4.976   0.341  0.3884  0.0030 -0.3280
 6952TIP3    H142271   3.405   4.928   0.261 -1.6622  0.7137 -0.1790
 6952TIP3    H242272   3.357   4.957   0.402  1.8854 -0.4519  1.3301
 6953TIP3   OH242273   2.204   0.756   0.383 -0.5033 -0.0213 -0.0141
 6953TIP3    H142274   2.214   0.776   0.476  0.0617 -1.4069  0.2362
 6953TIP3    H242275   2.115   0.786   0.362  0.2493  2.5230  0.3598
 6954TIP3   OH242276   1.383   0.227  15.787  0.0941 -0.0764 -0.2634
 6954TIP3    H142277   1.365   0.257  15.876 -1.0069 -2.0323  0.2136
 6954TIP3    H242278   1.421   0.140  15.799 -1.0252 -0.7944 -1.7089
 6955TIP3   OH242279   6.455   3.621  15.413 -0.8048  0.5142 -0.2031
 6955TIP3    H142280   6.494   3.690  15.467  0.2182 -0.9726  1.0036
 6955TIP3    H242281   6.530   3.574  15.376 -1.4752 -0.6201 -0.1562
 6956TIP3   OH242282   5.186   4.894   4.179 -0.6628 -0.1076  0.2895
 6956TIP3    H142283   5.134   4.818   4.206 -1.9874  0.9505  0.7964
 6956TIP3    H242284   5.270   4.884   4.224 -1.2958 -0.5989  1.3790
 6957TIP3   OH242285   0.010   0.462   0.907 -0.0612 -0.0259 -0.0269
 6957TIP3    H142286   0.087   0.468   0.850  0.2806 -0.3230  0.4021
 6957TIP3    H242287  -0.060   0.431   0.849  0.4435 -0.9592 -0.1561
 6958TIP3   OH242288   1.254   3.010   5.428  0.8083  0.2856 -0.2779
 6958TIP3    H142289   1.300   2.932   5.397  0.5543  0.2882 -0.6589
 6958TIP3    H242290   1.265   3.008   5.523 -0.2976 -0.9030 -0.1697
 6959TIP3   OH242291   1.861   3.451  14.332 -0.6443  0.3700  0.3927
 6959TIP3    H142292   1.858   3.441  14.427  0.2508 -0.4254  0.3547
 6959TIP3    H242293   1.774   3.481  14.308 -1.5248 -1.4115  1.2560
 6960TIP3   OH242294   6.481   6.407  11.450  0.5217 -0.3010  0.5685
 6960TIP3    H142295   6.461   6.338  11.388  1.7973  0.0581 -0.2603
 6960TIP3    H242296   6.410   6.403  11.514  1.9982 -4.2534  2.1633
 6961TIP3   OH242297   6.772   2.759  13.302 -0.2703  0.1819 -0.0100
 6961TIP3    H142298   6.840   2.695  13.280 -0.5412  0.4282 -1.6210
 6961TIP3    H242299   6.773   2.763  13.397  0.2053 -1.7292  0.0777
 6962TIP3   OH242300   5.323   2.903   6.675  0.1772 -0.3182 -0.1503
 6962TIP3    H142301   5.248   2.914   6.618 -2.0614  1.9560  3.0639
 6962TIP3    H242302   5.353   2.992   6.693  2.2921 -1.1010  0.3952
 6963TIP3   OH242303   3.319   5.063   2.298  0.7591  0.0071  0.1500
 6963TIP3    H142304   3.230   5.037   2.275  0.9613  0.2015 -0.8747
 6963TIP3    H242305   3.311   5.152   2.332  0.7518  0.5698 -1.3219
 6964TIP3   OH242306   5.846   4.937  12.774  0.0305 -0.1601 -0.1780
 6964TIP3    H142307   5.923   4.923  12.829  1.2154  1.5901 -1.3588
 6964TIP3    H242308   5.865   4.889  12.694 -0.5908 -0.6006 -0.0699
 6965TIP3   OH242309   0.916   4.471  12.609 -0.3042 -0.3276  0.3981
 6965TIP3    H142310   0.947   4.528  12.539 -1.7139  0.3982  0.3451
 6965TIP3    H242311   0.881   4.531  12.675  0.4027 -1.0298  1.4323
 6966TIP3   OH242312   4.755   5.366  11.389 -0.3320  0.3269  0.3264
 6966TIP3    H142313   4.664   5.398  11.390 -0.0239  1.2219 -0.1628
 6966TIP3    H242314   4.747   5.271  11.376 -1.2400  0.2460  1.3467
 6967TIP3   OH242315   0.556   3.355   2.980 -0.0697  0.6874 -0.2091
 6967TIP3    H142316   0.646   3.373   2.953 -0.8018  1.2907 -2.3365
 6967TIP3    H242317   0.515   3.441   2.984 -0.4676  0.4489  1.1385
 6968TIP3   OH242318   2.050   5.810  11.321  0.3619  0.2351  0.4362
 6968TIP3    H142319   2.043   5.823  11.226 -0.0952  0.3215  0.4806
 6968TIP3    H242320   2.021   5.893  11.359 -2.3116 -0.7780  0.7152
 6969TIP3   OH242321   5.135   3.165   1.509 -0.2732  0.2176  0.6280
 6969TIP3    H142322   5.134   3.251   1.551 -1.8472  0.2880  0.4794
 6969TIP3    H242323   5.169   3.182   1.421  0.3805  0.5203  0.9374
 6970TIP3   OH242324   4.659   5.458   2.805 -0.1161  0.9510 -0.3449
 6970TIP3    H142325   4.568   5.481   2.785 -0.3180  0.7337  0.3219
 6970TIP3    H242326   4.667   5.366   2.778  0.4656  1.5345 -2.2586
 6971TIP3   OH242327   4.812   4.409   3.841 -0.6333 -0.9869  0.1458
 6971TIP3    H142328   4.817   4.491   3.792 -0.8159  0.2402  2.0903
 6971TIP3    H242329   4.831   4.341   3.777  0.3342  0.6350 -1.3457
 6972TIP3   OH242330   3.254   5.262  11.245 -0.7207  0.5237  0.1145
 6972TIP3    H142331   3.249   5.236  11.153 -4.4360  0.1592  0.3598
 6972TIP3    H242332   3.219   5.351  11.246 -1.1511  0.3460  1.2631
 6973TIP3   OH242333   4.305   6.615  13.544  0.0242 -0.5923  0.2723
 6973TIP3    H142334   4.382   6.620  13.601  0.5125 -0.6280 -0.3699
 6973TIP3    H242335   4.336   6.566  13.467 -0.1605  0.8674 -0.7509
 6974TIP3   OH242336   4.579   4.969   4.882 -0.6388 -0.5944  0.0086
 6974TIP3    H142337   4.628   4.903   4.835  0.5584  0.0056  0.3709
 6974TIP3    H242338   4.545   5.027   4.814  0.0867 -0.4010 -0.2025
 6975TIP3   OH242339   4.887   1.065   3.200 -0.2648  0.0469 -0.0428
 6975TIP3    H142340   4.965   1.034   3.153  0.5849 -1.6403  2.3297
 6975TIP3    H242341   4.819   1.002   3.177 -0.4234  0.4343 -0.6433
 6976TIP3   OH242342   5.818   5.111  13.265  0.4339 -0.1605  0.0449
 6976TIP3    H142343   5.855   5.195  13.291 -1.0505  0.4079  0.3735
 6976TIP3    H242344   5.825   5.109  13.170  1.0049  0.0759  0.0825
 6977TIP3   OH242345   1.750   5.770  14.556 -0.3057  0.4035 -0.0617
 6977TIP3    H142346   1.806   5.841  14.586  1.4899 -0.4041 -1.3731
 6977TIP3    H242347   1.730   5.720  14.635  1.6237  0.1769  0.3056
 6978TIP3   OH242348   4.699   5.333   1.096  0.2779 -0.2799  0.0063
 6978TIP3    H142349   4.660   5.300   1.016 -1.3144  0.0713  0.6188
 6978TIP3    H242350   4.670   5.424   1.102  0.5390 -0.2420  0.8606
 6979TIP3   OH242351   5.044   2.586   4.467 -0.7761  0.2539  0.4570
 6979TIP3    H142352   5.066   2.679   4.461 -0.5896  0.2353  0.8267
 6979TIP3    H242353   4.955   2.585   4.501  0.0014  0.2618  2.5630
 6980TIP3   OH242354   4.116   4.751  12.123 -0.4373 -0.0955  0.0727
 6980TIP3    H142355   4.125   4.832  12.072 -0.1339 -0.4714 -0.4719
 6980TIP3    H242356   4.070   4.691  12.064  0.7193 -0.8339 -0.0958
 6981TIP3   OH242357   2.479   2.881   0.902  0.1655 -0.1761  0.4678
 6981TIP3    H142358   2.496   2.957   0.958 -0.9465 -0.6132  1.4150
 6981TIP3    H242359   2.422   2.915   0.832  2.9663  0.7758 -1.4438
 6982TIP3   OH242360   2.821   1.766  16.234 -0.0679 -0.2602 -0.1806
 6982TIP3    H142361   2.881   1.729  16.299 -0.7492 -1.4288 -0.2034
 6982TIP3    H242362   2.807   1.695  16.171  0.4292  0.7975 -1.5056
 6983TIP3   OH242363   0.931   3.534  15.920  0.0401  0.2089 -0.5019
 6983TIP3    H142364   0.838   3.546  15.905  0.5182  1.9666 -2.2950
 6983TIP3    H242365   0.953   3.598  15.988  0.2735  1.0860 -1.3928
 6984TIP3   OH242366   4.629   0.790   5.009  0.2039  0.3390  0.1304
 6984TIP3    H142367   4.577   0.778   5.089  0.2633  1.9329  0.4194
 6984TIP3    H242368   4.668   0.704   4.993  1.6567  0.4326  2.8433
 6985TIP3   OH242369   0.234   1.553   4.041 -0.5553 -0.3503 -0.6005
 6985TIP3    H142370   0.209   1.602   4.119  0.4042 -0.9737  0.1207
 6985TIP3    H242371   0.286   1.614   3.990 -3.7621  1.0848 -2.3009
 6986TIP3   OH242372   3.535   6.311  12.110 -0.3961 -0.2116  0.2812
 6986TIP3    H142373   3.509   6.255  12.036 -0.5397 -0.2680  0.3733
 6986TIP3    H242374   3.553   6.249  12.181  0.4851 -0.2005  0.0654
 6987TIP3   OH242375   0.522   5.810   0.655 -0.2171 -0.0390 -0.0416
 6987TIP3    H142376   0.504   5.740   0.592  0.0164  0.2220 -0.4045
 6987TIP3    H242377   0.537   5.887   0.600  2.8557 -0.4235  0.1971
 6988TIP3   OH242378   1.722   0.058  11.223  0.2698  0.3990  0.0124
 6988TIP3    H142379   1.628   0.055  11.204  0.4670 -0.0341 -0.9016
 6988TIP3    H242380   1.756   0.126  11.165  0.4316  0.9535  0.7504
 6989TIP3   OH242381   0.450   3.340  16.506  0.0934  0.6276 -0.1533
 6989TIP3    H142382   0.507   3.321  16.580  1.2269 -0.6748 -1.3498
 6989TIP3    H242383   0.384   3.270  16.508  2.4073 -1.7322 -2.6584
 6990TIP3   OH242384   5.753   0.879   0.965 -0.5479 -0.0650  0.3058
 6990TIP3    H142385   5.782   0.969   0.976 -1.7376  0.3861 -0.2444
 6990TIP3    H242386   5.783   0.834   1.044  0.5167  0.6787  0.3329
 6991TIP3   OH242387   4.763   5.801   0.804 -0.0830 -0.3099  0.1810
 6991TIP3    H142388   4.682   5.754   0.824 -0.0532 -0.3110  0.3009
 6991TIP3    H242389   4.830   5.733   0.799  0.0041 -0.2572  0.5940
 6992TIP3   OH242390   2.361   4.137  16.377  0.0016  0.7778 -0.2040
 6992TIP3    H142391   2.306   4.100  16.308  0.2257 -0.3363  0.2014
 6992TIP3    H242392   2.397   4.217  16.338 -0.8609  0.8181 -0.9374
 6993TIP3   OH242393   2.459   2.669  14.312  0.1435 -0.0928  0.2317
 6993TIP3    H142394   2.543   2.686  14.270 -0.5156 -0.6152 -1.3168
 6993TIP3    H242395   2.399   2.734  14.274 -1.1183 -2.3297 -1.7564
 6994TIP3   OH242396   0.685   5.814  12.345  0.0512 -0.1967  0.2180
 6994TIP3    H142397   0.649   5.879  12.284  2.0948  1.0220  0.2726
 6994TIP3    H242398   0.738   5.756  12.291  1.8553  0.8744  0.8024
 6995TIP3   OH242399   0.516   5.185  14.660  0.3481 -0.0553  0.4586
 6995TIP3    H142400   0.590   5.241  14.639 -0.0026  0.6930  1.1829
 6995TIP3    H242401   0.460   5.187  14.582  0.2781  0.7035  0.5257
 6996TIP3   OH242402   4.789   4.705  15.834  0.2444  0.4161 -0.2792
 6996TIP3    H142403   4.751   4.720  15.921  1.6010  0.2041  0.3626
 6996TIP3    H242404   4.720   4.660  15.786 -0.3202  0.0002  0.8847
 6997TIP3   OH242405   3.502   1.610  14.885  0.5119 -0.2213 -0.0097
 6997TIP3    H142406   3.589   1.576  14.906  0.6914  1.9176  3.0508
 6997TIP3    H242407   3.516   1.702  14.865 -0.9338 -0.0820 -0.4229
 6998TIP3   OH242408   5.676   1.601  15.464 -0.4218 -0.3525  0.4596
 6998TIP3    H142409   5.615   1.633  15.398  2.8275  2.2854 -1.3523
 6998TIP3    H242410   5.750   1.660  15.460  1.7692 -2.7261  3.4985
 6999TIP3   OH242411   2.386   1.614   1.503  0.2662 -0.1225 -0.0865
 6999TIP3    H142412   2.424   1.528   1.490  0.6172  0.2707 -1.7133
 6999TIP3    H242413   2.321   1.623   1.434 -0.3607  0.5947  0.5800
 7000TIP3   OH242414   4.946   5.194  14.991  0.2376 -0.0624 -0.6091
 7000TIP3    H142415   4.950   5.243  14.910  5.7106  0.0582 -0.4021
 7000TIP3    H242416   4.940   5.102  14.964 -0.0134  0.0941 -1.0810
 7001TIP3   OH242417   4.545   0.445  10.947  0.2721 -0.3332 -0.0367
 7001TIP3    H142418   4.543   0.533  10.909  0.0360  0.7270  2.3292
 7001TIP3    H242419   4.568   0.387  10.875  0.5356  1.6982 -1.5952
 7002TIP3   OH242420   4.523   6.023  11.169 -0.2964  0.4276 -0.4916
 7002TIP3    H142421   4.570   5.945  11.196  1.0147  1.8381  1.4163
 7002TIP3    H242422   4.586   6.072  11.116 -1.0423  0.3220 -1.4993
 7003TIP3   OH242423   2.585   5.993  16.409  0.1827  0.1825  0.1626
 7003TIP3    H142424   2.679   5.995  16.392  0.0717  0.3631 -0.4421
 7003TIP3    H242425   2.548   5.950  16.333 -0.0556 -1.5233  1.2057
 7004TIP3   OH242426   0.603   0.907   3.038 -0.2552 -0.7423  0.3600
 7004TIP3    H142427   0.635   0.848   3.106  0.0736 -0.0738  0.7903
 7004TIP3    H242428   0.609   0.856   2.957  2.8344 -0.3310  0.2662
 7005TIP3   OH242429   1.821   0.519  14.701 -0.1201 -0.2394  0.4308
 7005TIP3    H142430   1.842   0.452  14.636  0.7723 -0.5559  1.0446
 7005TIP3    H242431   1.727   0.507  14.718 -0.2529 -0.4606 -0.4468
 7006TIP3   OH242432   2.733   2.124  15.073  0.6228  1.2332 -0.6828
 7006TIP3    H142433   2.772   2.046  15.034 -0.6883  0.0364  0.3613
 7006TIP3    H242434   2.700   2.174  14.998  1.0154  0.5374 -1.3234
 7007TIP3   OH242435   0.746   4.309  15.400  0.3772 -0.6256 -0.3265
 7007TIP3    H142436   0.749   4.335  15.492 -1.9100  1.4213 -0.7752
 7007TIP3    H242437   0.704   4.223  15.400 -0.3661 -0.2597  0.4759
 7008TIP3   OH242438   3.978   0.688   5.599  0.1947 -0.4544 -0.5522
 7008TIP3    H142439   4.019   0.713   5.517 -0.2674  1.1374 -0.3082
 7008TIP3    H242440   3.928   0.765   5.626  1.7909 -0.2744  2.1310
 7009TIP3   OH242441   0.199   6.006  11.927  0.0970  0.1004 -0.3025
 7009TIP3    H142442   0.234   6.027  11.841  0.5526 -0.1563 -0.1818
 7009TIP3    H242443   0.128   5.945  11.910  1.0276 -0.9697 -0.4098
 7010TIP3   OH242444   4.243   5.331  12.528  0.0623  0.3743 -0.4707
 7010TIP3    H142445   4.260   5.281  12.608 -1.8670  1.2764  0.5363
 7010TIP3    H242446   4.222   5.264  12.462  0.4060 -0.3024  0.0917
 7011TIP3   OH242447   1.379   1.189   1.633  0.1858  0.0215 -0.4992
 7011TIP3    H142448   1.291   1.226   1.631  0.1663 -0.0774 -1.9607
 7011TIP3    H242449   1.435   1.259   1.666 -0.7251 -0.5776  2.5360
 7012TIP3   OH242450   0.118   1.362  11.367  0.1220 -0.4003  0.0620
 7012TIP3    H142451   0.032   1.355  11.407 -0.3049  1.3702 -0.5247
 7012TIP3    H242452   0.101   1.382  11.275  1.1451  0.0414 -0.0437
 7013TIP3   OH242453   0.585   2.119  11.670  0.1277 -0.0076  0.1844
 7013TIP3    H142454   0.671   2.153  11.696  0.4445 -0.0904 -0.7215
 7013TIP3    H242455   0.559   2.174  11.596  0.0290 -0.8647 -0.4236
 7014TIP3   OH242456   5.163   3.577  13.113  1.1730 -0.6855 -0.2453
 7014TIP3    H142457   5.111   3.502  13.140 -0.2269 -0.0882 -1.1907
 7014TIP3    H242458   5.196   3.554  13.026  3.0963 -1.3346  0.6125
 7015TIP3   OH242459   0.106   4.337  12.600 -0.1989  0.2848 -0.6473
 7015TIP3    H142460   0.038   4.286  12.557  1.2653 -1.7186 -0.6571
 7015TIP3    H242461   0.143   4.391  12.530 -1.9234  1.5982 -0.5843
 7016TIP3   OH242462   4.003   2.191   0.116  0.0463 -0.2906 -0.2021
 7016TIP3    H142463   4.072   2.124   0.107 -1.0968 -1.6515  0.8207
 7016TIP3    H242464   3.956   2.165   0.196  0.5837  2.6957  1.1232
 7017TIP3   OH242465   5.309   1.277   2.933 -0.1122 -0.2034  0.3860
 7017TIP3    H142466   5.231   1.222   2.924 -0.1285  0.0652 -1.1601
 7017TIP3    H242467   5.289   1.355   2.882  0.9927  0.0531  0.3400
 7018TIP3   OH242468   0.607   0.798  13.933  0.2302 -0.5840 -0.4289
 7018TIP3    H142469   0.627   0.718  13.884  0.7535 -0.6431 -0.1205
 7018TIP3    H242470   0.673   0.861  13.905 -0.5961 -0.0422 -1.1818
 7019TIP3   OH242471   0.541   6.624   3.415 -0.1432 -0.0128  0.3829
 7019TIP3    H142472   0.592   6.639   3.335  1.2127 -1.8647  0.8670
 7019TIP3    H242473   0.450   6.626   3.386  0.3054  0.1114 -1.0764
 7020TIP3   OH242474   4.717   4.396  14.523 -0.2695  0.0666 -0.0683
 7020TIP3    H142475   4.657   4.322  14.519 -0.8262  0.4679  0.7191
 7020TIP3    H242476   4.740   4.403  14.616 -1.5570  1.9212  0.1319
 7021TIP3   OH242477   0.400   6.460  12.644 -0.0396  0.0688  0.0310
 7021TIP3    H142478   0.440   6.415  12.718 -0.1766  0.4937  0.3685
 7021TIP3    H242479   0.437   6.418  12.567  2.6381  1.8322  0.3045
 7022TIP3   OH242480   1.765   1.813  12.599  0.2419 -0.0144  0.0902
 7022TIP3    H142481   1.758   1.908  12.597  0.8129  0.0377  0.5083
 7022TIP3    H242482   1.852   1.796  12.635  0.7421 -0.6686 -1.3708
 7023TIP3   OH242483   3.485   3.050   5.575  0.1829  0.4079  0.2092
 7023TIP3    H142484   3.469   3.144   5.574 -1.1147  0.2750  2.6245
 7023TIP3    H242485   3.580   3.041   5.568  0.2847  1.8947 -0.3083
 7024TIP3   OH242486   4.498   0.546  17.134 -0.5820 -0.0260  0.1202
 7024TIP3    H142487   4.457   0.625  17.101  0.3422  0.8400  0.9925
 7024TIP3    H242488   4.437   0.476  17.112 -0.2467  0.5632 -2.8944
 7025TIP3   OH242489   5.011   5.117   5.380  0.1507 -0.1434  0.0867
 7025TIP3    H142490   4.991   5.039   5.329  0.8284  0.6076 -1.3859
 7025TIP3    H242491   4.952   5.113   5.455  0.2084 -2.0731  0.0500
 7026TIP3   OH242492   2.427   2.416  15.569  0.8461 -0.3075  0.2962
 7026TIP3    H142493   2.464   2.503  15.551 -0.2099  0.0948  0.0632
 7026TIP3    H242494   2.375   2.427  15.648  0.3025 -0.6079 -0.0135
 7027TIP3   OH242495   5.347   5.910  12.453  0.4989 -0.3187  0.4158
 7027TIP3    H142496   5.428   5.926  12.501  0.9310 -0.6652 -0.1909
 7027TIP3    H242497   5.319   5.823  12.481  0.9378 -0.6654 -0.2241
 7028TIP3   OH242498   1.970   4.702   1.152 -0.9497  0.2333  0.1997
 7028TIP3    H142499   2.016   4.783   1.134 -0.9114  0.8233  2.7522
 7028TIP3    H242500   1.879   4.728   1.167  0.0057  0.7399  6.6908
 7029TIP3   OH242501   4.147   3.223  15.427  0.0886  0.2233 -0.1231
 7029TIP3    H142502   4.170   3.137  15.391 -2.3183 -0.5228  0.0100
 7029TIP3    H242503   4.168   3.284  15.357 -0.5951 -0.7712 -1.2290
 7030TIP3   OH242504   5.838   4.985  14.656 -0.6769  0.2838  0.2055
 7030TIP3    H142505   5.780   4.934  14.599 -0.4041  1.1857 -0.9157
 7030TIP3    H242506   5.920   4.990  14.607 -0.1189  0.2437  1.1288
 7031TIP3   OH242507   0.024   1.428  16.646 -0.6837  0.1321  0.1424
 7031TIP3    H142508   0.005   1.345  16.603 -0.3440  0.2487 -0.2416
 7031TIP3    H242509   0.071   1.404  16.726 -0.5060 -0.0396 -0.0147
 7032TIP3   OH242510   2.751   3.341  13.571 -0.2282  0.2381 -0.2797
 7032TIP3    H142511   2.679   3.318  13.512  0.8206  0.9443 -1.8676
 7032TIP3    H242512   2.767   3.261  13.621  0.3678 -1.0930 -2.5507
 7033TIP3   OH242513   1.841   2.490  13.190  1.2114 -0.7054 -0.2195
 7033TIP3    H142514   1.780   2.562  13.178  0.4301 -1.6031 -1.6858
 7033TIP3    H242515   1.916   2.530  13.234  0.1076  0.6529  0.4747
 7034TIP3   OH242516   3.464   4.497   2.210  0.3824  0.2588  0.1262
 7034TIP3    H142517   3.377   4.535   2.194 -0.7955 -2.3909 -0.1152
 7034TIP3    H242518   3.524   4.552   2.160 -1.4319  0.9275 -1.3868
 7035TIP3   OH242519   1.544   0.326   4.787 -0.0808  0.0591 -0.5716
 7035TIP3    H142520   1.551   0.341   4.882 -0.5059 -2.9038 -0.0262
 7035TIP3    H242521   1.509   0.409   4.753  0.8230  1.4635  1.7329
 7036TIP3   OH242522   4.442   4.436  14.083 -0.3369  0.5393  0.3356
 7036TIP3    H142523   4.515   4.493  14.109  0.8194 -0.2959 -1.0348
 7036TIP3    H242524   4.368   4.496  14.072  0.6720  1.6821 -0.3180
 7037TIP3   OH242525   5.948   6.256  12.063 -0.6683 -0.2818  0.9150
 7037TIP3    H142526   5.944   6.178  12.007  2.3408  0.2768 -0.2156
 7037TIP3    H242527   5.907   6.324  12.011 -1.6731 -0.6993  1.1505
 7038TIP3   OH242528   6.527   1.133   6.006 -0.1770 -0.0428  0.1868
 7038TIP3    H142529   6.448   1.112   6.056  0.0892 -1.2858  0.0946
 7038TIP3    H242530   6.497   1.136   5.915 -0.1939 -0.1174  0.1901
 7039TIP3   OH242531   4.210   5.902   2.855 -0.0183 -0.1485 -0.4722
 7039TIP3    H142532   4.276   5.874   2.918 -0.6241  0.2349  0.3357
 7039TIP3    H242533   4.128   5.867   2.889 -0.4079  0.4051 -0.8333
 7040TIP3   OH242534   4.135   2.742   3.915 -0.4504 -0.1946 -0.7136
 7040TIP3    H142535   4.118   2.648   3.912  0.8755 -0.4966  0.5626
 7040TIP3    H242536   4.070   2.780   3.856 -2.1730 -1.7379  0.1501
 7041TIP3   OH242537   5.659   4.897  11.779  0.4241  0.4986  0.1445
 7041TIP3    H142538   5.670   4.982  11.822  0.2413  0.9127 -0.5958
 7041TIP3    H242539   5.725   4.841  11.818 -0.2288  0.6456  1.4976
 7042TIP3   OH242540   0.690   1.048  11.090  0.2034 -0.0505 -0.5706
 7042TIP3    H142541   0.660   1.053  10.999 -0.6869 -0.7097 -0.3131
 7042TIP3    H242542   0.611   1.058  11.142  0.6316 -0.2802  0.1287
 7043TIP3   OH242543   5.516   0.745  16.479 -0.3205 -0.4904  0.4547
 7043TIP3    H142544   5.471   0.743  16.394  0.7549  3.2915 -0.2942
 7043TIP3    H242545   5.452   0.782  16.540 -0.1337 -0.5368  0.6801
 7044TIP3   OH242546   4.051   0.647  12.398  0.4231  0.5113 -0.3866
 7044TIP3    H142547   4.008   0.569  12.363 -0.2387  0.1738  1.1350
 7044TIP3    H242548   4.109   0.677  12.328 -0.6059 -0.3541 -1.6098
 7045TIP3   OH242549   1.901   4.539   0.403  0.4558  0.0705 -0.4222
 7045TIP3    H142550   1.963   4.611   0.411  0.4130  0.2134 -1.3263
 7045TIP3    H242551   1.955   4.460   0.406  0.8418  0.2339 -2.6749
 7046TIP3   OH242552   0.125   2.424  13.579 -0.1309 -0.0175  0.2315
 7046TIP3    H142553   0.031   2.428  13.595 -0.2134 -1.0985  0.0470
 7046TIP3    H242554   0.165   2.435  13.666 -0.3731  1.9045  0.1259
 7047TIP3   OH242555   3.341   4.477   0.565 -0.1585 -0.9277  0.0856
 7047TIP3    H142556   3.327   4.555   0.511 -1.1610 -0.9169  0.3421
 7047TIP3    H242557   3.336   4.404   0.504  1.6465 -0.7545 -0.2947
 7048TIP3   OH242558   2.813   5.819  16.659 -0.2260 -0.2692  0.2735
 7048TIP3    H142559   2.837   5.911  16.651  1.3364 -0.6816  0.0028
 7048TIP3    H242560   2.718   5.817  16.645 -0.1817  1.2130 -0.3242
 7049TIP3   OH242561   2.175   3.540  14.764  0.2567 -0.0049  0.3933
 7049TIP3    H142562   2.194   3.481  14.836  0.3068  0.1894  0.5413
 7049TIP3    H242563   2.105   3.596  14.796 -1.4510 -1.5368 -0.6073
 7050TIP3   OH242564   3.954   2.841  14.461 -0.2836 -0.1486  0.6517
 7050TIP3    H142565   3.966   2.881  14.547 -2.3320 -0.7066  1.2168
 7050TIP3    H242566   3.891   2.897  14.416 -0.9969 -1.1545  0.3809
 7051TIP3   OH242567   6.163   1.499   5.235 -0.8710  0.3851  0.4523
 7051TIP3    H142568   6.170   1.521   5.328 -0.7339 -0.8230  0.7407
 7051TIP3    H242569   6.252   1.509   5.202 -0.9794  1.1234  0.3726
 7052TIP3   OH242570   1.687   5.740   2.542 -0.1648 -0.1735  0.0338
 7052TIP3    H142571   1.625   5.776   2.605  0.6522  0.4795  0.4664
 7052TIP3    H242572   1.747   5.688   2.594 -0.6570 -1.2390 -0.4528
 7053TIP3   OH242573   4.088   3.669  15.370  0.5397  0.2263 -0.3813
 7053TIP3    H142574   4.104   3.610  15.297  0.4462  0.8009 -0.8756
 7053TIP3    H242575   4.023   3.731  15.337  0.4697  0.4698  0.2009
 7054TIP3   OH242576   2.805   3.656   1.787  0.3237  0.2377  0.6121
 7054TIP3    H142577   2.751   3.581   1.809 -0.2188  0.6365  0.6443
 7054TIP3    H242578   2.895   3.623   1.789  0.0162 -0.6962 -0.5060
 7055TIP3   OH242579   6.436   3.050   3.543  0.2752 -0.4726  0.1045
 7055TIP3    H142580   6.396   2.964   3.530 -0.9784  0.4668 -2.6628
 7055TIP3    H242581   6.378   3.111   3.498  1.3418  1.8096  1.6866
 7056TIP3   OH242582   4.048   5.110  12.285 -0.4997  0.0894  0.1290
 7056TIP3    H142583   3.974   5.066  12.243  0.4002 -1.6044  0.2733
 7056TIP3    H242584   4.100   5.039  12.323  1.8119  1.1364 -0.9343
 7057TIP3   OH242585   6.533   6.452  14.032  0.5728  0.3294  0.0672
 7057TIP3    H142586   6.621   6.483  14.051 -0.0125  2.4728 -0.5983
 7057TIP3    H242587   6.524   6.463  13.937 -0.1181 -0.6848  0.0075
 7058TIP3   OH242588   0.000   6.612   0.643 -0.3319  0.1180 -0.0410
 7058TIP3    H142589  -0.078   6.665   0.661 -0.4037 -0.5833  1.8162
 7058TIP3    H242590   0.063   6.674   0.606 -0.1791  1.7166  2.7037
 7059TIP3   OH242591   5.652   2.743   5.674 -0.7784  0.0810  0.4623
 7059TIP3    H142592   5.667   2.705   5.588 -0.8397  1.5784 -0.2284
 7059TIP3    H242593   5.668   2.671   5.735  1.6866 -0.3695 -0.6510
 7060TIP3   OH242594   0.282   5.850   1.888  0.1029 -0.1043  0.4451
 7060TIP3    H142595   0.367   5.879   1.921 -0.5877  1.6920  0.7204
 7060TIP3    H242596   0.296   5.833   1.795  0.5227  1.1982  0.2661
 7061TIP3   OH242597   6.333   1.078   4.681  0.3504 -0.1265  0.5318
 7061TIP3    H142598   6.329   1.149   4.745  0.2015  1.0017 -0.7341
 7061TIP3    H242599   6.356   1.001   4.734 -1.4926  0.4299  2.2406
 7062TIP3   OH242600   0.478   6.684   2.365 -0.2191 -0.6858 -0.3590
 7062TIP3    H142601   0.450   6.748   2.300 -0.8826 -0.2143  0.3754
 7062TIP3    H242602   0.467   6.599   2.322 -0.8718 -0.3897 -0.7888
 7063TIP3   OH242603   3.034   6.134  16.425 -0.5951  0.4881  0.2043
 7063TIP3    H142604   3.042   6.108  16.333 -0.5525  2.0816 -0.2667
 7063TIP3    H242605   3.124   6.153  16.452 -0.5632 -0.3311  0.6953
 7064TIP3   OH242606   0.768   1.402   5.722 -0.6722 -0.4002 -0.7374
 7064TIP3    H142607   0.831   1.426   5.654 -1.1691  0.8169 -0.7858
 7064TIP3    H242608   0.727   1.322   5.689  0.7169 -1.1082 -0.7801
 7065TIP3   OH242609   0.452   5.850  10.722  0.2678 -0.4950 -0.6853
 7065TIP3    H142610   0.499   5.932  10.710 -0.3692 -0.2617 -1.6819
 7065TIP3    H242611   0.426   5.824  10.634  0.4795 -1.7778 -0.3752
 7066TIP3   OH242612   5.152   4.817  12.107  0.2744 -0.0975  0.4444
 7066TIP3    H142613   5.104   4.752  12.157 -0.7247 -0.8969 -1.4769
 7066TIP3    H242614   5.196   4.766  12.039 -1.8059  1.3479 -2.0850
 7067TIP3   OH242615   3.157   4.855   6.061  0.0176 -0.1644 -0.3012
 7067TIP3    H142616   3.115   4.917   6.121  0.5058  1.6158 -1.7626
 7067TIP3    H242617   3.249   4.856   6.085 -0.2847 -1.9260  1.0350
 7068TIP3   OH242618   5.368   3.807   5.988 -0.0204  0.2942 -0.0159
 7068TIP3    H142619   5.293   3.864   5.981 -1.2100 -1.2768 -0.3517
 7068TIP3    H242620   5.372   3.785   6.081 -2.1305 -2.3917 -0.4946
 7069TIP3   OH242621   2.964   1.331  13.092 -0.0707 -0.7436  0.2121
 7069TIP3    H142622   2.970   1.372  13.179  0.0884  1.4530 -0.7813
 7069TIP3    H242623   3.042   1.363  13.046 -2.9043  2.6618 -2.5117
 7070TIP3   OH242624   4.040   3.137   4.750 -0.2530  0.9032 -0.0084
 7070TIP3    H142625   3.988   3.070   4.794 -0.4466  0.5939 -0.6860
 7070TIP3    H242626   4.021   3.123   4.657  0.3566  1.3604 -0.2011
 7071TIP3   OH242627   3.710   6.134   1.588 -0.3886 -0.0668 -0.3839
 7071TIP3    H142628   3.779   6.109   1.528  3.4351  1.4056  3.1391
 7071TIP3    H242629   3.680   6.219   1.557  0.1964 -0.1770 -1.2646
 7072TIP3   OH242630   5.781   6.239   5.459 -0.2693 -0.0662  0.1041
 7072TIP3    H142631   5.763   6.209   5.549  4.0721  1.3943  1.5823
 7072TIP3    H242632   5.785   6.334   5.466  0.4923  0.0373 -1.5850
 7073TIP3   OH242633   6.258   2.863  11.511  0.5823  0.7343  0.0781
 7073TIP3    H142634   6.192   2.878  11.443 -1.5357  0.1019  1.9527
 7073TIP3    H242635   6.252   2.770  11.530  0.5724  1.0673  1.7305
 7074TIP3   OH242636   5.072   1.812   1.239 -0.0966 -0.2583 -0.5021
 7074TIP3    H142637   5.012   1.822   1.164  1.8370  0.7285 -1.9636
 7074TIP3    H242638   5.136   1.747   1.210  1.3096  0.9466 -0.1502
 7075TIP3   OH242639   0.133   6.230   4.726  0.3483  0.4840 -0.2950
 7075TIP3    H142640   0.167   6.171   4.660 -0.7328 -0.3024 -0.1428
 7075TIP3    H242641   0.083   6.295   4.678  0.1482  0.3198 -0.3057
 7076TIP3   OH242642   3.026   2.089   1.260 -0.7680  0.3471  0.0805
 7076TIP3    H142643   3.002   2.161   1.202  0.0625 -0.1685 -0.9222
 7076TIP3    H242644   3.056   2.132   1.340 -0.8009  1.0929 -0.3010
 7077TIP3   OH242645   1.688   0.702  15.096 -0.2398  0.3430  0.0352
 7077TIP3    H142646   1.713   0.652  15.174  0.1716  0.5726  0.0537
 7077TIP3    H242647   1.595   0.684  15.084  0.2675 -1.7709 -0.9377
 7078TIP3   OH242648   2.369   4.636   5.407  0.1526 -0.0344 -0.0348
 7078TIP3    H142649   2.388   4.729   5.403  1.4193 -0.3251 -0.9390
 7078TIP3    H242650   2.406   4.600   5.327 -0.3158 -1.3208  0.3133
 7079TIP3   OH242651   0.928   3.255   2.350  0.6952 -0.1532 -0.0476
 7079TIP3    H142652   0.974   3.212   2.279  1.7820  1.3849 -0.2944
 7079TIP3    H242653   0.838   3.224   2.343  1.0889 -1.0333 -1.2649
 7080TIP3   OH242654   3.272   6.643   2.769 -0.3704  0.1244  0.1007
 7080TIP3    H142655   3.349   6.697   2.752 -0.5581  0.2710 -0.2765
 7080TIP3    H242656   3.242   6.672   2.855 -0.0145  0.0782  0.2412
 7081TIP3   OH242657   2.116   2.580  13.208 -0.0138 -0.6214  0.1120
 7081TIP3    H142658   2.121   2.673  13.185 -3.7652  0.0001  1.4758
 7081TIP3    H242659   2.111   2.535  13.123  1.2057  0.4653 -0.5429
 7082TIP3   OH242660   3.883   4.594  14.896 -0.1453  0.2202 -0.5356
 7082TIP3    H142661   3.855   4.661  14.833 -0.7688  2.3756  1.9565
 7082TIP3    H242662   3.978   4.601  14.898 -0.0458 -0.6097 -2.0366
 7083TIP3   OH242663   1.795   3.140  16.255 -0.4083 -0.3503  0.3828
 7083TIP3    H142664   1.746   3.222  16.255  1.0011  0.5423 -2.5290
 7083TIP3    H242665   1.738   3.078  16.211 -0.9868 -0.6412  1.5297
 7084TIP3   OH242666   4.561   6.621  13.626 -0.7480  0.3192  0.0754
 7084TIP3    H142667   4.625   6.557  13.598 -0.3672  0.0861  1.4715
 7084TIP3    H242668   4.570   6.693  13.563 -1.0510 -0.8853 -1.3818
 7085TIP3   OH242669   4.810   6.044   3.113 -0.0755  0.2902  0.6027
 7085TIP3    H142670   4.792   6.138   3.117 -1.8233  0.2078 -3.2563
 7085TIP3    H242671   4.846   6.030   3.025  1.5400 -2.4475  1.6441
 7086TIP3   OH242672   3.304   2.685   2.411  0.1052 -0.5430 -0.1242
 7086TIP3    H142673   3.336   2.698   2.500  1.1417 -2.4926 -0.1956
 7086TIP3    H242674   3.311   2.772   2.370  0.0436  0.2636  1.5410
 7087TIP3   OH242675   4.480   2.162  16.900  0.4414  0.4745  0.4564
 7087TIP3    H142676   4.400   2.145  16.950  1.8961 -1.2953  2.2704
 7087TIP3    H242677   4.457   2.138  16.810 -1.1459  0.1930  0.9131
 7088TIP3   OH242678   4.366   2.394  13.522 -0.4716  0.4547 -0.3980
 7088TIP3    H142679   4.444   2.439  13.488 -0.4474  0.3564 -0.4724
 7088TIP3    H242680   4.349   2.436  13.606  0.8139 -0.8287  0.5324
 7089TIP3   OH242681   2.353   5.950   2.574 -0.0326  0.1131 -0.8929
 7089TIP3    H142682   2.433   5.960   2.524 -0.2118 -0.3775 -1.2761
 7089TIP3    H242683   2.337   6.037   2.610  2.3080 -0.4652  1.7023
 7090TIP3   OH242684   0.044   3.898  15.957 -0.4338 -0.3394 -0.0071
 7090TIP3    H142685  -0.035   3.947  15.933  0.3908  0.5038 -1.0261
 7090TIP3    H242686   0.051   3.909  16.052 -2.1301 -1.3107  0.2533
 7091TIP3   OH242687   4.022   4.090   4.051  0.5870 -0.5147  0.2656
 7091TIP3    H142688   3.928   4.111   4.052  0.7514  0.2355  0.6810
 7091TIP3    H242689   4.026   4.002   4.014 -0.3034 -0.6575  0.4740
 7092TIP3   OH242690   3.636   1.413  14.065 -0.5776 -0.0205 -0.0956
 7092TIP3    H142691   3.541   1.402  14.060 -0.6702  0.5193  0.3783
 7092TIP3    H242692   3.670   1.374  13.985 -1.2029 -0.2274 -0.2576
 7093TIP3   OH242693   1.015   5.822   1.258 -0.1884  0.2260  0.4922
 7093TIP3    H142694   0.958   5.887   1.298 -0.8181 -1.0019  1.6106
 7093TIP3    H242695   1.061   5.782   1.331  0.1851 -0.5897 -0.1871
 7094TIP3   OH242696   4.649   5.214  17.202 -0.7090 -0.8855  0.0668
 7094TIP3    H142697   4.717   5.236  17.139  0.1237 -0.5859  1.0476
 7094TIP3    H242698   4.656   5.119  17.212 -0.7387 -0.9130 -0.1733
 7095TIP3   OH242699   2.111   1.619   0.944  0.9557 -0.2474 -0.2354
 7095TIP3    H142700   2.035   1.600   0.999  1.2684  0.1081  0.3228
 7095TIP3    H242701   2.074   1.638   0.857  0.3260  0.9235  0.2715
 7096TIP3   OH242702   4.000   6.761   2.568  0.6827 -0.0569 -0.0350
 7096TIP3    H142703   4.017   6.670   2.544 -1.7099 -0.3078 -0.9934
 7096TIP3    H242704   3.950   6.795   2.493  1.2358  1.9332  0.4862
 7097TIP3   OH242705   2.829   2.618  11.829 -0.7278  0.2293 -0.4510
 7097TIP3    H142706   2.822   2.536  11.781 -0.5079 -0.3290  0.4481
 7097TIP3    H242707   2.823   2.592  11.921  1.0113  1.0297 -0.0857
 7098TIP3   OH242708   3.178   6.757   0.855 -0.4110 -0.0876 -0.6750
 7098TIP3    H142709   3.158   6.715   0.771  1.0068  1.0196 -1.5824
 7098TIP3    H242710   3.257   6.713   0.886 -0.2618  0.3023 -0.4965
 7099TIP3   OH242711   2.921   4.931  12.698  0.1427  0.2251  0.3950
 7099TIP3    H142712   2.985   4.965  12.761  0.2818  0.0992  0.3211
 7099TIP3    H242713   2.866   4.873  12.750 -0.3554  0.8894  0.6129
 7100TIP3   OH242714   5.117   1.263  11.752 -0.6160  0.0716 -0.1176
 7100TIP3    H142715   5.023   1.273  11.733 -0.9539  0.5469  1.6623
 7100TIP3    H242716   5.135   1.170  11.738 -0.3363  0.7116 -4.6929
 7101TIP3   OH242717   0.979   5.095   3.064 -0.2359  0.6096 -0.7015
 7101TIP3    H142718   0.907   5.095   3.126 -1.3512 -0.3822 -1.9585
 7101TIP3    H242719   0.938   5.114   2.980  0.8943 -0.3410 -1.4854
 7102TIP3   OH242720   3.694   1.893   0.723  0.0155  0.0422 -0.0409
 7102TIP3    H142721   3.634   1.963   0.697  0.6637  2.2664  4.0295
 7102TIP3    H242722   3.781   1.931   0.710  0.4227 -0.7526  0.3636
 7103TIP3   OH242723   5.178   0.539   3.710  0.4572  0.1218 -0.0123
 7103TIP3    H142724   5.113   0.574   3.649 -0.7758 -0.2629  1.0631
 7103TIP3    H242725   5.211   0.460   3.667  0.2372  0.3401 -0.5878
 7104TIP3   OH242726   3.779   0.368  16.420  0.4558 -0.1452 -0.1084
 7104TIP3    H142727   3.849   0.344  16.481  1.1857  1.3196 -0.3624
 7104TIP3    H242728   3.719   0.421  16.473  0.9658  0.9232 -0.5783
 7105TIP3   OH242729   2.727   1.393   2.958  0.6122 -0.0082 -0.3416
 7105TIP3    H142730   2.782   1.333   3.008 -0.3522 -0.3858  0.2948
 7105TIP3    H242731   2.654   1.413   3.017  0.0483  0.4443 -1.1804
 7106TIP3   OH242732   2.397   4.472  16.955  0.3306 -0.0745 -0.2308
 7106TIP3    H142733   2.351   4.485  16.872 -1.4856  1.3408  0.9839
 7106TIP3    H242734   2.462   4.543  16.957  0.0350  0.1931 -0.1908
 7107TIP3   OH242735   1.138   3.909  12.900 -0.0078 -0.7080 -0.1413
 7107TIP3    H142736   1.228   3.913  12.869 -0.0202 -0.5937 -0.1656
 7107TIP3    H242737   1.101   3.995  12.878 -0.0710 -0.6919  0.0219
 7108TIP3   OH242738   5.774   6.044  12.671  0.3620 -0.4371  0.0091
 7108TIP3    H142739   5.863   6.047  12.635 -0.4837  0.5236 -2.0615
 7108TIP3    H242740   5.787   6.048  12.766  2.6525 -3.2136 -0.0928
 7109TIP3   OH242741   3.265   0.769  14.884  0.3511  0.2574 -0.6080
 7109TIP3    H142742   3.187   0.815  14.853 -0.5716 -1.4080 -0.7761
 7109TIP3    H242743   3.336   0.805  14.830 -0.8438 -0.7608 -2.9201
 7110TIP3   OH242744   2.940   1.349   4.495  0.5315 -0.5380 -0.1869
 7110TIP3    H142745   2.996   1.312   4.563  1.8131 -0.0632 -0.9492
 7110TIP3    H242746   2.900   1.273   4.453  0.4935 -0.8829  0.4722
 7111TIP3   OH242747   4.535   2.917  10.643  0.8696  0.5092 -0.0265
 7111TIP3    H142748   4.535   2.968  10.724 -0.1375  0.0139  0.2994
 7111TIP3    H242749   4.455   2.943  10.597  1.3710  0.6938 -0.8028
 7112TIP3   OH242750   5.097   4.437   3.706  0.1545 -0.2476 -0.1658
 7112TIP3    H142751   5.056   4.409   3.624 -1.3434  0.8085  0.1913
 7112TIP3    H242752   5.025   4.475   3.757  1.2986  0.2354  1.1321
 7113TIP3   OH242753   6.167   5.518   5.999  0.6883  0.0923 -0.6251
 7113TIP3    H142754   6.194   5.498   6.089  0.9561 -1.1510 -0.9816
 7113TIP3    H242755   6.137   5.609   6.004  3.3839  0.9927  0.1226
 7114TIP3   OH242756   1.196   6.467   1.951 -0.1768  0.3488 -0.1849
 7114TIP3    H142757   1.161   6.441   2.036  0.3668  0.0077 -0.0665
 7114TIP3    H242758   1.148   6.414   1.888  1.4739 -1.5406  0.1021
 7115TIP3   OH242759   3.784   1.332   0.968 -0.1423 -0.5218 -0.1279
 7115TIP3    H142760   3.851   1.277   0.928  0.5690 -2.1666  3.0955
 7115TIP3    H242761   3.732   1.272   1.021 -1.8626  1.3158  0.3426
 7116TIP3   OH242762   0.668   5.767   3.596 -0.2879  0.2705  1.0251
 7116TIP3    H142763   0.611   5.759   3.672 -0.8517 -1.0383  0.4704
 7116TIP3    H242764   0.756   5.756   3.632 -0.6207 -1.5066  1.3335
 7117TIP3   OH242765   3.949   4.637   3.603  0.5027  0.0665  0.5314
 7117TIP3    H142766   4.022   4.611   3.546  0.6939  0.3683  0.6415
 7117TIP3    H242767   3.958   4.731   3.612 -1.5729  0.5464 -1.8111
 7118TIP3   OH242768   0.845   0.621  13.225  0.3250 -0.1820 -0.3205
 7118TIP3    H142769   0.883   0.645  13.310  1.4485 -0.8861 -0.6169
 7118TIP3    H242770   0.917   0.580  13.177  0.0517  1.3671 -2.1189
 7119TIP3   OH242771   4.677   5.017  11.454  0.3574 -0.0631 -0.3285
 7119TIP3    H142772   4.725   4.942  11.490  0.0099 -0.7717 -1.2955
 7119TIP3    H242773   4.718   5.033  11.369  0.4985  0.9229 -0.0788
 7120TIP3   OH242774   5.719   2.237  16.087  0.0151 -0.0102  0.1484
 7120TIP3    H142775   5.678   2.150  16.088  0.6855 -0.3421 -0.7379
 7120TIP3    H242776   5.801   2.225  16.136  0.5443 -0.0991 -0.7571
 7121TIP3   OH242777   4.288   5.875  13.184 -0.1254  0.3314  0.8487
 7121TIP3    H142778   4.291   5.900  13.091 -0.5386  0.1068  0.7742
 7121TIP3    H242779   4.374   5.838  13.202 -0.4513 -0.7327  0.2419
 7122TIP3   OH242780   6.305   6.001   5.714  0.5145  0.2351  0.1683
 7122TIP3    H142781   6.354   5.925   5.745  1.7821  0.1640 -1.9517
 7122TIP3    H242782   6.319   6.068   5.781  0.3100 -1.0125  1.4804
 7123TIP3   OH242783   1.681   2.812  16.642  0.3958 -0.7108 -0.0336
 7123TIP3    H142784   1.665   2.831  16.734 -0.4511  1.0735 -0.5153
 7123TIP3    H242785   1.749   2.875  16.616  0.6737 -1.2435 -0.6056
 7124TIP3   OH242786   6.384   3.287   1.833  0.3136 -0.3728  0.5469
 7124TIP3    H142787   6.347   3.286   1.744  1.6356 -2.8622 -0.0147
 7124TIP3    H242788   6.353   3.369   1.870 -1.7137 -0.0911 -1.6125
 7125TIP3   OH242789   5.405   1.889   3.477 -0.7728  0.0018  0.1577
 7125TIP3    H142790   5.412   1.814   3.419 -1.6549  0.1073 -0.0797
 7125TIP3    H242791   5.353   1.857   3.551  0.4089 -0.1573  0.9346
 7126TIP3   OH242792   5.460   3.587   5.867 -0.8257 -0.3167 -0.2105
 7126TIP3    H142793   5.548   3.604   5.834 -1.3563 -0.5719 -1.7983
 7126TIP3    H242794   5.427   3.673   5.893  0.0938 -0.2955  0.9469
 7127TIP3   OH242795   2.286   1.784  14.386  0.0725  0.4061  1.3099
 7127TIP3    H142796   2.313   1.697  14.355  2.8593  0.5655  3.0589
 7127TIP3    H242797   2.201   1.770  14.426 -1.1717 -0.7952 -1.6329
 7128TIP3   OH242798   4.991   1.589   2.232  0.0074  1.0951 -0.1631
 7128TIP3    H142799   4.950   1.540   2.304  0.1308  0.5931 -0.4269
 7128TIP3    H242800   5.020   1.521   2.171 -0.5924  1.5343 -0.9555
 7129TIP3   OH242801   4.151   1.954   4.792 -0.1934 -0.3209  0.4854
 7129TIP3    H142802   4.183   1.908   4.714  0.3287  1.0183 -0.1017
 7129TIP3    H242803   4.226   1.956   4.851  0.0485  0.5332  0.1565
 7130TIP3   OH242804   1.588   2.969   3.683  0.3326  0.7199  0.1102
 7130TIP3    H142805   1.663   2.990   3.627  0.0533 -0.2959 -0.6655
 7130TIP3    H242806   1.521   2.937   3.622  0.0642 -0.5324  1.0301
 7131TIP3   OH242807   5.025   1.311  13.921 -0.6453 -0.2777 -0.1440
 7131TIP3    H142808   5.059   1.265  13.997  0.4189  0.9485  0.1492
 7131TIP3    H242809   5.027   1.404  13.946  0.0666  0.1682 -1.7815
 7132TIP3   OH242810   6.602   3.129  12.719 -0.1868 -0.1071 -0.8041
 7132TIP3    H142811   6.550   3.091  12.790  0.6554 -0.3749 -0.3316
 7132TIP3    H242812   6.549   3.203  12.688 -0.9953 -0.5596 -0.5401
 7133TIP3   OH242813   6.732   0.149  13.409 -0.6529 -0.5010 -0.3106
 7133TIP3    H142814   6.683   0.096  13.347 -0.1341 -1.5713  0.1780
 7133TIP3    H242815   6.822   0.149  13.376 -1.2645  2.9197 -2.1854
 7134TIP3   OH242816   3.099   6.222   2.921 -0.1891 -0.4040 -0.0701
 7134TIP3    H142817   3.116   6.134   2.887 -1.3704  0.0758 -1.9822
 7134TIP3    H242818   3.008   6.239   2.898 -0.3178  0.8736  1.3439
 7135TIP3   OH242819   4.456   0.362   2.365 -0.2798 -0.1181 -0.1504
 7135TIP3    H142820   4.502   0.433   2.320 -0.9732  1.3226  1.3492
 7135TIP3    H242821   4.431   0.302   2.295  1.0958  0.6752 -1.3481
 7136TIP3   OH242822   6.491   4.754  15.798  0.4980 -0.0021 -0.4004
 7136TIP3    H142823   6.483   4.694  15.873  1.3467  0.4544  0.0664
 7136TIP3    H242824   6.470   4.840  15.834 -2.0231 -0.1911 -1.3688
 7137TIP3   OH242825   0.975   4.173  14.647  0.2281  0.0229  0.0736
 7137TIP3    H142826   0.947   4.238  14.582 -2.6857 -0.7576  0.5063
 7137TIP3    H242827   0.921   4.096  14.629  1.8062 -1.4014  1.2468
 7138TIP3   OH242828   0.053   4.920  15.533 -0.2355 -0.3727 -0.2242
 7138TIP3    H142829  -0.024   4.920  15.476  0.8704  0.5527 -1.7630
 7138TIP3    H242830   0.113   4.857  15.492  1.0887  1.2593 -0.8459
 7139TIP3   OH242831   6.068   1.290   1.253  0.0459 -0.1452  0.0974
 7139TIP3    H142832   6.086   1.316   1.344  0.5342  1.5981 -0.4806
 7139TIP3    H242833   6.009   1.358   1.220  0.3915 -0.4213 -1.0956
 7140TIP3   OH242834   6.064   2.810   3.434  0.2563 -0.2804  0.1908
 7140TIP3    H142835   5.977   2.823   3.473 -0.6944 -1.8344 -1.3118
 7140TIP3    H242836   6.048   2.754   3.358  2.3624  0.8116 -1.1201
 7141TIP3   OH242837   2.834   0.809  16.391  0.2388 -0.3176  0.0508
 7141TIP3    H142838   2.823   0.814  16.296  0.0003  0.9806  0.1447
 7141TIP3    H242839   2.928   0.791  16.403  0.3191 -0.2245 -0.4197
 7142TIP3   OH242840   6.391   5.311  12.934 -0.1666  0.0345  0.1900
 7142TIP3    H142841   6.435   5.227  12.917 -0.0488  0.0461  0.4380
 7142TIP3    H242842   6.444   5.376  12.889 -0.6409 -0.1037 -0.5940
 7143TIP3   OH242843   3.207   2.910   1.635 -0.4918 -0.1226 -0.0062
 7143TIP3    H142844   3.241   2.982   1.582  0.3849 -0.6131 -0.1044
 7143TIP3    H242845   3.208   2.834   1.578 -0.9188 -0.3331  0.2625
 7144TIP3   OH242846   1.434   2.337  14.811 -0.2636  0.3390 -0.4679
 7144TIP3    H142847   1.495   2.336  14.738  0.4670 -1.3641  0.1352
 7144TIP3    H242848   1.354   2.296  14.777 -0.9756  2.1764 -1.1262
 7145TIP3   OH242849   2.462   0.429  16.473  0.5582  0.1402  0.0239
 7145TIP3    H142850   2.391   0.491  16.461 -0.8848 -1.8055 -1.7532
 7145TIP3    H242851   2.540   0.484  16.484 -0.8789  2.2688 -0.1621
 7146TIP3   OH242852   3.838   0.809   1.838 -0.0874 -0.3941  0.0852
 7146TIP3    H142853   3.883   0.727   1.857 -0.6013 -0.0608  2.9867
 7146TIP3    H242854   3.909   0.872   1.826  0.3203 -1.3134 -2.6500
 7147TIP3   OH242855   5.377   5.963  16.549  0.0224 -0.4668 -0.1843
 7147TIP3    H142856   5.313   5.900  16.517 -0.1640 -0.2850 -0.1717
 7147TIP3    H242857   5.388   6.025  16.477  0.8968 -1.0371 -0.5398
 7148TIP3   OH242858   3.435   0.073   0.439  0.5691 -0.0219 -0.1511
 7148TIP3    H142859   3.358   0.096   0.387  1.3951  0.4454 -1.1984
 7148TIP3    H242860   3.489   0.020   0.380  0.6586 -1.0863  0.8595
 7149TIP3   OH242861   4.686   1.504   3.810  0.1612  0.4362  0.4135
 7149TIP3    H142862   4.656   1.438   3.873  0.1348  0.6421  0.6167
 7149TIP3    H242863   4.605   1.543   3.776  0.1640  0.1025  0.0102
 7150TIP3   OH242864   2.529   4.358  12.078  0.2787  0.1368 -0.1022
 7150TIP3    H142865   2.528   4.336  11.985  0.5652 -0.3976  0.0219
 7150TIP3    H242866   2.559   4.449  12.081 -0.8385  0.5339 -0.6065
 7151TIP3   OH242867   1.629   2.973  13.823  0.0213  0.0076 -0.0302
 7151TIP3    H142868   1.542   2.983  13.861 -0.4938 -1.1690 -0.8587
 7151TIP3    H242869   1.618   3.000  13.732  0.6168  0.2319 -0.0382
 7152TIP3   OH242870   6.033   2.162   5.721  0.0985  0.1953  0.1472
 7152TIP3    H142871   6.053   2.105   5.795 -0.9610  0.4701  0.6550
 7152TIP3    H242872   6.028   2.102   5.646 -1.4531 -0.4446  0.7485
 7153TIP3   OH242873   1.778   6.163   5.770 -0.3358 -0.1440  0.0127
 7153TIP3    H142874   1.738   6.249   5.758 -0.5097 -0.3150 -0.6229
 7153TIP3    H242875   1.706   6.101   5.760 -0.2614 -0.3555  0.7263
 7154TIP3   OH242876   1.421   5.065   6.094  0.1014  0.0201  0.2533
 7154TIP3    H142877   1.451   5.139   6.147 -0.7905 -0.8474  2.0023
 7154TIP3    H242878   1.482   4.994   6.114  0.0447 -0.1774 -0.2552
 7155TIP3   OH242879   4.189   1.980   3.019  0.3031  0.3529  0.3906
 7155TIP3    H142880   4.214   2.071   3.035 -0.1053  0.6502 -0.6190
 7155TIP3    H242881   4.264   1.929   3.048 -0.2906  0.8662  2.9888
 7156TIP3   OH242882   3.211   4.565  12.012 -0.1368 -0.1985 -0.1803
 7156TIP3    H142883   3.143   4.624  12.045  0.7200  0.1068  1.0822
 7156TIP3    H242884   3.198   4.563  11.917 -0.8712  1.1441 -0.1135
 7157TIP3   OH242885   5.272   0.715  13.998  0.4252 -0.1208  0.0094
 7157TIP3    H142886   5.262   0.750  14.086  0.3460  1.2021 -0.5069
 7157TIP3    H242887   5.237   0.784  13.941  2.0759 -0.2148 -1.1494
 7158TIP3   OH242888   3.298   2.096   2.831 -0.0295  0.2004 -0.0755
 7158TIP3    H142889   3.338   2.061   2.751 -0.5619  2.1043 -1.2122
 7158TIP3    H242890   3.262   2.181   2.805  1.5798  1.8219  2.6610
 7159TIP3   OH242891   5.509   0.574   5.324 -0.0553  0.3660  0.4102
 7159TIP3    H142892   5.599   0.546   5.305 -0.3689  0.3962 -1.1946
 7159TIP3    H242893   5.455   0.503   5.290 -0.6537  0.2383  1.5832
 7160TIP3   OH242894   1.313   5.171  12.722  0.5068  0.2319 -0.3209
 7160TIP3    H142895   1.276   5.088  12.754  0.1524  0.2400 -0.7012
 7160TIP3    H242896   1.358   5.208  12.798  0.3094 -0.1069 -0.0357
 7161TIP3   OH242897   6.054   1.132   4.350  0.1566  0.2088 -0.0360
 7161TIP3    H142898   6.073   1.183   4.272 -0.3269 -1.0360 -0.9746
 7161TIP3    H242899   6.136   1.086   4.369  0.2225  0.3819  0.1105
 7162TIP3   OH242900   2.257   5.017   6.358  0.2092 -0.5870 -0.1288
 7162TIP3    H142901   2.161   5.022   6.357  0.2148 -0.5766 -1.7733
 7162TIP3    H242902   2.286   5.088   6.300  1.2467  0.0018  1.0916
 7163TIP3   OH242903   3.309   5.683  15.174 -0.2501  0.3090 -0.0767
 7163TIP3    H142904   3.293   5.668  15.081 -2.3089  0.2711  0.2598
 7163TIP3    H242905   3.245   5.751  15.199 -1.0378 -1.0490  1.7215
 7164TIP3   OH242906   4.067   5.855   6.024  0.4963 -0.3044 -0.0434
 7164TIP3    H142907   4.115   5.917   5.970  1.8638 -1.4644 -0.1816
 7164TIP3    H242908   4.082   5.770   5.983  1.4837 -1.2057  2.0870
 7165TIP3   OH242909   5.716   1.790   6.810  0.5801  0.0097 -0.1046
 7165TIP3    H142910   5.777   1.732   6.765  2.7126  1.4448  0.8692
 7165TIP3    H242911   5.739   1.878   6.781 -0.5718  0.6410  0.8008
 7166TIP3   OH242912   6.289   1.349  15.320 -0.3774 -0.2669 -0.3413
 7166TIP3    H142913   6.276   1.300  15.238 -1.1549 -0.3085 -0.1897
 7166TIP3    H242914   6.316   1.283  15.383 -2.2375 -0.6479  0.0745
 7167TIP3   OH242915   6.128   5.839  14.890 -0.8890 -0.3045 -0.4659
 7167TIP3    H142916   6.153   5.748  14.875  0.8878  0.1177 -0.2153
 7167TIP3    H242917   6.142   5.853  14.984 -2.6733 -0.2145 -0.2064
 7168TIP3   OH242918   2.326   0.606  11.848 -0.2573 -0.2435  0.0572
 7168TIP3    H142919   2.396   0.542  11.841 -1.0650 -1.3168  1.5795
 7168TIP3    H242920   2.301   0.625  11.758  0.0530 -1.9932 -0.4085
 7169TIP3   OH242921   4.510   6.012   0.898  0.2475 -0.0990  0.3193
 7169TIP3    H142922   4.564   5.993   0.821  0.4040  0.5223  0.2693
 7169TIP3    H242923   4.422   5.984   0.873 -0.3290  2.8561 -1.2547
 7170TIP3   OH242924   2.407   4.705   1.825 -0.6920 -0.0881 -0.1940
 7170TIP3    H142925   2.475   4.772   1.819  0.6861 -1.3793  0.7827
 7170TIP3    H242926   2.448   4.626   1.790 -2.3215 -0.4326 -1.3700
 7171TIP3   OH242927   3.802   3.515  13.460  0.3877 -0.4766 -0.1324
 7171TIP3    H142928   3.761   3.469  13.533 -2.1781  1.0993 -0.4924
 7171TIP3    H242929   3.729   3.555  13.413  2.2380  1.0920 -1.7910
 7172TIP3   OH242930   2.627   1.282  12.122  0.0640  0.1484 -0.1911
 7172TIP3    H142931   2.668   1.320  12.044 -0.0867 -0.3996 -0.5434
 7172TIP3    H242932   2.676   1.318  12.195  1.2361 -0.5459 -0.6140
 7173TIP3   OH242933   3.291   2.313  16.580 -0.2962  0.0575 -0.2028
 7173TIP3    H142934   3.215   2.332  16.524 -0.7509  0.3721  0.5158
 7173TIP3    H242935   3.322   2.399  16.609  0.7457 -0.0308 -1.0271
 7174TIP3   OH242936   3.640   3.337  13.641 -0.6399 -0.0126  0.4226
 7174TIP3    H142937   3.711   3.328  13.705 -1.4862  0.3134  1.4169
 7174TIP3    H242938   3.560   3.327  13.692 -1.4319  3.6205  0.0543
 7175TIP3   OH242939   4.356   3.597   1.571  0.1648 -0.2398  0.5677
 7175TIP3    H142940   4.390   3.570   1.657 -1.9110  1.0996  1.8419
 7175TIP3    H242941   4.278   3.543   1.558  1.3316 -1.5473 -1.2195
 7176TIP3   OH242942   2.579   3.789   1.195  0.8155 -0.2701 -0.0409
 7176TIP3    H142943   2.485   3.773   1.199  0.6200  0.5693 -1.1143
 7176TIP3    H242944   2.613   3.750   1.276 -0.2355 -1.9566 -0.3812
 7177TIP3   OH242945   1.589   3.485  14.954  0.9247  0.6707  0.3182
 7177TIP3    H142946   1.538   3.422  15.005 -1.0297 -0.0799 -2.4542
 7177TIP3    H242947   1.631   3.540  15.020 -2.1092  0.2383  2.7380
 7178TIP3   OH242948   5.213   5.595  14.391 -0.1121  0.3484 -0.3974
 7178TIP3    H142949   5.211   5.500  14.405 -0.5297  0.4025 -0.0637
 7178TIP3    H242950   5.265   5.607  14.312 -2.1301 -0.3097 -1.8518
 7179TIP3   OH242951   4.155   0.216   5.049 -0.2377 -0.2317 -0.0939
 7179TIP3    H142952   4.235   0.181   5.011  0.7816  0.8976  0.9584
 7179TIP3    H242953   4.098   0.235   4.975  0.5952 -0.7563 -0.8666
 7180TIP3   OH242954   1.620   5.978   1.326 -0.1416  0.2230 -0.2628
 7180TIP3    H142955   1.561   5.912   1.362 -0.1774 -0.0526 -0.8086
 7180TIP3    H242956   1.576   6.062   1.344 -0.0553  0.1056  0.5026
 7181TIP3   OH242957   4.482   5.441  10.110 -0.0314  0.5408 -0.6809
 7181TIP3    H142958   4.435   5.367  10.071  1.0118 -0.8042  0.5560
 7181TIP3    H242959   4.520   5.406  10.190  3.0931  1.6074 -1.6368
 7182TIP3   OH242960   2.287   3.447   4.334 -0.3426 -0.2200 -0.1149
 7182TIP3    H142961   2.250   3.527   4.371  2.5540  1.2455 -0.2630
 7182TIP3    H242962   2.283   3.383   4.406 -0.6141  0.7284  0.7258
 7183TIP3   OH242963   2.858   2.270  12.173 -1.0951  0.4044  0.0937
 7183TIP3    H142964   2.877   2.244  12.264 -0.9621 -0.4540 -0.1706
 7183TIP3    H242965   2.774   2.228  12.153 -1.3112  0.9082 -0.0548
 7184TIP3   OH242966   1.916   5.195  12.763 -0.3110  0.0999 -0.5519
 7184TIP3    H142967   2.004   5.228  12.783 -0.0543 -0.4246 -0.8101
 7184TIP3    H242968   1.862   5.274  12.756  0.0225  0.3943  0.1689
 7185TIP3   OH242969   4.109   5.246  16.369  0.7297  0.2513 -0.3628
 7185TIP3    H142970   4.026   5.291  16.353  0.3500  0.2571  1.4987
 7185TIP3    H242971   4.154   5.247  16.284 -1.6460 -0.7401 -1.6665
 7186TIP3   OH242972   3.312   0.504  13.951 -0.1477 -0.3178 -0.2626
 7186TIP3    H142973   3.243   0.442  13.978 -0.5504  0.6791  1.0382
 7186TIP3    H242974   3.379   0.449  13.912 -0.8603 -1.5079  0.1552
 7187TIP3   OH242975   2.263   4.572  16.244 -0.4774  0.3471  0.0321
 7187TIP3    H142976   2.355   4.593  16.231 -0.3331  0.7438  1.5550
 7187TIP3    H242977   2.262   4.522  16.326 -1.6317  0.4574  0.0900
 7188TIP3   OH242978   1.406   6.430  14.210 -0.2338  0.5522  0.3424
 7188TIP3    H142979   1.388   6.338  14.234 -1.6144  0.8681  0.5949
 7188TIP3    H242980   1.343   6.480  14.262 -0.8690  1.4999 -1.3175
 7189TIP3   OH242981   1.410   2.608   2.798 -0.0836  0.0886 -0.1153
 7189TIP3    H142982   1.418   2.519   2.834 -0.4890 -0.4668 -1.3709
 7189TIP3    H242983   1.495   2.626   2.758 -0.6676 -0.5616 -1.6858
 7190TIP3   OH242984   1.831   2.721  15.927  0.2554  0.0387 -0.6673
 7190TIP3    H142985   1.747   2.766  15.920  0.7080  0.9252 -0.5832
 7190TIP3    H242986   1.876   2.740  15.845  1.1274  1.1910  0.0430
 7191TIP3   OH242987   5.920   6.274   3.644  0.2300 -0.3608 -0.9447
 7191TIP3    H142988   5.908   6.222   3.565  0.5791 -0.5073 -0.9047
 7191TIP3    H242989   5.843   6.256   3.698 -0.2166  0.0718 -1.4361
 7192TIP3   OH242990   6.432   1.932  14.459  0.3005  0.2310 -0.7433
 7192TIP3    H142991   6.479   1.885  14.529 -0.0038 -1.3142 -1.5617
 7192TIP3    H242992   6.467   2.021  14.463 -1.2808  0.8090  2.8381
 7193TIP3   OH242993   1.386   3.355   3.126  0.4985  0.3006  0.7445
 7193TIP3    H142994   1.398   3.325   3.216  1.3017 -0.7209  0.3113
 7193TIP3    H242995   1.292   3.372   3.119  0.4809  0.7285  1.8726
 7194TIP3   OH242996   0.995   0.485  17.109  0.1592 -0.5506 -0.2126
 7194TIP3    H142997   1.067   0.547  17.115 -1.2847  1.2773 -1.2751
 7194TIP3    H242998   0.979   0.458  17.199  0.3284  1.2111  0.3679
 7195TIP3   OH242999   2.215   4.475   1.978  0.4670 -0.3340  0.4673
 7195TIP3    H143000   2.236   4.529   2.054 -1.5767  1.0900  0.0570
 7195TIP3    H243001   2.126   4.443   1.995 -0.6295  1.2481 -1.9611
 7196TIP3   OH243002   0.221   2.491   4.591  0.0114  0.3249 -0.1946
 7196TIP3    H143003   0.172   2.461   4.515 -1.1678 -2.5290  1.5926
 7196TIP3    H243004   0.181   2.576   4.613  0.3596  1.1689 -2.6838
 7197TIP3   OH243005   4.202   2.789  12.655  0.7436 -0.0983  0.1279
 7197TIP3    H143006   4.231   2.815  12.743  1.2575 -0.2692  0.0078
 7197TIP3    H243007   4.231   2.861  12.598  0.6879 -0.1372  0.0504
 7198TIP3   OH243008   0.152   2.115  13.627  0.3130  0.4553 -0.4043
 7198TIP3    H143009   0.219   2.048  13.613  1.1863  1.0452  0.8783
 7198TIP3    H243010   0.201   2.198  13.628 -0.4437  0.9022  0.3883
 7199TIP3   OH243011   0.580   0.473  12.159 -0.0088 -0.9601 -0.0636
 7199TIP3    H143012   0.529   0.457  12.239 -0.2889  0.9657  0.1711
 7199TIP3    H243013   0.579   0.389  12.113 -1.1571 -1.6727  1.2027
 7200TIP3   OH243014   2.038   0.179   1.008 -0.1620 -0.5863 -0.5301
 7200TIP3    H143015   2.130   0.166   0.986  0.3541 -1.4611  1.8764
 7200TIP3    H243016   1.994   0.103   0.969  0.4360 -1.1494 -0.1432
 7201TIP3   OH243017   6.148   4.765   5.269  0.4139 -0.3364  0.1456
 7201TIP3    H143018   6.151   4.858   5.248 -0.5832 -0.4167 -0.3497
 7201TIP3    H243019   6.240   4.739   5.276  0.6992  0.5881 -0.1279
 7202TIP3   OH243020   3.916   1.792  16.106 -0.1315  0.1210 -0.0971
 7202TIP3    H143021   3.960   1.786  16.021 -1.1865  1.8305 -0.8130
 7202TIP3    H243022   3.940   1.879  16.139 -1.6962  0.4634  0.1941
 7203TIP3   OH243023   1.861   3.328  12.911 -0.3329  0.8048  0.0733
 7203TIP3    H143024   1.780   3.310  12.959 -0.2192  1.1612  0.3925
 7203TIP3    H243025   1.831   3.340  12.820 -0.8778  2.8976  0.5220
 7204TIP3   OH243026   5.528   5.865  15.379 -1.0582 -0.2590 -0.1565
 7204TIP3    H143027   5.463   5.922  15.420  0.0243  1.0106 -0.1748
 7204TIP3    H243028   5.567   5.919  15.310  0.2065 -0.8873  0.0479
 7205TIP3   OH243029   0.712   6.004   2.366  0.0510 -0.7415 -0.1391
 7205TIP3    H143030   0.725   5.981   2.274 -2.1786 -0.0336 -0.6533
 7205TIP3    H243031   0.637   6.063   2.366  0.6547  0.0812  2.0415
 7206TIP3   OH243032   4.539   4.954  16.197 -0.0138 -0.1174  0.5312
 7206TIP3    H143033   4.570   4.910  16.118  1.2292 -0.2010  1.0400
 7206TIP3    H243034   4.568   5.045  16.188  0.2613 -0.1584  0.9368
 7207TIP3   OH243035   0.782   4.618  12.802  0.4259 -0.2347  0.4111
 7207TIP3    H143036   0.788   4.557  12.876 -1.6951  0.4388  1.1736
 7207TIP3    H243037   0.805   4.703  12.840  0.5840 -0.0867 -0.0132
 7208TIP3   OH243038   2.484   2.084  12.647  0.1550 -0.3220 -0.2972
 7208TIP3    H143039   2.545   2.041  12.587 -0.2547 -0.6755 -0.4599
 7208TIP3    H243040   2.492   2.177  12.627  0.9314 -0.3249 -0.0529
 7209TIP3   OH243041   1.976   2.620   2.739 -0.1681  0.1126 -0.6254
 7209TIP3    H143042   1.995   2.647   2.829  1.8384 -1.6432 -0.4837
 7209TIP3    H243043   2.004   2.694   2.685  0.0345  0.5522  0.0759
 7210TIP3   OH243044   5.989   2.596  11.394 -0.2750 -0.4377 -0.3459
 7210TIP3    H143045   5.932   2.541  11.340  0.3592 -1.3836 -0.0739
 7210TIP3    H243046   5.942   2.678  11.403 -2.0728 -1.5478  0.6979
 7211TIP3   OH243047   0.885   1.017  16.695  0.6586 -0.3354 -0.2533
 7211TIP3    H143048   0.959   0.962  16.717 -1.8793 -3.4530  0.8273
 7211TIP3    H243049   0.864   0.995  16.604  1.2416  0.7938 -0.6723
 7212TIP3   OH243050   0.823   4.485  11.642  0.0514  0.6759 -0.3392
 7212TIP3    H143051   0.875   4.439  11.708 -0.7443 -2.2033 -1.6243
 7212TIP3    H243052   0.734   4.455  11.657 -0.9165  3.7036  0.2944
 7213TIP3   OH243053   1.832   5.296  15.661  0.2899 -0.1893 -0.3796
 7213TIP3    H143054   1.899   5.306  15.729 -0.2792 -1.3062  0.3571
 7213TIP3    H243055   1.825   5.202  15.648  1.1746  0.0389 -2.7856
 7214TIP3   OH243056   5.414   5.608   2.400 -0.6587 -0.6551  0.2264
 7214TIP3    H143057   5.374   5.626   2.315  1.6974  3.8146 -0.0715
 7214TIP3    H243058   5.345   5.624   2.463 -1.1962  0.4056 -0.6153
 7215TIP3   OH243059   3.949   3.338   4.184  0.0920  0.3947  0.5096
 7215TIP3    H143060   4.012   3.334   4.256 -0.3830 -0.0893  0.9037
 7215TIP3    H243061   3.864   3.350   4.227 -0.0598  1.2720 -0.0276
 7216TIP3   OH243062   3.642   4.714  12.467 -0.3723 -0.3359 -0.6814
 7216TIP3    H143063   3.678   4.802  12.453  1.5683 -1.0794 -0.6331
 7216TIP3    H243064   3.575   4.704  12.400 -0.4112  1.0806 -0.8702
 7217TIP3   OH243065   3.926   1.458  13.557  0.0522 -0.7046  0.2712
 7217TIP3    H143066   3.920   1.432  13.649 -0.2608  0.4911  0.6076
 7217TIP3    H243067   3.843   1.429  13.519  0.0712 -0.9729  0.4355
 7218TIP3   OH243068   6.197   6.010   4.112 -0.0955 -0.3454 -0.4628
 7218TIP3    H143069   6.127   6.073   4.131 -0.6544 -0.3786 -2.2812
 7218TIP3    H243070   6.151   5.926   4.102  0.5488 -0.9031  1.1260
 7219TIP3   OH243071   1.620   1.623   6.387 -0.2601  0.3385 -0.1873
 7219TIP3    H143072   1.645   1.704   6.433 -0.5257  1.4800 -2.0194
 7219TIP3    H243073   1.558   1.580   6.446  0.3238  1.1772  1.0613
 7220TIP3   OH243074   3.415   4.840   5.510 -0.1621 -0.1081 -0.3661
 7220TIP3    H143075   3.506   4.815   5.491  0.5074  1.8020  0.2814
 7220TIP3    H243076   3.377   4.762   5.552  1.7669 -0.1870  1.2655
 7221TIP3   OH243077   1.684   5.506  15.660  0.3199  0.0913  0.4603
 7221TIP3    H143078   1.734   5.426  15.671 -0.5607 -0.6500 -0.7961
 7221TIP3    H243079   1.736   5.559  15.599 -0.9909 -1.2388 -1.9216
 7222TIP3   OH243080   6.085   6.198  12.528 -0.6801  0.2239  0.1778
 7222TIP3    H143081   6.081   6.102  12.534 -2.9969  0.1886 -1.3041
 7222TIP3    H243082   6.131   6.225  12.607 -0.9304 -2.0571  1.1474
 7223TIP3   OH243083   1.370   0.191  15.497  0.1160  0.1373  0.3516
 7223TIP3    H143084   1.364   0.143  15.580 -0.6554  0.6547  0.5963
 7223TIP3    H243085   1.290   0.166  15.450  0.7897 -0.5355 -0.4396
 7224TIP3   OH243086   3.875   0.236   3.517 -0.6121  0.5719  0.1150
 7224TIP3    H143087   3.867   0.141   3.518  0.2210  0.4834 -0.7606
 7224TIP3    H243088   3.909   0.258   3.604  0.7796 -0.0890 -0.2474
 7225TIP3   OH243089   3.814   5.730   4.548 -0.5037 -0.0395  0.7874
 7225TIP3    H143090   3.909   5.740   4.537 -0.4489 -0.7981  0.5058
 7225TIP3    H243091   3.797   5.639   4.523 -1.3907  0.2692  0.2560
 7226TIP3   OH243092   3.712   3.369  10.993  0.3657 -0.1289 -0.1470
 7226TIP3    H143093   3.728   3.440  10.931 -0.6899 -2.0601 -2.7239
 7226TIP3    H243094   3.623   3.341  10.976 -0.2437 -0.2053  2.8423
 7227TIP3   OH243095   2.384   6.072  13.273 -0.3240 -0.0365  0.1722
 7227TIP3    H143096   2.428   6.000  13.228 -0.0991 -0.2203  0.6826
 7227TIP3    H243097   2.303   6.085  13.224 -1.1690 -1.7475  1.0837
 7228TIP3   OH243098   4.994   4.120   0.737 -0.4312  0.0159  0.2121
 7228TIP3    H143099   5.078   4.164   0.729  0.1819 -1.2973 -0.7214
 7228TIP3    H243100   4.943   4.152   0.663 -0.2744 -0.2160  0.0031
 7229TIP3   OH243101   5.519   6.129  15.772 -0.3463  0.9587  0.2111
 7229TIP3    H143102   5.530   6.145  15.866  1.4329  3.1008 -0.3355
 7229TIP3    H243103   5.588   6.067  15.750 -2.2918 -1.5020  0.7455
 7230TIP3   OH243104   1.787   1.831  13.108  0.0570  0.4492  0.6427
 7230TIP3    H143105   1.772   1.784  13.190  1.0037 -0.9032  0.0745
 7230TIP3    H243106   1.721   1.795  13.048  0.2043  0.5059  0.4485
 7231TIP3   OH243107   4.482   4.279   0.977 -0.2855 -0.2652  0.4084
 7231TIP3    H143108   4.535   4.257   1.054  1.1478 -0.7129 -0.6807
 7231TIP3    H243109   4.392   4.282   1.009  0.3163 -0.3093  2.1275
 7232TIP3   OH243110   2.067   2.926  15.147  0.0625 -0.1267  0.1488
 7232TIP3    H143111   2.098   2.842  15.180 -2.1512 -1.1875 -0.3704
 7232TIP3    H243112   2.051   2.979  15.225  2.7705  0.3434  0.4363
 7233TIP3   OH243113   2.544   4.169  15.148 -0.2825 -0.3474  0.1903
 7233TIP3    H143114   2.612   4.237  15.144  0.1498 -0.4803  3.7252
 7233TIP3    H243115   2.501   4.173  15.063  3.7378  0.1576 -1.9087
 7234TIP3   OH243116   4.303   1.579   1.301 -0.4413 -0.5204 -0.0686
 7234TIP3    H143117   4.293   1.534   1.216  1.5855 -0.8773 -0.1453
 7234TIP3    H243118   4.275   1.669   1.284  0.2695 -0.4997 -1.2269
 7235TIP3   OH243119   3.374   2.572   3.579 -0.1977  0.1464  0.2428
 7235TIP3    H143120   3.330   2.639   3.527  2.2467  0.5667 -1.3666
 7235TIP3    H243121   3.380   2.496   3.521  2.0630  0.4396  0.0477
 7236TIP3   OH243122   2.727   0.546  15.731 -0.1156 -0.0336 -0.1235
 7236TIP3    H143123   2.766   0.618  15.681 -0.2385  0.6754  0.7803
 7236TIP3    H243124   2.719   0.581  15.820 -2.3174 -0.3412 -0.1712
 7237TIP3   OH243125   0.057   5.889   3.006 -0.0339 -0.0488  0.4251
 7237TIP3    H143126   0.151   5.905   2.995  0.0619 -0.1053  1.0914
 7237TIP3    H243127   0.049   5.794   3.015  0.1553  0.1291  2.9044
 7238TIP3   OH243128   5.208   2.160   1.509 -0.6463  0.3274  0.1935
 7238TIP3    H143129   5.237   2.240   1.465 -1.6623 -0.2880 -1.6338
 7238TIP3    H243130   5.130   2.187   1.558 -1.5562  0.2546 -1.1970
 7239TIP3   OH243131   5.372   6.479   2.592 -0.1870 -0.4397 -0.2177
 7239TIP3    H143132   5.454   6.514   2.557 -0.4648 -0.4260 -0.8748
 7239TIP3    H243133   5.338   6.548   2.649  1.3687 -1.3370  1.8454
 7240TIP3   OH243134   0.187   1.110   3.811 -0.3678 -0.1594 -0.3305
 7240TIP3    H143135   0.173   1.064   3.728  0.0756 -0.1485 -0.4122
 7240TIP3    H243136   0.227   1.045   3.868 -0.9489 -0.2574 -0.0210
 7241TIP3   OH243137   3.103   4.375  15.580  0.0502 -0.1384  0.1870
 7241TIP3    H143138   3.095   4.470  15.573  0.1836 -0.3003 -2.8586
 7241TIP3    H243139   3.044   4.341  15.513 -1.5346 -2.3019  2.5806
 7242TIP3   OH243140   4.204   1.066  12.909 -0.4845 -0.1127  0.0165
 7242TIP3    H143141   4.141   1.042  12.977  0.0759  0.4319  0.7352
 7242TIP3    H243142   4.269   1.119  12.954 -1.3817  2.2764 -1.4208
 7243TIP3   OH243143   5.252   3.449   1.872 -0.3967 -0.2019 -0.4399
 7243TIP3    H143144   5.264   3.515   1.939 -0.1263 -0.8449  0.1472
 7243TIP3    H243145   5.170   3.474   1.829 -0.6762  0.0971  0.2547
 7244TIP3   OH243146   4.474   4.975   1.972 -0.2440 -0.2485 -0.0530
 7244TIP3    H143147   4.473   5.070   1.974 -1.1193 -0.2337 -1.2843
 7244TIP3    H243148   4.463   4.949   2.064 -1.8850  0.8212  0.0669
 7245TIP3   OH243149   6.050   0.728  15.735  0.2190 -0.3506 -0.5713
 7245TIP3    H143150   6.125   0.759  15.786 -0.5996  1.6345 -0.5304
 7245TIP3    H243151   6.086   0.660  15.679  1.9933  0.3309 -0.2992
 7246TIP3   OH243152   1.243   6.613  16.550  0.1492  0.4743 -0.5070
 7246TIP3    H143153   1.320   6.627  16.604  0.8647 -0.4457 -1.2743
 7246TIP3    H243154   1.258   6.529  16.508 -1.6076 -0.0696 -0.0977
 7247TIP3   OH243155   2.201   1.011   4.570 -0.0622 -0.2949  0.0049
 7247TIP3    H143156   2.233   1.079   4.631  1.1811 -0.8777  0.0195
 7247TIP3    H243157   2.136   1.056   4.517 -1.5378  0.1065  2.0969
 7248TIP3   OH243158   6.631   0.418   4.532 -0.1670 -0.0495 -0.3284
 7248TIP3    H143159   6.688   0.490   4.557 -0.1109 -0.2259  0.0557
 7248TIP3    H243160   6.564   0.416   4.601 -0.5498  0.0628 -0.6947
 7249TIP3   OH243161   4.112   5.940  15.907  0.0429  0.0250 -0.5475
 7249TIP3    H143162   4.110   5.965  15.999 -0.6808 -1.3626 -0.1707
 7249TIP3    H243163   4.189   5.983  15.872 -0.2775  1.4261  0.4566
 7250TIP3   OH243164   5.123   5.981  12.308  0.3946 -0.2317  0.4449
 7250TIP3    H143165   5.112   6.061  12.359  1.0980  0.3755 -0.3409
 7250TIP3    H243166   5.192   5.933  12.354  0.2485 -0.2040  0.6957
 7251TIP3   OH243167   4.795   1.409   2.356  0.3922  0.8314 -0.2200
 7251TIP3    H143168   4.822   1.365   2.436  2.2389  1.2866 -0.5776
 7251TIP3    H243169   4.710   1.449   2.378  0.3684  0.0444  1.1544
 7252TIP3   OH243170   0.834   0.280  12.650  0.5324  0.0118 -0.9139
 7252TIP3    H143171   0.824   0.247  12.561  0.1760  1.4378 -1.4119
 7252TIP3    H243172   0.772   0.227  12.702  0.9547 -1.0184 -1.4413
 7253TIP3   OH243173   2.625   1.031  16.291 -0.0967 -0.0955 -0.1570
 7253TIP3    H143174   2.651   1.049  16.381 -0.3487  1.5377 -0.3973
 7253TIP3    H243175   2.700   0.987  16.252  1.3069  2.2179 -0.1046
 7254TIP3   OH243176   6.623   3.246   6.616 -0.1338  0.0081  0.0813
 7254TIP3    H143177   6.686   3.204   6.675  1.9016 -0.3576 -2.2465
 7254TIP3    H243178   6.557   3.178   6.600 -0.0999 -0.2626  1.0917
 7255TIP3   OH243179   5.670   5.115  11.938 -0.1596  0.5266  0.0960
 7255TIP3    H143180   5.595   5.153  11.891 -0.9916 -0.9136  0.2168
 7255TIP3    H243181   5.635   5.091  12.024  0.4141 -0.2110  0.1318
 7256TIP3   OH243182   5.628   4.065  14.405 -0.0796  0.1365  0.1958
 7256TIP3    H143183   5.687   3.989  14.402  0.7627  0.8070 -0.5238
 7256TIP3    H243184   5.633   4.095  14.495 -1.8719 -1.7696  0.9913
 7257TIP3   OH243185   2.502   5.719  15.699 -0.1517 -0.0434  0.0443
 7257TIP3    H143186   2.436   5.771  15.653  1.1033 -0.3070 -2.1582
 7257TIP3    H243187   2.501   5.634  15.655 -0.0191 -0.8628  1.5841
 7258TIP3   OH243188   1.858   2.227   2.305  0.9662  0.2387  0.0075
 7258TIP3    H143189   1.828   2.136   2.297 -0.9769  0.5611  2.8344
 7258TIP3    H243190   1.778   2.279   2.296  1.6485  1.5017  1.1773
 7259TIP3   OH243191   1.733   4.273  11.827 -0.1109 -0.2449 -0.7114
 7259TIP3    H143192   1.668   4.311  11.768  0.2889  0.6866 -0.5723
 7259TIP3    H243193   1.796   4.344  11.842  0.2801 -0.7511  0.1134
 7260TIP3   OH243194   5.817   4.813   0.653 -0.1284 -0.1008  0.1418
 7260TIP3    H143195   5.880   4.740   0.661  1.2052  1.0037 -0.0663
 7260TIP3    H243196   5.835   4.868   0.729 -1.0857  0.0446  0.2605
 7261TIP3   OH243197   5.373   3.655  10.428  0.1641  0.7933  0.5762
 7261TIP3    H143198   5.296   3.707  10.404  0.0377  0.3473 -0.0136
 7261TIP3    H243199   5.340   3.593  10.493 -0.2707 -0.1927 -0.5498
 7262TIP3   OH243200   5.831   5.623   5.406  0.6566  0.3689  0.1088
 7262TIP3    H143201   5.742   5.638   5.439  0.7756  0.1469  0.5385
 7262TIP3    H243202   5.819   5.568   5.329  0.5611 -1.6614  1.5173
 7263TIP3   OH243203   3.313   2.625  11.795 -0.1625 -0.2067 -0.2344
 7263TIP3    H143204   3.252   2.559  11.762 -1.4237  1.3367 -1.1016
 7263TIP3    H243205   3.342   2.671  11.716  0.6546  0.3089  0.3675
 7264TIP3   OH243206   4.029   1.685   3.967 -0.2067 -0.6894  0.7916
 7264TIP3    H143207   3.938   1.658   3.982  0.5958 -3.2068  1.3000
 7264TIP3    H243208   4.035   1.696   3.872 -2.0334  3.3522  1.0162
 7265TIP3   OH243209   3.750   0.439  12.788 -0.0064  0.1697 -0.1444
 7265TIP3    H143210   3.732   0.532  12.797  1.1936  0.5579 -1.7007
 7265TIP3    H243211   3.753   0.406  12.878  0.9422  1.8824  0.4591
 7266TIP3   OH243212   1.208   5.134   3.206  0.2779 -0.2247 -0.3701
 7266TIP3    H143213   1.143   5.135   3.136 -0.5632 -1.3114  0.3805
 7266TIP3    H243214   1.235   5.225   3.214 -1.5322  0.3376 -0.3487
 7267TIP3   OH243215   3.896   2.596  11.131 -0.2420  0.3353 -0.1460
 7267TIP3    H143216   3.966   2.639  11.181 -0.1153  0.6487 -0.5872
 7267TIP3    H243217   3.941   2.559  11.055 -0.3898 -0.3855  0.1150
 7268TIP3   OH243218   6.012   4.040  12.771 -0.0126  0.1529 -0.3271
 7268TIP3    H143219   6.089   4.090  12.742  0.4168 -1.1690 -1.5015
 7268TIP3    H243220   6.018   4.041  12.867  0.8160  1.0696 -0.3750
 7269TIP3   OH243221   4.229   4.431  13.243  0.1550 -0.3896  0.2416
 7269TIP3    H143222   4.134   4.413  13.247 -0.4981  2.9878  1.2053
 7269TIP3    H243223   4.266   4.352  13.203 -3.1747 -1.3500 -1.1466
 7270TIP3   OH243224   4.178   4.535   1.222  0.4236 -0.3610  0.3594
 7270TIP3    H143225   4.092   4.544   1.263  0.3554 -2.2866  0.7228
 7270TIP3    H243226   4.234   4.597   1.269 -0.6913  0.6474  0.3614
 7271TIP3   OH243227   0.580   3.050  12.672  0.2096 -0.0132 -0.2289
 7271TIP3    H143228   0.534   3.073  12.753  0.5533 -1.3410  0.3655
 7271TIP3    H243229   0.545   3.110  12.606  0.3236  1.4338  1.0222
 7272TIP3   OH243230   5.144   2.461   2.625 -0.1890  0.4759  0.1310
 7272TIP3    H143231   5.052   2.457   2.650 -0.2621  1.3087  0.0356
 7272TIP3    H243232   5.144   2.446   2.530 -0.2134  0.3500  0.1509
 7273TIP3   OH243233   1.891   6.069   6.015 -0.5894  0.2951 -0.0233
 7273TIP3    H143234   1.822   6.018   6.059 -1.2413 -0.4813 -1.8738
 7273TIP3    H243235   1.931   6.006   5.955  2.5270  0.4219  1.7907
 7274TIP3   OH243236   6.089   3.485  17.198  0.4135  0.4257 -0.2588
 7274TIP3    H143237   6.130   3.443  17.123 -0.4363  0.8276 -0.9506
 7274TIP3    H243238   6.014   3.430  17.220  0.9681  0.0141  0.6378
 7275TIP3   OH243239   0.680   6.358   0.674 -0.3815 -0.0174 -0.3049
 7275TIP3    H143240   0.621   6.282   0.669  0.9647 -0.9510 -3.2769
 7275TIP3    H243241   0.648   6.418   0.606 -0.1141  1.1212  0.5558
 7276TIP3   OH243242   5.980   0.152  12.895 -0.3357  0.2585  0.2532
 7276TIP3    H143243   6.050   0.205  12.933 -0.8168  1.0121  0.0830
 7276TIP3    H243244   5.934   0.115  12.970 -0.0984  0.1965  0.3708
 7277TIP3   OH243245   2.802   5.196  15.890  0.0435 -0.2120  0.5279
 7277TIP3    H143246   2.881   5.237  15.855  0.0811  0.4592  1.3719
 7277TIP3    H243247   2.745   5.184  15.814  1.1113 -1.0692 -0.1526
 7278TIP3   OH243248   3.715   2.464  12.276 -0.7188  0.1463  1.1916
 7278TIP3    H143249   3.700   2.388  12.219  3.2991 -0.0939  0.3146
 7278TIP3    H243250   3.777   2.432  12.342 -1.4278  1.8373  2.7290
 7279TIP3   OH243251   0.143   6.686   2.283 -0.4336  0.2626  0.1304
 7279TIP3    H143252   0.182   6.772   2.267  0.0809 -0.1535 -0.9769
 7279TIP3    H243253   0.141   6.677   2.378 -1.0690  1.7508  0.2572
 7280TIP3   OH243254   6.269   3.676  11.772 -0.2131  0.2641 -0.0147
 7280TIP3    H143255   6.201   3.659  11.836 -1.8167  0.6644 -1.5759
 7280TIP3    H243256   6.266   3.601  11.713  1.8683 -0.5548  0.8700
 7281TIP3   OH243257   2.735   0.142   5.541  0.1569  0.0270  0.5996
 7281TIP3    H143258   2.722   0.234   5.562 -1.0491 -0.2254  1.0015
 7281TIP3    H243259   2.796   0.142   5.467 -0.6783  1.1835 -0.0981
 7282TIP3   OH243260   5.195   6.017  14.199 -0.0971 -0.1965 -0.2805
 7282TIP3    H143261   5.249   6.091  14.226 -0.8372  0.5777 -0.9081
 7282TIP3    H243262   5.155   6.045  14.117  0.0420 -1.5039 -0.8187
 7283TIP3   OH243263   5.817   6.643   5.115  0.1064 -0.6832 -0.0521
 7283TIP3    H143264   5.881   6.603   5.056  0.8342 -0.4931  0.6092
 7283TIP3    H243265   5.780   6.570   5.165 -0.2450 -0.7983 -0.4685
 7284TIP3   OH243266   6.512   1.006  13.483  0.2579  0.2067  0.0593
 7284TIP3    H143267   6.464   1.008  13.400  0.7157  0.1082 -0.2088
 7284TIP3    H243268   6.499   1.094  13.520 -0.9396 -0.1251  0.4590
 7285TIP3   OH243269   2.369   0.360   6.563  0.1558 -0.5424 -0.9397
 7285TIP3    H143270   2.414   0.442   6.584  2.2261 -1.9170  0.2151
 7285TIP3    H243271   2.422   0.320   6.495 -0.9001 -0.8995 -1.5664
 7286TIP3   OH243272   0.545   0.071   2.557 -0.4262 -0.0415 -0.2104
 7286TIP3    H143273   0.630   0.100   2.525 -0.8408  2.6955  1.0806
 7286TIP3    H243274   0.512   0.012   2.489  1.4145  0.7964 -1.8384
 7287TIP3   OH243275   4.111   6.205  11.616  0.4696  0.6833 -0.2512
 7287TIP3    H143276   4.193   6.158  11.601  0.8718  1.7441 -1.4632
 7287TIP3    H243277   4.108   6.218  11.710  0.3648 -1.7172  0.1248
 7288TIP3   OH243278   1.865   2.408  15.044  0.0013 -0.4616 -0.0166
 7288TIP3    H143279   1.846   2.383  14.954 -0.4812  0.2040 -0.1026
 7288TIP3    H243280   1.780   2.435  15.080  0.4653  0.8725  0.1255
 7289TIP3   OH243281   5.240   5.394   1.935 -0.0637  0.2216  0.1804
 7289TIP3    H143282   5.203   5.369   1.850  0.7541 -0.3749 -0.0058
 7289TIP3    H243283   5.173   5.368   1.998 -0.1289 -0.5189 -0.1852
 7290TIP3   OH243284   0.654   6.322  15.852 -0.6621  0.2245  0.0368
 7290TIP3    H143285   0.612   6.399  15.813 -0.3139  0.1015 -0.5840
 7290TIP3    H243286   0.747   6.341  15.848 -0.6294  0.2710  0.9479
 7291TIP3   OH243287   4.661   1.237  12.258  0.3566  0.0707  0.1591
 7291TIP3    H143288   4.681   1.152  12.220 -1.1308 -0.2576  0.0816
 7291TIP3    H243289   4.692   1.300  12.193  0.9532 -0.4125 -0.0331
 7292TIP3   OH243290   5.985   1.676  11.555  0.5648 -0.2789  0.1261
 7292TIP3    H143291   6.003   1.758  11.601  2.3632 -0.8338  0.4484
 7292TIP3    H243292   5.897   1.650  11.585  0.2437  1.1971  0.4905
 7293TIP3   OH243293   3.107   4.006  17.147 -0.7114 -0.2935 -0.4170
 7293TIP3    H143294   3.071   4.074  17.204 -0.9481  0.2069 -1.1558
 7293TIP3    H243295   3.069   3.925  17.179 -2.1474  0.1779 -0.9256
 7294TIP3   OH243296   1.568   0.249  16.992  0.0601  0.3085 -0.1244
 7294TIP3    H143297   1.576   0.158  16.964 -0.5667  0.4066 -0.6362
 7294TIP3    H243298   1.478   0.257  17.024 -0.3294  1.0831 -1.3628
 7295TIP3   OH243299   3.207   4.488  12.452 -0.1112  0.2289 -0.2785
 7295TIP3    H143300   3.112   4.484  12.436 -0.0182 -0.9963 -0.5539
 7295TIP3    H243301   3.220   4.574  12.491 -1.1600  0.9493 -1.4337
 7296TIP3   OH243302   3.859   4.474   1.976 -0.9130 -0.0230  0.2332
 7296TIP3    H143303   3.944   4.517   1.984 -0.7022 -0.4938  0.5737
 7296TIP3    H243304   3.836   4.482   1.884 -0.0788 -0.6765 -0.0366
 7297TIP3   OH243305   0.848   5.507   3.464  0.3355 -0.0944  0.0132
 7297TIP3    H143306   0.837   5.455   3.385  0.4884  2.0328 -1.4602
 7297TIP3    H243307   0.943   5.516   3.474  0.3765 -1.9785  1.5651
 7298TIP3   OH243308   0.532   0.589   4.304  0.3436  0.2298 -0.4069
 7298TIP3    H143309   0.479   0.515   4.334  1.6518 -0.7567 -0.4938
 7298TIP3    H243310   0.518   0.591   4.210  0.0394  0.3141 -0.3619
 7299TIP3   OH243311   0.744   0.779   0.599  0.1395  0.0324 -0.1884
 7299TIP3    H143312   0.773   0.701   0.553 -0.8573  0.4103 -1.4781
 7299TIP3    H243313   0.804   0.786   0.674  2.1629 -0.2648 -1.7218
 7300TIP3   OH243314   0.364   2.310   3.635  0.5174  0.1272  0.4350
 7300TIP3    H143315   0.451   2.348   3.625 -0.6609  2.5047 -0.9882
 7300TIP3    H243316   0.336   2.289   3.546 -1.3037  1.5129  0.6544
 7301TIP3   OH243317   2.804   1.874   5.786  0.4624 -0.0753 -0.2711
 7301TIP3    H143318   2.850   1.831   5.714  0.5636  1.1305 -0.9305
 7301TIP3    H243319   2.738   1.929   5.744 -2.7455 -2.9774  0.6668
 7302TIP3   OH243320   3.607   0.740  15.271 -0.1363 -0.3862 -0.7889
 7302TIP3    H143321   3.530   0.709  15.224 -0.7197 -0.7670  0.3931
 7302TIP3    H243322   3.590   0.833  15.286  0.6467  0.0344 -2.4672
 7303TIP3   OH243323   0.591   1.059  14.288  0.0082  0.0745 -0.2524
 7303TIP3    H143324   0.546   1.062  14.203  1.7620  0.1729 -1.1852
 7303TIP3    H243325   0.542   0.993  14.338 -0.1285 -1.0704 -1.8547
 7304TIP3   OH243326   1.059   4.638  14.675 -0.5320  0.1384  0.0186
 7304TIP3    H143327   0.970   4.622  14.646 -0.0512 -2.5966 -0.1364
 7304TIP3    H243328   1.081   4.561  14.729  1.0025  1.7636  1.8083
 7305TIP3   OH243329   2.990   6.461  14.842  0.5219 -0.1445 -0.8221
 7305TIP3    H143330   3.042   6.445  14.921 -1.1079  1.6205  0.6688
 7305TIP3    H243331   3.054   6.466  14.771  2.1461 -0.4654  0.5860
 7306TIP3   OH243332   5.341   0.460   2.594 -0.2368 -0.2764  0.5117
 7306TIP3    H143333   5.267   0.506   2.635  0.0902  0.7790 -0.0742
 7306TIP3    H243334   5.387   0.528   2.545  0.8966 -1.0139  0.5494
 7307TIP3   OH243335   0.042   4.267  16.520  0.0858  0.1409  0.5051
 7307TIP3    H143336  -0.000   4.192  16.478 -1.7942  0.3517  1.9406
 7307TIP3    H243337  -0.031   4.319  16.554  1.4975  0.3511  3.3545
 7308TIP3   OH243338   0.526   6.204   2.369 -0.4476 -0.2779 -0.3745
 7308TIP3    H143339   0.450   6.204   2.310  0.2900 -1.5399 -1.3533
 7308TIP3    H243340   0.491   6.174   2.453 -1.2575  0.2598 -0.5115
 7309TIP3   OH243341   0.984   0.061   3.393  0.7420 -0.1709 -0.0543
 7309TIP3    H143342   0.903   0.101   3.361  0.9875 -0.1024 -0.6005
 7309TIP3    H243343   1.038   0.050   3.315  0.5821 -1.8301  0.0491
 7310TIP3   OH243344   1.278   6.286   0.387 -0.3512  0.4495 -0.1958
 7310TIP3    H143345   1.276   6.365   0.441 -1.0118  0.3244 -0.0362
 7310TIP3    H243346   1.308   6.217   0.446 -1.6847  0.1857  0.1773
 7311TIP3   OH243347   6.348   5.177  11.697  0.1248  0.4292  0.0771
 7311TIP3    H143348   6.289   5.104  11.678  0.8683 -0.1384 -0.0761
 7311TIP3    H243349   6.368   5.168  11.790  1.8753 -0.8103 -0.3943
 7312TIP3   OH243350   2.860   3.094  16.334  0.0940  0.3371 -0.3527
 7312TIP3    H143351   2.897   3.126  16.251  1.6738 -3.1280 -1.0666
 7312TIP3    H243352   2.766   3.090  16.317  0.2889  0.7284 -1.6317
 7313TIP3   OH243353   1.489   2.552   5.878  0.0934 -0.3702 -0.3614
 7313TIP3    H143354   1.583   2.546   5.892 -0.0471  0.2489  0.8538
 7313TIP3    H243355   1.450   2.534   5.963 -0.8769 -0.1684 -0.7535
 7314TIP3   OH243356   2.422   4.665  13.956 -0.3121 -0.4423  0.0015
 7314TIP3    H143357   2.375   4.725  13.897  0.2110 -0.0516 -0.0267
 7314TIP3    H243358   2.514   4.687  13.942 -0.2004 -0.1384  1.2017
 7315TIP3   OH243359   1.318   6.587   3.225 -0.3798  0.6290  0.0486
 7315TIP3    H143360   1.244   6.537   3.192  0.5217 -0.8768  0.2699
 7315TIP3    H243361   1.297   6.604   3.317 -0.7847  0.8472 -0.0852
 7316TIP3   OH243362   2.148   2.902   5.489  0.3310  0.2936 -0.0603
 7316TIP3    H143363   2.119   2.952   5.566  1.3466  0.3379  0.2935
 7316TIP3    H243364   2.230   2.943   5.463  0.8112 -0.7496 -0.1972
 7317TIP3   OH243365   2.134   1.959   0.062  0.4507  0.3864 -0.3947
 7317TIP3    H143366   2.150   2.043   0.020  0.7554 -1.3916 -4.0765
 7317TIP3    H243367   2.220   1.919   0.072  0.4578  1.0385  2.6720
 7318TIP3   OH243368   0.214   0.202   0.648 -0.1115  0.4473 -0.7402
 7318TIP3    H143369   0.221   0.113   0.615  1.3789  0.4502 -0.4966
 7318TIP3    H243370   0.238   0.196   0.740 -1.2587  0.9105 -0.4008
 7319TIP3   OH243371   2.452   4.604  15.821  0.3526  0.5503 -0.6756
 7319TIP3    H143372   2.537   4.645  15.804 -0.8826  1.9025 -3.9431
 7319TIP3    H243373   2.434   4.553  15.742 -2.0972  0.7156 -0.2526
 7320TIP3   OH243374   4.014   4.745   4.549 -0.1087  0.1129 -0.1204
 7320TIP3    H143375   3.962   4.763   4.627 -1.5737 -0.6823 -0.8910
 7320TIP3    H243376   3.978   4.664   4.514  1.5870 -0.3913 -0.7523
 7321TIP3   OH243377   1.817   6.572   5.274 -0.3040  0.6051  0.0387
 7321TIP3    H143378   1.787   6.571   5.184 -0.0781 -0.8274 -0.0309
 7321TIP3    H243379   1.769   6.644   5.315 -1.3041  0.4836 -0.9130
 7322TIP3   OH243380   0.911   4.745  13.417  0.4432 -0.1288 -0.2369
 7322TIP3    H143381   0.986   4.720  13.472  0.6547 -1.1111 -0.9659
 7322TIP3    H243382   0.843   4.769  13.480  1.3581  0.7687  0.4341
 7323TIP3   OH243383   3.936   1.593   3.452 -0.2656 -0.3669  0.0351
 7323TIP3    H143384   3.900   1.521   3.399  0.4619 -0.3472 -0.4978
 7323TIP3    H243385   3.910   1.672   3.405  0.8357 -0.3667 -0.6017
 7324TIP3   OH243386   2.262   1.954  15.994 -0.1887 -0.5696 -0.7053
 7324TIP3    H143387   2.304   2.017  15.935  2.0402 -1.2393  0.1202
 7324TIP3    H243388   2.232   1.884  15.936  1.0022 -0.6993 -1.1766
 7325TIP3   OH243389   1.992   6.246  14.150  0.2069 -0.0502 -0.3223
 7325TIP3    H143390   1.954   6.333  14.136  0.7949  0.2865  0.1535
 7325TIP3    H243391   1.919   6.185  14.137  0.1060  0.4145 -2.0809
 7326TIP3   OH243392   2.558   6.182  13.666  0.1026 -0.6345 -0.0856
 7326TIP3    H143393   2.476   6.224  13.640  1.0912 -0.3553 -2.9006
 7326TIP3    H243394   2.626   6.245  13.643  1.2823 -1.8696 -0.0485
 7327TIP3   OH243395   1.391   3.208   5.307 -0.1953 -0.3808 -0.5415
 7327TIP3    H143396   1.476   3.167   5.326 -0.2605  0.8823  2.8483
 7327TIP3    H243397   1.328   3.156   5.356 -1.0576  0.2852 -0.9388
 7328TIP3   OH243398   1.268   5.664  14.074  0.1565 -0.6127  0.2435
 7328TIP3    H143399   1.271   5.756  14.048  0.5538 -0.8855 -0.6884
 7328TIP3    H243400   1.323   5.619  14.010 -0.0082 -1.4935  0.7178
 7329TIP3   OH243401   5.204   6.760   3.319 -0.4501  0.2387  0.3733
 7329TIP3    H143402   5.212   6.706   3.397 -2.4352 -1.4092 -0.5270
 7329TIP3    H243403   5.254   6.713   3.252 -0.1511  0.7842  0.2090
 7330TIP3   OH243404   5.433   2.400   2.198 -0.5863  0.0661 -0.3688
 7330TIP3    H143405   5.518   2.432   2.165 -0.6412  0.4879 -0.1041
 7330TIP3    H243406   5.374   2.411   2.124 -0.2993 -0.6923 -0.7138
 7331TIP3   OH243407   5.398   3.294   3.430  0.2597  0.2252 -0.1694
 7331TIP3    H143408   5.442   3.226   3.481 -0.9526 -0.7953 -0.4716
 7331TIP3    H243409   5.401   3.371   3.486  1.3340 -0.1593  0.3231
 7332TIP3   OH243410   4.904   5.927   1.015 -0.0119 -0.1954 -0.0385
 7332TIP3    H143411   4.873   5.871   0.944 -1.8275 -0.5799  1.0250
 7332TIP3    H243412   4.867   6.013   0.996 -1.3219 -0.5292  0.9473
 7333TIP3   OH243413   0.449   5.624  12.877 -0.2030  0.2288 -0.4692
 7333TIP3    H143414   0.374   5.665  12.919 -0.3017 -1.4103  1.0176
 7333TIP3    H243415   0.497   5.581  12.949 -0.1654 -2.3158 -1.9316
 7334TIP3   OH243416   4.802   6.707   1.516 -0.2964 -0.5623  0.1839
 7334TIP3    H143417   4.852   6.627   1.501 -1.0491 -1.1759  0.9441
 7334TIP3    H243418   4.807   6.754   1.432 -0.7867 -1.9257 -0.6244
 7335TIP3   OH243419   0.891   2.649  16.205 -0.2281  0.0916  0.0506
 7335TIP3    H143420   0.959   2.584  16.222 -0.1756  0.3557  0.9001
 7335TIP3    H243421   0.885   2.698  16.287 -1.8835 -0.3339  0.2009
 7336TIP3   OH243422   5.904   2.687  11.992 -0.1135  0.2495  0.0721
 7336TIP3    H143423   5.824   2.677  12.044 -0.3451  2.0881  0.0965
 7336TIP3    H243424   5.969   2.634  12.038 -1.5174 -2.0114 -0.4467
 7337TIP3   OH243425   4.359   0.955   3.889 -0.9419  0.5867  0.4503
 7337TIP3    H143426   4.359   0.875   3.942 -2.0492  0.3661  0.1242
 7337TIP3    H243427   4.268   0.984   3.890 -0.6910  1.3999 -0.1074
 7338TIP3   OH243428   0.852   2.834   2.264  0.2441 -0.1920 -0.1360
 7338TIP3    H143429   0.759   2.813   2.265  0.5452 -1.5685 -0.1438
 7338TIP3    H243430   0.877   2.830   2.172  0.4250 -0.3144 -0.0809
 7339TIP3   OH243431   5.361   6.771   5.096 -0.2048 -1.0584  0.3317
 7339TIP3    H143432   5.451   6.797   5.115 -0.4420 -0.3025  0.4550
 7339TIP3    H243433   5.363   6.746   5.003  0.0742 -0.7515  0.2510
 7340TIP3   OH243434   1.401   3.013   4.066 -0.0310 -0.0252 -0.0923
 7340TIP3    H143435   1.372   3.104   4.074 -2.9952 -0.8326 -0.7847
 7340TIP3    H243436   1.330   2.962   4.107 -0.2396 -2.2260 -3.0405
 7341TIP3   OH243437   0.372   1.513   2.934 -0.1575 -0.0489 -0.1412
 7341TIP3    H143438   0.390   1.424   2.964 -0.1755 -0.7347 -2.0911
 7341TIP3    H243439   0.326   1.501   2.851  0.9027  1.8092 -1.0130
 7342TIP3   OH243440   2.501   6.705   5.432 -0.4693  0.1181 -0.3180
 7342TIP3    H143441   2.520   6.612   5.447 -3.3380 -0.5920 -0.7745
 7342TIP3    H243442   2.528   6.748   5.513  0.9984 -1.0831 -0.1413
 7343TIP3   OH243443   4.209   4.073  14.424 -0.8549  0.4073 -0.2436
 7343TIP3    H143444   4.164   4.143  14.376 -0.3576 -0.8372 -2.5847
 7343TIP3    H243445   4.142   4.005  14.434 -0.4731 -0.0484 -0.7423
 7344TIP3   OH243446   0.191   5.063   1.299  0.4356 -0.4763 -0.2077
 7344TIP3    H143447   0.242   4.993   1.257  1.8354  0.8709 -0.7858
 7344TIP3    H243448   0.103   5.052   1.264  1.5537  0.5927 -3.5152
 7345TIP3   OH243449   5.489   4.421   1.771 -0.0541  0.0213  0.3883
 7345TIP3    H143450   5.545   4.403   1.696  0.0424  1.6132  0.0662
 7345TIP3    H243451   5.420   4.478   1.737 -0.2235  0.4394  1.4138
 7346TIP3   OH243452   0.327   3.218  14.146  0.0034  0.3385 -0.2191
 7346TIP3    H143453   0.416   3.223  14.178  0.6628  1.3480 -2.1287
 7346TIP3    H243454   0.317   3.296  14.091 -2.0358  0.2189 -0.0558
 7347TIP3   OH243455   2.867   2.324  17.149 -0.7226 -0.6828 -0.2679
 7347TIP3    H143456   2.889   2.374  17.228 -1.1107  0.2411 -0.7427
 7347TIP3    H243457   2.940   2.340  17.089  0.1474 -2.3218  0.3200
 7348TIP3   OH243458   4.316   1.406  17.236 -0.3917  0.6265  0.8980
 7348TIP3    H143459   4.291   1.314  17.245 -2.6619  1.0922 -0.3566
 7348TIP3    H243460   4.302   1.443  17.323 -0.0153 -0.0944  1.2673
 7349TIP3   OH243461   0.473   5.066  11.944 -0.2346 -0.2121 -0.4004
 7349TIP3    H143462   0.511   5.096  12.027  0.1967  0.7840 -0.9422
 7349TIP3    H243463   0.499   4.974  11.938 -0.3023 -0.3003  0.5872
 7350TIP3   OH243464   2.017   2.056  14.638  0.1169 -0.7306 -0.4591
 7350TIP3    H143465   2.068   2.040  14.717 -1.4731 -1.1607  0.5137
 7350TIP3    H243466   2.043   1.987  14.577 -0.0779 -1.5823  0.4164
 7351TIP3   OH243467   2.622   6.629  17.067  0.4964  0.5468 -0.2499
 7351TIP3    H143468   2.623   6.708  17.120  0.0311  0.1962  0.2844
 7351TIP3    H243469   2.644   6.558  17.129  1.3118  0.3077 -0.7997
 7352TIP3   OH243470   1.660   3.712  15.130  0.4588 -0.0114 -0.3532
 7352TIP3    H143471   1.647   3.725  15.224 -2.1158  0.0665 -0.6766
 7352TIP3    H243472   1.632   3.794  15.090  3.8947  0.8983 -1.0948
 7353TIP3   OH243473   1.519   0.611  16.347  0.5326  0.1994  0.0918
 7353TIP3    H143474   1.486   0.616  16.257 -0.4069 -2.4786  0.2446
 7353TIP3    H243475   1.452   0.653  16.400  1.4135  2.4352 -0.4744
 7354TIP3   OH243476   2.526   3.239  14.825  0.4760 -0.2910  0.1725
 7354TIP3    H143477   2.465   3.300  14.866 -2.0645 -2.9004  0.3694
 7354TIP3    H243478   2.602   3.238  14.883  0.3717  2.2758  0.4133
 7355TIP3   OH243479   4.942   3.195  10.903  0.1375  0.7465  0.0283
 7355TIP3    H143480   4.941   3.103  10.930 -1.7277  1.1175  1.3298
 7355TIP3    H243481   4.976   3.242  10.980  1.9886  1.0699 -0.9608
 7356TIP3   OH243482   1.192   1.064   1.932 -0.5154 -0.1940 -0.0692
 7356TIP3    H143483   1.183   0.984   1.881 -1.0086 -0.9686  1.1975
 7356TIP3    H243484   1.281   1.060   1.967 -0.8998 -0.7456  0.8776
 7357TIP3   OH243485   2.051   1.230  13.335  1.1361  0.1702 -0.2505
 7357TIP3    H143486   2.096   1.230  13.250  0.9167  0.8402 -0.3699
 7357TIP3    H243487   1.971   1.180  13.320  1.6762 -0.7552 -0.1189
 7358TIP3   OH243488   2.625   2.827  13.234 -0.1437  0.2867  0.0533
 7358TIP3    H143489   2.634   2.794  13.324  0.3805  0.9524  0.2549
 7358TIP3    H243490   2.540   2.870  13.232  0.5346  1.6863  0.7059
 7359TIP3   OH243491   2.033   4.240  11.601  0.0695 -0.5098  0.1759
 7359TIP3    H143492   1.989   4.313  11.644  0.6679 -0.5285  0.8128
 7359TIP3    H243493   2.034   4.265  11.508 -1.5040 -0.6228  0.1009
 7360TIP3   OH243494   0.343   2.436  14.982 -0.0939  0.6225 -0.6642
 7360TIP3    H143495   0.326   2.443  15.076  0.4512 -0.9652 -0.4287
 7360TIP3    H243496   0.318   2.521  14.947 -0.4900  1.1699  0.8914
 7361TIP3   OH243497   3.510   0.272   0.097 -0.0957  0.0521 -0.2876
 7361TIP3    H143498   3.589   0.235   0.059  0.1523  0.5203 -0.2319
 7361TIP3    H243499   3.541   0.346   0.150 -0.5404  0.0609 -0.0364
 7362TIP3   OH243500   4.169   1.033   1.446  0.5042 -0.9289  0.0830
 7362TIP3    H143501   4.106   1.049   1.516  0.9104 -1.3988  0.5633
 7362TIP3    H243502   4.210   0.949   1.469  1.2341 -0.6767 -0.2690
 7363TIP3   OH243503   3.818   1.642  14.475 -0.3903 -0.1031  0.2932
 7363TIP3    H143504   3.885   1.586  14.514 -0.2952  0.5917  1.1372
 7363TIP3    H243505   3.737   1.619  14.522 -0.3204  0.5738  0.7480
 7364TIP3   OH243506   2.227   5.041  11.128 -0.0076 -0.0413 -0.3211
 7364TIP3    H143507   2.294   5.091  11.081  0.7983  0.1692  1.0210
 7364TIP3    H243508   2.180   5.107  11.179 -0.4800 -0.3554 -0.3491
 7365TIP3   OH243509   4.884   4.651   2.480  0.2140  0.3907 -0.4974
 7365TIP3    H143510   4.926   4.713   2.420  0.4654 -1.3389 -2.1387
 7365TIP3    H243511   4.955   4.617   2.533  0.1319  1.2031  0.1423
 7366TIP3   OH243512   2.970   5.637  12.700  0.3016 -0.2109 -0.1170
 7366TIP3    H143513   2.937   5.727  12.695  0.0180 -0.3088 -0.0520
 7366TIP3    H243514   2.951   5.600  12.614 -1.8861 -0.9847  0.6631
 7367TIP3   OH243515   0.739   3.472  10.661 -0.1216  0.6588  0.6253
 7367TIP3    H143516   0.679   3.543  10.639 -0.5310 -0.0445 -0.5960
 7367TIP3    H243517   0.822   3.497  10.618 -0.9656 -0.7930 -1.9629
 7368TIP3   OH243518   0.203   4.184   4.337 -0.0954 -0.2199 -0.3268
 7368TIP3    H143519   0.212   4.182   4.432 -0.6158  0.5423 -0.2522
 7368TIP3    H243520   0.255   4.110   4.306  0.2085 -0.3754  0.5390
 7369TIP3   OH243521   0.658   2.988  15.044  0.2604 -0.5687  0.5029
 7369TIP3    H143522   0.670   2.902  15.004  0.9509 -0.0033 -0.5135
 7369TIP3    H243523   0.593   3.032  14.989  2.2580  0.7374 -0.8634
 7370TIP3   OH243524   2.194   3.320   1.136  0.0952  0.1348  0.1265
 7370TIP3    H143525   2.113   3.268   1.126 -0.7931  1.3447  0.9785
 7370TIP3    H243526   2.167   3.410   1.120  1.4012  0.4936 -0.1108
 7371TIP3   OH243527   1.575   5.538   5.504 -0.4017 -1.0585  0.4460
 7371TIP3    H143528   1.522   5.548   5.424 -0.6749  1.3978  0.9010
 7371TIP3    H243529   1.657   5.498   5.474  0.3964  1.8648 -1.4750
 7372TIP3   OH243530   3.094   1.809   0.772 -0.6995  0.1155 -0.5443
 7372TIP3    H143531   3.026   1.832   0.836 -0.8002 -0.6959 -0.3476
 7372TIP3    H243532   3.140   1.891   0.756 -2.2548  0.8600 -1.3232
 7373TIP3   OH243533   2.968   1.194   6.379  0.9693  0.0858  0.6901
 7373TIP3    H143534   2.922   1.274   6.403 -0.7489 -0.5613 -0.3237
 7373TIP3    H243535   2.907   1.124   6.399  0.9064 -0.7044 -1.9830
 7374TIP3   OH243536   4.095   3.797   5.745 -0.1714 -0.0910 -0.1586
 7374TIP3    H143537   4.121   3.867   5.804 -1.0383 -0.2181  0.3884
 7374TIP3    H243538   4.000   3.793   5.753 -0.3267  0.0019 -1.6940
 7375TIP3   OH243539   5.124   5.550  16.720 -0.3936  0.5642 -0.2515
 7375TIP3    H143540   5.033   5.579  16.724 -0.5926 -0.0590 -0.1351
 7375TIP3    H243541   5.135   5.496  16.799 -0.4492 -0.8437 -1.2029
 7376TIP3   OH243542   6.046   5.512   4.941  0.1512 -0.2101 -0.1172
 7376TIP3    H143543   6.043   5.528   4.847  1.0070 -0.3406 -0.1786
 7376TIP3    H243544   6.068   5.419   4.949 -3.5867 -1.1140  0.2292
 7377TIP3   OH243545   0.195   6.457  15.036 -0.4011 -0.2825  0.0410
 7377TIP3    H143546   0.112   6.495  15.063  0.0143 -0.0204  0.9640
 7377TIP3    H243547   0.248   6.454  15.116  0.3847 -0.6914 -0.4805
 7378TIP3   OH243548   4.060   2.923  15.956  0.1279 -0.0546 -0.5308
 7378TIP3    H143549   4.139   2.869  15.965 -0.5183 -1.2122 -1.6812
 7378TIP3    H243550   4.056   2.945  15.863 -0.2604  1.0179 -0.2718
 7379TIP3   OH243551   3.371   4.897  12.957  0.5472  0.1795 -0.4007
 7379TIP3    H143552   3.460   4.926  12.978  0.0473  0.7355  1.0020
 7379TIP3    H243553   3.334   4.872  13.041 -1.3750  2.0730 -0.6329
 7380TIP3   OH243554   2.968   2.231  13.934 -0.6042  0.6771 -0.4631
 7380TIP3    H143555   3.010   2.293  13.994  0.1778  0.3083 -0.6141
 7380TIP3    H243556   3.005   2.252  13.849 -0.5840  0.2294 -0.5691
 7381TIP3   OH243557   3.931   6.718   5.867 -0.6388  0.1813  0.6342
 7381TIP3    H143558   3.847   6.724   5.822 -0.4209  2.7534  0.5012
 7381TIP3    H243559   3.928   6.786   5.934  1.0867 -0.1079  1.0422
 7382TIP3   OH243560   3.260   3.617   1.822 -0.6706  0.0652  0.3153
 7382TIP3    H143561   3.220   3.555   1.760  0.7433 -0.5824  0.0339
 7382TIP3    H243562   3.203   3.694   1.818 -0.9682 -0.2138 -1.3061
 7383TIP3   OH243563   6.288   2.670  13.752  0.0206  0.6356 -0.0729
 7383TIP3    H143564   6.349   2.654  13.824 -1.3070  0.1601  0.9777
 7383TIP3    H243565   6.219   2.724  13.791 -1.1752 -0.3729 -0.7426
 7384TIP3   OH243566   1.960   0.641  12.806 -0.2782  0.0396 -0.3050
 7384TIP3    H143567   1.920   0.638  12.893  1.7055  1.6633  0.7320
 7384TIP3    H243568   1.978   0.734  12.792 -3.1166  0.1596 -3.6997
 7385TIP3   OH243569   0.812   1.470   4.313  0.4418 -0.2789 -0.5422
 7385TIP3    H143570   0.890   1.493   4.363 -0.3218  0.2551  0.4223
 7385TIP3    H243571   0.809   1.374   4.315 -0.4948 -0.2353  1.8997
 7386TIP3   OH243572   5.136   4.413  13.351 -0.5398 -0.3384  0.2919
 7386TIP3    H143573   5.189   4.487  13.380 -1.5450 -0.6882  3.2149
 7386TIP3    H243574   5.046   4.445  13.356 -0.9477 -1.5634  1.1183
 7387TIP3   OH243575   2.239   0.152   5.631  0.8527 -0.1699  0.2395
 7387TIP3    H143576   2.307   0.104   5.678  1.1823 -2.3413 -2.3180
 7387TIP3    H243577   2.259   0.244   5.647  3.9310 -0.7763  0.1977
 7388TIP3   OH243578   1.997   4.524  13.595 -0.1253  0.5333 -0.3150
 7388TIP3    H143579   2.038   4.542  13.510 -1.2077 -0.1922 -0.9999
 7388TIP3    H243580   1.992   4.609  13.638 -0.7557  1.1091 -1.5098
 7389TIP3   OH243581   4.090   2.240   2.324 -0.2904 -0.0176 -0.3659
 7389TIP3    H143582   4.153   2.308   2.302 -1.0873  1.7226  2.5836
 7389TIP3    H243583   4.014   2.259   2.269 -0.0085  0.6462 -0.5237
 7390TIP3   OH243584   1.165   5.327   1.659 -0.3101  0.3375  0.1301
 7390TIP3    H143585   1.255   5.313   1.629  0.0754 -0.9048  1.8530
 7390TIP3    H243586   1.171   5.397   1.724 -0.8315  1.3661 -0.8952
 7391TIP3   OH243587   0.055   1.412  17.151  0.4305 -0.4534  0.2214
 7391TIP3    H143588  -0.012   1.345  17.164  2.7282 -2.7882  0.3116
 7391TIP3    H243589   0.009   1.483  17.105 -1.8512 -2.4298 -0.6546
 7392TIP3   OH243590   6.608   5.244   3.163 -0.1605  0.2201 -0.0305
 7392TIP3    H143591   6.654   5.163   3.182 -0.1886  0.1911 -0.0877
 7392TIP3    H243592   6.653   5.310   3.215 -0.1897  0.1532  0.0781
 7393TIP3   OH243593   0.388   4.623  15.358 -0.2923 -0.2761  0.1925
 7393TIP3    H143594   0.375   4.553  15.294 -0.6421  0.7799 -0.9058
 7393TIP3    H243595   0.481   4.642  15.353 -0.4785  0.4344 -0.6774
 7394TIP3   OH243596   0.494   2.976  15.298 -0.3776 -0.2290  0.0600
 7394TIP3    H143597   0.543   2.922  15.237 -0.3536  0.5802 -0.6600
 7394TIP3    H243598   0.417   3.005  15.247 -0.3637  0.4401  0.4093
 7395TIP3   OH243599   2.846   5.907  16.287  0.3774  0.1156  0.1644
 7395TIP3    H143600   2.912   5.838  16.287 -0.5008 -0.7286 -0.4573
 7395TIP3    H243601   2.894   5.985  16.259  0.9871 -0.6125 -0.8683
 7396TIP3   OH243602   5.483   4.572   2.480 -0.1587  0.6226  0.0258
 7396TIP3    H143603   5.483   4.639   2.549 -0.4230  1.2379 -0.5698
 7396TIP3    H243604   5.434   4.612   2.408 -0.2833 -0.1979 -0.3475
 7397TIP3   OH243605   4.955   4.381  15.001 -0.4710 -0.2042 -0.2460
 7397TIP3    H143606   5.032   4.328  14.978  0.6569  0.7958  1.1110
 7397TIP3    H243607   4.904   4.325  15.059 -1.1567 -1.1415 -1.7203
 7398TIP3   OH243608   2.919   0.164  13.678 -0.3461 -0.4148  0.2984
 7398TIP3    H143609   2.905   0.080  13.722 -0.0087 -1.2365 -1.1325
 7398TIP3    H243610   2.849   0.220  13.710 -0.6426 -1.2734  1.1828
 7399TIP3   OH243611   2.685   0.308  12.623  0.2103 -0.2152 -0.1376
 7399TIP3    H143612   2.594   0.289  12.599 -0.3099  0.3737  1.3427
 7399TIP3    H243613   2.718   0.362  12.550 -0.4772 -0.7847 -0.8827
 7400TIP3   OH243614   0.130   6.673  13.113 -0.5239  0.4385 -0.3061
 7400TIP3    H143615   0.212   6.713  13.142 -1.2343  1.6677  0.0500
 7400TIP3    H243616   0.151   6.581  13.099  0.4524  0.3511  1.6271
 7401TIP3   OH243617   1.397   4.380   2.912 -0.6264 -0.0994 -0.4249
 7401TIP3    H143618   1.401   4.444   2.982 -1.3270  0.6281 -1.0353
 7401TIP3    H243619   1.405   4.295   2.956  0.3101  0.3959  0.3846
 7402TIP3   OH243620   5.797   2.714   3.491 -0.4493 -0.3582 -0.5169
 7402TIP3    H143621   5.752   2.760   3.562  0.4844  0.8901 -0.7093
 7402TIP3    H243622   5.732   2.706   3.421 -0.6629  0.5429 -0.4242
 7403TIP3   OH243623   5.786   2.198  15.531 -0.1852 -0.7501  0.4617
 7403TIP3    H143624   5.751   2.254  15.462 -3.0413 -3.1878 -0.1672
 7403TIP3    H243625   5.733   2.218  15.608  0.1327 -1.1252  0.7838
 7404TIP3   OH243626   3.576   5.403   0.793  0.4237 -0.1810 -0.1110
 7404TIP3    H143627   3.493   5.443   0.818 -0.2336 -0.9550 -1.0057
 7404TIP3    H243628   3.583   5.419   0.698  1.5451  0.3330  0.0497
 7405TIP3   OH243629   5.625   1.421   5.972 -1.0769  0.7337 -0.0831
 7405TIP3    H143630   5.560   1.370   6.021 -0.0932 -0.1713  0.2794
 7405TIP3    H243631   5.583   1.437   5.887 -0.6061 -2.5251 -1.0250
 7406TIP3   OH243632   4.584   4.695  16.749  0.2583  0.4019  0.1948
 7406TIP3    H143633   4.635   4.615  16.762 -0.1775  0.3835  1.8354
 7406TIP3    H243634   4.596   4.716  16.656 -1.0891 -2.5549 -0.6733
 7407TIP3   OH243635   3.299   4.340  15.805 -0.0128 -0.0460 -0.4538
 7407TIP3    H143636   3.213   4.304  15.781 -0.1643 -0.1713  0.2827
 7407TIP3    H243637   3.297   4.429  15.771 -0.4388 -0.0423 -0.4236
 7408TIP3   OH243638   6.436   4.076   4.458 -0.4662 -0.0325  0.0751
 7408TIP3    H143639   6.377   4.066   4.533  1.9268  0.5060  2.1141
 7408TIP3    H243640   6.522   4.051   4.492  0.5946 -0.2457 -2.6490
 7409TIP3   OH243641   1.358   2.797   5.270 -0.0481  0.1351  0.0642
 7409TIP3    H143642   1.374   2.718   5.322  2.2614  0.8240  0.4679
 7409TIP3    H243643   1.437   2.806   5.216 -2.2775 -0.4247 -3.4452
 7410TIP3   OH243644   0.722   1.157   5.336  0.1051  0.1618  0.8400
 7410TIP3    H143645   0.636   1.194   5.357  1.2853  1.0489  4.4616
 7410TIP3    H243646   0.720   1.068   5.371  0.6028  0.1218  0.7766
 7411TIP3   OH243647   3.681   1.402  14.372  0.0328 -0.0043 -0.1551
 7411TIP3    H143648   3.670   1.331  14.309  0.9059 -1.0852  0.9025
 7411TIP3    H243649   3.606   1.395  14.431  0.2760 -0.2458  0.1300
 7412TIP3   OH243650   3.039   4.363  14.288  0.5879  0.4802 -0.2647
 7412TIP3    H143651   3.061   4.347  14.380  0.0446 -0.2110 -0.2480
 7412TIP3    H243652   2.964   4.306  14.271  1.1742  0.0253 -1.3555
 7413TIP3   OH243653   4.840   6.502   2.668  0.5260  0.4389  0.3732
 7413TIP3    H143654   4.889   6.583   2.685 -1.4343  1.6244  0.5307
 7413TIP3    H243655   4.782   6.524   2.595 -2.2748  0.1891  2.4410
 7414TIP3   OH243656   5.162   3.055   1.837  0.1831  0.0654  0.6575
 7414TIP3    H143657   5.134   2.964   1.832  0.0767 -0.0357  2.7139
 7414TIP3    H243658   5.110   3.101   1.771 -0.5194 -1.1727  0.3464
 7415TIP3   OH243659   6.567   1.383   0.982  0.1160 -0.0343  0.0493
 7415TIP3    H143660   6.612   1.425   1.055  0.1859 -1.2489  0.7168
 7415TIP3    H243661   6.487   1.346   1.021 -0.3429  0.1718 -0.6858
 7416TIP3   OH243662   5.401   0.315   1.524  0.0053 -0.3020 -0.4005
 7416TIP3    H143663   5.484   0.362   1.519 -0.0146 -0.2720 -0.4467
 7416TIP3    H243664   5.423   0.225   1.498 -0.1831 -0.0488 -1.4688
 7417TIP3   OH243665   3.633   5.824   2.426  0.3710  0.2201 -0.0209
 7417TIP3    H143666   3.606   5.916   2.434  0.4031  0.0729  1.7636
 7417TIP3    H243667   3.634   5.809   2.331 -0.7504  1.7266 -0.3005
 7418TIP3   OH243668   1.279   2.191   5.755  0.0257  0.4223  0.0155
 7418TIP3    H143669   1.322   2.213   5.838  1.8126 -0.1720 -0.7226
 7418TIP3    H243670   1.240   2.273   5.726  0.4624  0.9308  0.8436
 7419TIP3   OH243671   6.161   1.295   1.946  0.3858 -0.5138  0.7084
 7419TIP3    H143672   6.138   1.345   1.868  1.7940  0.7275  1.0629
 7419TIP3    H243673   6.079   1.256   1.975 -0.6833  1.2988  0.1993
 7420TIP3   OH243674   1.208   0.241  14.403 -0.4314 -0.1511 -0.1336
 7420TIP3    H143675   1.150   0.315  14.383  0.2284 -0.1247 -2.0535
 7420TIP3    H243676   1.149   0.169  14.426 -1.0656  1.1392  2.4952
 7421TIP3   OH243677   4.943   5.732  13.166 -0.3224 -0.1341 -0.3466
 7421TIP3    H143678   4.906   5.776  13.242 -0.9600 -0.3776 -0.5096
 7421TIP3    H243679   4.886   5.758  13.093 -1.6703 -2.4326 -0.1968
 7422TIP3   OH243680   6.510   1.694  12.960  0.3905 -0.0677 -0.1008
 7422TIP3    H143681   6.463   1.658  12.885 -1.4359  0.3991  0.7987
 7422TIP3    H243682   6.555   1.619  12.999 -0.5326 -0.7211 -0.2957
 7423TIP3   OH243683   0.274   5.357  16.706  0.2924  0.5113 -0.9587
 7423TIP3    H143684   0.259   5.342  16.613  1.3126 -1.5971 -0.8110
 7423TIP3    H243685   0.246   5.447  16.721 -0.2432  0.7387 -3.2213
 7424TIP3   OH243686   1.016   1.192   1.199 -0.4361  0.1325 -0.3114
 7424TIP3    H143687   1.075   1.188   1.275  1.0271  1.1430 -1.3826
 7424TIP3    H243688   1.030   1.108   1.154 -1.0879 -0.3443  0.3589
 7425TIP3   OH243689   2.588   6.445   5.822  0.5801 -0.0612  0.4954
 7425TIP3    H143690   2.503   6.403   5.836 -0.3589  1.4762 -0.4406
 7425TIP3    H243691   2.596   6.508   5.894  0.7080  0.1306  0.3137
 7426TIP3   OH243692   2.782   6.176  11.422 -0.3188 -0.2653  0.3924
 7426TIP3    H143693   2.802   6.093  11.379 -0.4676 -0.0617 -0.0728
 7426TIP3    H243694   2.804   6.243  11.358 -0.2573  0.0548  0.7421
 7427TIP3   OH243695   6.348   3.636  12.775 -0.3902 -0.3488  0.1425
 7427TIP3    H143696   6.393   3.622  12.858  1.8413 -3.4756 -1.4762
 7427TIP3    H243697   6.405   3.696  12.727 -0.1197 -0.9549 -0.2925
 7428TIP3   OH243698   0.695   6.649  16.720  0.1454 -0.0973 -0.0367
 7428TIP3    H143699   0.753   6.722  16.698  0.5732 -0.2109  0.7077
 7428TIP3    H243700   0.607   6.687  16.717  0.3420  0.3720  0.0261
 7429TIP3   OH243701   2.763   3.918   3.362 -0.2591  0.1500 -0.2282
 7429TIP3    H143702   2.854   3.947   3.355  0.6024 -2.4285 -0.5487
 7429TIP3    H243703   2.731   3.955   3.444  0.6702  2.1437 -0.7552
 7430TIP3   OH243704   0.981   5.124   4.987  0.6064  0.0296 -0.2895
 7430TIP3    H143705   0.974   5.046   4.932  0.3364 -0.3738  0.3048
 7430TIP3    H243706   1.029   5.187   4.934  0.2032 -0.2981 -1.0453
 7431TIP3   OH243707   6.403   5.040  14.555  0.0946 -0.0571 -0.5266
 7431TIP3    H143708   6.449   5.121  14.532  0.8836 -0.5536 -0.7257
 7431TIP3    H243709   6.352   5.019  14.477 -0.4734  0.4982 -0.3046
 7432TIP3   OH243710   2.941   6.400   3.663  0.1297 -0.2871  0.1142
 7432TIP3    H143711   2.863   6.386   3.610 -0.1499  0.7777  0.2415
 7432TIP3    H243712   2.909   6.447   3.740  0.8311 -0.2036  0.3542
 7433TIP3   OH243713   1.621   5.954   1.610  0.1575 -0.7731  0.0657
 7433TIP3    H143714   1.663   5.869   1.604  0.8296 -0.3962 -0.6337
 7433TIP3    H243715   1.676   6.012   1.558 -2.7858 -0.8534 -3.3109
 7434TIP3   OH243716   5.000   5.650   3.253  0.2876 -0.3623 -0.4588
 7434TIP3    H143717   4.986   5.618   3.164  2.4159 -1.7878 -0.3033
 7434TIP3    H243718   5.056   5.585   3.294 -1.3715 -0.1839  2.2383
 7435TIP3   OH243719   5.306   2.260  10.996  0.1913 -0.4046  0.0396
 7435TIP3    H143720   5.313   2.344  10.951  0.9253 -0.6760 -0.3697
 7435TIP3    H243721   5.335   2.196  10.932 -2.5129 -1.2275 -0.4040
 7436TIP3   OH243722   0.058   1.621  13.748  0.0200  0.3762  0.0217
 7436TIP3    H143723   0.128   1.594  13.807 -0.0676 -0.0313 -0.0565
 7436TIP3    H243724   0.100   1.680  13.686  0.2395  0.3409  0.1358
 7437TIP3   OH243725   4.097   0.166   1.439  0.2727 -0.6544  0.3355
 7437TIP3    H143726   4.115   0.110   1.515 -0.5399 -1.0423  0.2553
 7437TIP3    H243727   4.001   0.176   1.440  0.0936 -1.9051 -1.5081
 7438TIP3   OH243728   4.308   4.793  13.115  0.1475 -0.0883  0.1973
 7438TIP3    H143729   4.353   4.713  13.087 -1.1410 -0.3801 -1.0924
 7438TIP3    H243730   4.377   4.847  13.154  1.4946 -0.8170 -1.1334
 7439TIP3   OH243731   2.470   5.022   0.579 -0.4043 -0.4554 -0.3959
 7439TIP3    H143732   2.456   4.932   0.610 -0.2245  0.0985  1.3511
 7439TIP3    H243733   2.489   5.012   0.486 -2.5159 -2.0411 -0.7033
 7440TIP3   OH243734   3.093   5.440   4.610 -0.2320  0.0252  0.0870
 7440TIP3    H143735   3.013   5.412   4.565  0.6495 -1.8320 -0.3669
 7440TIP3    H243736   3.156   5.453   4.539  0.2226  0.2804  0.5426
 7441TIP3   OH243737   5.066   6.091   1.209  0.2228 -0.1597 -0.2018
 7441TIP3    H143738   5.101   6.084   1.297  0.6477  0.8552 -0.2847
 7441TIP3    H243739   5.022   6.008   1.194 -1.0892  0.2128  1.5018
 7442TIP3   OH243740   0.728   0.450  14.740  0.2046 -0.7821  0.1037
 7442TIP3    H143741   0.783   0.374  14.721  1.1992 -0.0605  0.0557
 7442TIP3    H243742   0.758   0.481  14.826 -0.2058 -0.4606  0.1331
 7443TIP3   OH243743   5.424   0.661   2.403  0.5258 -0.2459 -0.1962
 7443TIP3    H143744   5.437   0.753   2.422 -0.5261  0.0295 -0.7772
 7443TIP3    H243745   5.381   0.660   2.317  0.1930 -1.2508 -0.0262
 7444TIP3   OH243746   2.392   4.265  14.935 -0.1520 -0.1411  0.6567
 7444TIP3    H143747   2.298   4.250  14.926  0.0199 -1.1172  0.4807
 7444TIP3    H243748   2.425   4.266  14.845  0.1421 -0.6779  0.7596
 7445TIP3   OH243749   4.878   4.612   2.963 -0.4046 -0.4860 -0.7732
 7445TIP3    H143750   4.836   4.698   2.967  0.9292  0.1809 -1.0104
 7445TIP3    H243751   4.829   4.566   2.894 -1.8725 -0.3389  0.1540
 7446TIP3   OH243752   4.871   2.734   0.941 -0.0617  0.7273 -0.0624
 7446TIP3    H143753   4.845   2.818   0.980 -0.1060  0.0211  1.4786
 7446TIP3    H243754   4.805   2.718   0.873 -0.1591  1.8456 -0.2526
 7447TIP3   OH243755   3.772   5.900   6.157  0.5951 -0.2391  0.0515
 7447TIP3    H143756   3.802   5.961   6.224  0.9391  0.2533 -0.5471
 7447TIP3    H243757   3.775   5.814   6.200 -0.8658  0.2704  1.2181
 7448TIP3   OH243758   1.792   4.170   5.305  0.0866 -0.0470  0.1576
 7448TIP3    H143759   1.708   4.215   5.294  1.1181  2.3464  1.7076
 7448TIP3    H243760   1.856   4.226   5.261  1.2176 -0.5928  1.0693
 7449TIP3   OH243761   1.209   4.029   0.286  0.2097  0.2757  0.0599
 7449TIP3    H143762   1.208   3.972   0.209  0.1770 -1.5756  1.3829
 7449TIP3    H243763   1.121   4.066   0.290 -0.0683 -0.3365 -0.3028
 7450TIP3   OH243764   3.621   5.176   1.751 -0.0274 -0.0441 -0.3178
 7450TIP3    H143765   3.638   5.170   1.845  0.4520 -1.1936 -0.4683
 7450TIP3    H243766   3.701   5.213   1.715 -0.8696  2.1118 -0.0807
 7451TIP3   OH243767   1.614   4.027  15.946 -0.2454  0.0327  0.0292
 7451TIP3    H143768   1.690   4.025  15.888  2.1540 -2.1023  3.0835
 7451TIP3    H243769   1.609   3.938  15.980 -3.8728  0.2752  0.2581
 7452TIP3   OH243770   1.224   0.488  16.620  0.3326 -0.4513 -0.2256
 7452TIP3    H143771   1.174   0.421  16.573 -0.3810 -0.3801  0.4259
 7452TIP3    H243772   1.287   0.439  16.673 -1.5537 -0.7408  1.8420
 7453TIP3   OH243773   0.433   4.489   4.615 -0.6591  0.0109  1.0520
 7453TIP3    H143774   0.355   4.510   4.666 -0.3936 -0.3653  1.6240
 7453TIP3    H243775   0.406   4.419   4.556 -0.3064 -1.3337  2.4621
 7454TIP3   OH243776   1.769   6.102   0.571 -0.0617 -0.2713 -0.0198
 7454TIP3    H143777   1.841   6.073   0.516  0.2940  1.8597 -0.7174
 7454TIP3    H243778   1.699   6.039   0.553  1.4694 -2.1293  0.3823
 7455TIP3   OH243779   2.848   4.507  13.077  0.0919  0.4028  0.2149
 7455TIP3    H143780   2.788   4.493  13.150 -0.0632  0.7836  0.1595
 7455TIP3    H243781   2.813   4.583  13.030  0.4195  0.4136 -0.0183
 7456TIP3   OH243782   0.458   5.737   0.102  0.7545  0.3228  0.3941
 7456TIP3    H143783   0.511   5.660   0.120 -2.3376 -1.6683  1.2687
 7456TIP3    H243784   0.444   5.777   0.188  0.8755  0.8671  0.1622
 7457TIP3   OH243785   4.775   2.241   6.424  0.3469  0.2545  0.1847
 7457TIP3    H143786   4.762   2.149   6.447  0.5797  0.2202  0.1762
 7457TIP3    H243787   4.720   2.254   6.346  0.0030  0.2258  0.4195
 7458TIP3   OH243788   2.561   6.357   2.246  0.8526  0.0374 -0.0607
 7458TIP3    H143789   2.538   6.416   2.175 -0.3493 -1.2060 -0.7361
 7458TIP3    H243790   2.567   6.271   2.204 -0.7266 -0.8478  1.4820
 7459TIP3   OH243791   6.382   1.607   4.117 -0.2374 -0.3369 -0.0459
 7459TIP3    H143792   6.370   1.593   4.211  1.5384 -1.8485 -0.0109
 7459TIP3    H243793   6.459   1.664   4.111 -0.5438  0.0260 -0.5676
 7460TIP3   OH243794   3.745   4.200   5.234  0.4460 -0.2769 -0.5687
 7460TIP3    H143795   3.689   4.199   5.312  2.2303 -2.8650  0.7560
 7460TIP3    H243796   3.769   4.292   5.223 -2.4086  0.5655  0.0244
 7461TIP3   OH243797   4.462   5.155  16.798 -0.2080  0.2024  0.1882
 7461TIP3    H143798   4.415   5.135  16.717  0.5588 -0.0094 -0.2133
 7461TIP3    H243799   4.521   5.081  16.809  0.3900  0.7155  0.4143
 7462TIP3   OH243800   6.770   4.210  15.441  0.0388 -0.0774  0.0080
 7462TIP3    H143801   6.725   4.125  15.434 -0.0545 -0.0678  0.5051
 7462TIP3    H243802   6.702   4.271  15.470  0.1449  0.1358 -0.1919
 7463TIP3   OH243803   0.568   5.110   0.132  0.0187  0.1946 -0.4025
 7463TIP3    H143804   0.505   5.051   0.091  0.7500 -0.8517 -0.0363
 7463TIP3    H243805   0.587   5.176   0.066  1.6200 -1.7819 -1.9674
 7464TIP3   OH243806   3.713   0.466   0.577 -0.4703 -0.4335 -0.0383
 7464TIP3    H143807   3.636   0.521   0.560 -0.4624 -0.1005  0.9730
 7464TIP3    H243808   3.694   0.384   0.531 -0.5618  0.3406 -1.4036
 7465TIP3   OH243809   5.898   1.297  12.841  0.6801  0.4586 -0.0698
 7465TIP3    H143810   5.960   1.273  12.909 -0.0950 -0.4979  0.3087
 7465TIP3    H243811   5.861   1.380  12.871  0.3362  0.0367  0.6904
 7466TIP3   OH243812   0.422   2.589  12.686  0.1035  0.0925 -0.3886
 7466TIP3    H143813   0.373   2.656  12.734  1.0973  1.3863 -1.1304
 7466TIP3    H243814   0.495   2.566  12.744 -0.2266 -0.3262 -0.1432
 7467TIP3   OH243815   5.041   4.065  13.285  0.0357  0.6771  0.5917
 7467TIP3    H143816   5.123   4.099  13.248 -0.6285  0.7298 -0.8890
 7467TIP3    H243817   5.031   3.979  13.246 -1.3865  1.3000 -0.4643
 7468TIP3   OH243818   6.319   1.942   4.979  0.0573  0.0041  0.4322
 7468TIP3    H143819   6.231   1.905   4.972  0.7057 -1.6042  0.4458
 7468TIP3    H243820   6.309   2.017   5.037 -1.4576  0.3734 -0.2740
 7469TIP3   OH243821   6.152   0.589   5.717 -0.2034  0.1853  0.1418
 7469TIP3    H143822   6.057   0.587   5.731 -0.1659 -1.6625  0.2897
 7469TIP3    H243823   6.163   0.591   5.622 -0.3935  2.9494  0.1548
 7470TIP3   OH243824   5.030   2.886   4.952  0.0653  0.1212  0.3429
 7470TIP3    H143825   5.023   2.939   5.032  0.8488  0.1907  0.3654
 7470TIP3    H243826   5.060   2.801   4.982  1.2937  0.4393  0.0085
 7471TIP3   OH243827   2.287   0.690  12.122  0.0983 -0.2587 -0.4006
 7471TIP3    H143828   2.286   0.638  12.042  1.0042 -1.2617  0.2299
 7471TIP3    H243829   2.339   0.768  12.099  1.8696 -1.3714 -0.3103
 7472TIP3   OH243830   5.645   4.643   1.889  0.0695  0.1450  0.2219
 7472TIP3    H143831   5.575   4.578   1.886 -0.5183  0.8559 -1.9597
 7472TIP3    H243832   5.726   4.592   1.893 -0.5024 -0.6858  1.4031
 7473TIP3   OH243833   4.533   5.988  12.729  0.3372 -0.5778  0.3028
 7473TIP3    H143834   4.560   6.039  12.805 -0.2211  0.4923 -0.2113
 7473TIP3    H243835   4.607   5.993  12.669 -0.0050  0.2753 -0.0619
 7474TIP3   OH243836   3.370   3.519  14.489  0.0202  0.5292  0.4395
 7474TIP3    H143837   3.424   3.478  14.421 -0.3845 -0.3072  0.6127
 7474TIP3    H243838   3.380   3.463  14.566 -0.6053  0.7030  0.6552
 7475TIP3   OH243839   2.904   0.292  14.644  0.2021  0.1985 -0.7150
 7475TIP3    H143840   2.872   0.205  14.665 -0.4840  0.3744 -1.0200
 7475TIP3    H243841   2.983   0.302  14.697 -0.7123  0.0856  0.6788
 7476TIP3   OH243842   3.091   1.184   4.671  0.1285  0.0053 -0.2261
 7476TIP3    H143843   3.183   1.206   4.655  0.3021  0.3427  1.1211
 7476TIP3    H243844   3.080   1.097   4.633  1.2206 -0.3680  0.2631
 7477TIP3   OH243845   6.631   5.864   2.735  0.3466  0.4259 -0.0970
 7477TIP3    H143846   6.643   5.815   2.817  1.1475  0.3676 -0.2487
 7477TIP3    H243847   6.536   5.868   2.724  0.2049  0.9374  1.1493
 7478TIP3   OH243848   6.489   0.497   3.260 -0.7487  0.0840 -0.3451
 7478TIP3    H143849   6.406   0.461   3.292  0.0646 -0.6570  0.9586
 7478TIP3    H243850   6.532   0.531   3.338 -0.2014  1.2578 -1.1475
 7479TIP3   OH243851   4.914   3.140  16.722  0.5158  0.2293  0.2682
 7479TIP3    H143852   4.960   3.106  16.799 -3.2255 -1.2188  1.9985
 7479TIP3    H243853   4.872   3.220  16.753 -1.2876 -0.5393 -0.1220
 7480TIP3   OH243854   1.410   5.918  11.628 -0.0646 -0.1155 -0.3384
 7480TIP3    H143855   1.410   5.822  11.628  0.4540 -0.1227  0.1265
 7480TIP3    H243856   1.327   5.942  11.669 -1.3785 -0.3300 -2.7692
 7481TIP3   OH243857   2.208   3.014   0.860 -0.3318 -0.2107 -0.0617
 7481TIP3    H143858   2.222   3.005   0.766 -2.3983  0.9378 -0.5188
 7481TIP3    H243859   2.142   3.083   0.868  1.9828  1.8201  2.4045
 7482TIP3   OH243860   6.451   5.840  13.493 -0.4870  0.0885  0.2467
 7482TIP3    H143861   6.511   5.779  13.536 -0.2158  0.6666  0.6832
 7482TIP3    H243862   6.488   5.852  13.406  0.5815  1.2180  0.8458
 7483TIP3   OH243863   2.776   3.840  15.544 -0.3908 -0.9579  0.3689
 7483TIP3    H143864   2.705   3.798  15.495 -0.6817  2.4938 -2.2914
 7483TIP3    H243865   2.853   3.787  15.524 -0.8645 -0.6596 -2.4331
 7484TIP3   OH243866   0.513   4.564   4.029  0.1793 -0.1254  0.3942
 7484TIP3    H143867   0.606   4.544   4.044  0.7833  1.8716 -0.4351
 7484TIP3    H243868   0.514   4.654   3.994 -1.9883 -0.4562 -0.5720
 7485TIP3   OH243869   1.870   5.874   4.546 -0.1203  0.0963 -0.1215
 7485TIP3    H143870   1.952   5.880   4.595  0.6373  1.2594 -1.4997
 7485TIP3    H243871   1.814   5.941   4.586 -0.3661 -0.5979  0.7205
 7486TIP3   OH243872   1.541   2.899  12.075 -0.5523 -0.6896 -0.5821
 7486TIP3    H143873   1.481   2.882  12.148  2.8959 -2.3040  2.0584
 7486TIP3    H243874   1.557   2.993  12.078  0.5047 -0.9032  1.6151
 7487TIP3   OH243875   0.931   5.101  13.854  0.1061  0.1036  0.0220
 7487TIP3    H143876   0.864   5.079  13.789  0.3263  0.4905 -0.3433
 7487TIP3    H243877   0.889   5.163  13.913 -0.2708 -0.6767  0.5891
 7488TIP3   OH243878   5.868   0.441   3.430  0.1978 -0.4462  0.4184
 7488TIP3    H143879   5.938   0.506   3.426 -1.1210  0.9158 -1.4508
 7488TIP3    H243880   5.788   0.491   3.443 -0.8061 -1.6959 -0.6909
 7489TIP3   OH243881   1.310   6.714  15.888  0.0641  1.0020  0.0216
 7489TIP3    H143882   1.239   6.652  15.875 -0.6393  1.8643 -0.2906
 7489TIP3    H243883   1.278   6.773  15.956  0.8109  0.9018  0.4625
 7490TIP3   OH243884   1.518   1.012  12.512  0.7043  0.1264  0.3633
 7490TIP3    H143885   1.613   0.999  12.512  0.8003  0.7940  0.4547
 7490TIP3    H243886   1.495   1.019  12.605  0.7467  1.2084  0.2978
 7491TIP3   OH243887   2.977   6.614   2.422  0.0713 -0.1558  0.1803
 7491TIP3    H143888   3.048   6.662   2.466 -0.8592  0.2139  1.3060
 7491TIP3    H243889   3.014   6.589   2.338  0.5209  2.7866 -0.5628
 7492TIP3   OH243890   5.878   0.169  11.944  0.4500 -0.0332  0.3097
 7492TIP3    H143891   5.831   0.233  11.890 -0.1784  0.7628  1.7684
 7492TIP3    H243892   5.963   0.160  11.901 -0.1773  0.2841 -1.0341
 7493TIP3   OH243893   3.932   1.959   3.961  0.0664  0.6842 -0.3820
 7493TIP3    H143894   4.001   1.896   3.977  0.0179  1.1870  2.0586
 7493TIP3    H243895   3.856   1.924   4.007 -1.1304  0.5015 -2.4274
 7494TIP3   OH243896   4.699   4.974  10.617  0.3234  0.6095  0.5756
 7494TIP3    H143897   4.745   5.034  10.676 -0.1831  1.8709 -0.2731
 7494TIP3    H243898   4.728   5.000  10.530  0.0843 -0.3895  0.1929
 7495TIP3   OH243899   1.125   5.765  15.078 -0.2457  0.2382 -0.2802
 7495TIP3    H143900   1.074   5.720  15.145 -1.0072 -2.0787 -2.3501
 7495TIP3    H243901   1.178   5.828  15.127  0.1783 -2.2637  2.6694
 7496TIP3   OH243902   2.523   4.046   2.729 -0.4561 -0.0386  0.3330
 7496TIP3    H143903   2.535   3.976   2.794  0.8018 -0.6028 -0.4687
 7496TIP3    H243904   2.514   3.999   2.645  0.2598  0.7518 -0.1930
 7497TIP3   OH243905   4.546   1.040   2.260 -0.0666 -0.4828 -0.2886
 7497TIP3    H143906   4.485   0.989   2.312 -0.5798  0.1504 -0.2617
 7497TIP3    H243907   4.496   1.065   2.182 -0.2198  1.0047  0.2627
 7498TIP3   OH243908   3.396   4.146   4.844 -0.4932  0.0070  0.1766
 7498TIP3    H143909   3.435   4.162   4.930 -1.0188 -0.1755  0.4532
 7498TIP3    H243910   3.459   4.183   4.782  0.2499 -0.5317  0.5966
 7499TIP3   OH243911   4.149   5.377   6.009  0.4510 -0.9516 -0.0214
 7499TIP3    H143912   4.063   5.398   6.046 -1.2456 -1.9187 -3.2305
 7499TIP3    H243913   4.202   5.454   6.025 -2.2622  1.3363 -1.5962
 7500TIP3   OH243914   1.160   1.398  15.059  0.1435  0.2607 -0.2301
 7500TIP3    H143915   1.175   1.467  14.995  0.8535 -1.2391 -1.7248
 7500TIP3    H243916   1.220   1.328  15.033 -1.7574 -1.5830  0.2279
 7501TIP3   OH243917   4.872   0.631   2.812  0.2484 -0.0311 -0.1251
 7501TIP3    H143918   4.825   0.557   2.850 -2.2658  1.2210 -0.7102
 7501TIP3    H243919   4.906   0.679   2.888 -0.3725 -0.3444  0.3557
 7502TIP3   OH243920   3.219   1.215   1.679 -0.1396 -0.2815 -0.3670
 7502TIP3    H143921   3.221   1.289   1.618  2.5295 -0.6378 -0.7892
 7502TIP3    H243922   3.179   1.144   1.628  1.5063 -0.4026 -1.5403
 7503TIP3   OH243923   3.624   4.591  16.015  0.1659 -0.8550 -0.0222
 7503TIP3    H143924   3.591   4.510  15.977 -0.2645 -0.2462 -0.9425
 7503TIP3    H243925   3.601   4.584  16.108 -0.9520 -1.2371 -0.3215
 7504TIP3   OH243926   6.298   2.288  14.791  0.8553 -0.2664 -0.3243
 7504TIP3    H143927   6.299   2.271  14.697 -1.1666  0.0399 -0.4355
 7504TIP3    H243928   6.336   2.210  14.830  0.8141 -0.8112 -1.3453
 7505TIP3   OH243929   1.593   2.894  16.906  0.0466 -0.1575  0.6544
 7505TIP3    H143930   1.570   2.967  16.962 -0.1757 -0.8024  1.4138
 7505TIP3    H243931   1.687   2.882  16.920  0.0297 -0.1929  0.7349
 7506TIP3   OH243932   6.564   0.364   0.751 -0.0023  0.2766 -0.0009
 7506TIP3    H143933   6.551   0.325   0.665  0.7610  0.8095 -0.3631
 7506TIP3    H243934   6.524   0.451   0.744  0.4924  0.5095  0.0259
 7507TIP3   OH243935   0.217   0.812   2.448  0.1055 -0.3128 -1.0342
 7507TIP3    H143936   0.214   0.824   2.543  0.2894  1.8776 -1.2767
 7507TIP3    H243937   0.228   0.718   2.436  0.6179 -0.5542  1.1238
 7508TIP3   OH243938   3.785   1.156   0.700 -0.3076 -0.1786  0.1494
 7508TIP3    H143939   3.695   1.133   0.679  0.1641 -0.1651 -2.0295
 7508TIP3    H243940   3.837   1.085   0.661  0.7215  0.6542 -0.0145
 7509TIP3   OH243941   2.139   2.435  14.196 -0.3632  0.1683 -0.2285
 7509TIP3    H143942   2.120   2.344  14.217  3.3637 -0.5354  0.5869
 7509TIP3    H243943   2.193   2.430  14.116  0.2197  1.5922  0.0617
 7510TIP3   OH243944   5.806   4.749  16.071  0.2329  0.0114 -0.2250
 7510TIP3    H143945   5.717   4.783  16.072  0.7882  1.5118  0.7090
 7510TIP3    H243946   5.797   4.656  16.090 -1.2628 -0.2080 -1.9675
 7511TIP3   OH243947   6.601   6.338  12.856 -0.1892 -0.3349  0.3827
 7511TIP3    H143948   6.640   6.261  12.814  2.8586  0.9573  0.6898
 7511TIP3    H243949   6.576   6.395  12.783 -0.0503 -0.4923  0.2112
 7512TIP3   OH243950   1.928   0.133  14.563  0.3648 -0.1750 -0.6372
 7512TIP3    H143951   1.929   0.059  14.503  0.5017 -1.7821  1.2778
 7512TIP3    H243952   2.016   0.171  14.556  0.6878 -0.9345 -0.7454
 7513TIP3   OH243953   4.495   1.961   2.572  0.2431 -0.4291  0.5103
 7513TIP3    H143954   4.457   2.047   2.589  1.2205  0.0528  0.2415
 7513TIP3    H243955   4.567   1.977   2.511  0.2496 -1.4718  0.2208
 7514TIP3   OH243956   1.999   3.869  13.749  0.3242  0.3103 -0.3578
 7514TIP3    H143957   1.976   3.798  13.809  1.2458  3.0677  3.4970
 7514TIP3    H243958   1.916   3.891  13.706 -1.0516  0.1295  2.0838
 7515TIP3   OH243959   1.650   4.321  15.738 -0.6386 -0.6267  0.1463
 7515TIP3    H143960   1.586   4.272  15.789  0.2722 -1.7863  0.1931
 7515TIP3    H243961   1.731   4.272  15.747  0.1260  0.5096 -0.3913
 7516TIP3   OH243962   3.128   6.117  11.124  0.4309 -0.0977  0.0237
 7516TIP3    H143963   3.048   6.104  11.072  2.1967 -0.5086 -2.7098
 7516TIP3    H243964   3.165   6.029  11.133  1.2024  0.2488  0.2321
 7517TIP3   OH243965   2.670   6.639  13.593  0.3046 -0.6897 -0.1077
 7517TIP3    H143966   2.654   6.562  13.539  2.2798 -0.3651 -1.2148
 7517TIP3    H243967   2.754   6.621  13.635 -0.7035 -0.4711  2.0570
 7518TIP3   OH243968   4.771   2.357  16.134  0.1829  0.2271 -1.1554
 7518TIP3    H143969   4.860   2.345  16.099  1.3999  2.3103  1.0537
 7518TIP3    H243970   4.750   2.448  16.115 -0.6265  0.3244  0.1193
 7519TIP3   OH243971   3.841   1.982   4.728 -0.0553  0.5789 -0.2385
 7519TIP3    H143972   3.932   1.960   4.708 -0.7884 -2.6700 -0.2119
 7519TIP3    H243973   3.789   1.930   4.667 -1.9445  0.8583  1.0824
 7520TIP3   OH243974   4.718   0.242   3.556  0.5253 -0.1112 -0.3270
 7520TIP3    H143975   4.712   0.323   3.505  1.2153 -0.2397 -0.6194
 7520TIP3    H243976   4.788   0.258   3.619  0.1152 -0.1922  0.1567
 7521TIP3   OH243977   1.212   1.484  13.171  0.6028 -0.1573  0.1084
 7521TIP3    H143978   1.225   1.427  13.247 -0.2120 -0.1307  0.2670
 7521TIP3    H243979   1.296   1.529  13.161  1.3556 -1.5737 -0.1848
 7522TIP3   OH243980   0.215   1.746  15.354  0.1557 -0.3942  0.4362
 7522TIP3    H143981   0.295   1.798  15.366  0.5794 -0.9309 -0.0199
 7522TIP3    H243982   0.217   1.721  15.261  0.1863 -1.5968  0.7597
 7523TIP3   OH243983   2.596   1.712  14.220  0.3601 -0.4588  0.4278
 7523TIP3    H143984   2.614   1.618  14.233  1.5482 -0.5460 -1.5932
 7523TIP3    H243985   2.509   1.714  14.181  1.3122 -0.9281 -1.8201
 7524TIP3   OH243986   3.769   4.804  15.885 -0.5194 -0.4858  0.0134
 7524TIP3    H143987   3.733   4.731  15.936  0.4207  0.7697  2.5561
 7524TIP3    H243988   3.858   4.814  15.918  0.7338 -0.7307 -3.1210
 7525TIP3   OH243989   1.011   0.116  17.125  0.1730 -0.0022  0.5697
 7525TIP3    H143990   0.966   0.194  17.156  0.6033  0.1804  0.7314
 7525TIP3    H243991   0.958   0.043  17.157  0.1551  0.2061  1.0136
 7526TIP3   OH243992   0.663   6.310  11.630  0.2171  0.4793  0.5586
 7526TIP3    H143993   0.721   6.359  11.571  0.4708  1.1529  1.3673
 7526TIP3    H243994   0.575   6.338  11.605  0.3691  1.5555  1.1871
 7527TIP3   OH243995   6.218   6.440  15.010 -0.2307  0.3372  0.2307
 7527TIP3    H143996   6.160   6.494  15.064 -1.6689 -1.3652  0.4114
 7527TIP3    H243997   6.206   6.351  15.043  0.6636 -0.3872 -1.3449
 7528TIP3   OH243998   0.211   0.853   3.648  0.0387 -0.4276  0.0320
 7528TIP3    H143999   0.300   0.824   3.629 -0.3057 -1.8774  0.5466
 7528TIP3    H244000   0.199   0.931   3.594  1.3270 -0.7122 -0.6877
 7529TIP3   OH244001   0.182   5.587  15.337  0.2295 -0.0930 -0.6252
 7529TIP3    H144002   0.271   5.570  15.305  0.7454 -1.7695  1.6073
 7529TIP3    H244003   0.194   5.609  15.429 -1.7439 -0.9991 -0.1448
 7530TIP3   OH244004   3.201   4.228  16.544  0.1254 -0.4983 -0.3330
 7530TIP3    H144005   3.229   4.227  16.635  1.1254 -0.2592 -0.6371
 7530TIP3    H244006   3.211   4.137  16.515 -0.0301 -0.5400 -0.2568
 7531TIP3   OH244007   6.194   1.732   5.750  0.1309  0.0279  0.2253
 7531TIP3    H144008   6.127   1.737   5.818  1.0504 -0.7399  1.2037
 7531TIP3    H244009   6.169   1.799   5.686 -1.3441  0.0107  0.7678
 7532TIP3   OH244010   3.117   0.923  11.925  0.2438  0.3687 -0.6035
 7532TIP3    H144011   3.195   0.870  11.939 -0.4659 -1.1667 -2.3150
 7532TIP3    H244012   3.124   0.953  11.835 -1.5549 -0.5276 -1.0652
 7533TIP3   OH244013   0.706   0.170   0.866  0.4815  0.4462 -0.3315
 7533TIP3    H144014   0.630   0.218   0.830  0.1491 -0.5575 -0.9936
 7533TIP3    H244015   0.693   0.173   0.961 -0.3628  0.3434 -0.4327
 7534TIP3   OH244016   4.466   4.236   3.137 -0.1126  0.0116 -0.5269
 7534TIP3    H144017   4.383   4.277   3.112 -0.6522 -1.1455 -0.6684
 7534TIP3    H244018   4.530   4.273   3.076 -0.3036  1.7242  0.2721
 7535TIP3   OH244019   0.546   5.537  15.904  0.0867  0.2342  0.1860
 7535TIP3    H144020   0.565   5.453  15.862 -2.4545  0.2224 -1.0612
 7535TIP3    H244021   0.553   5.520  15.997 -0.6749 -1.4622 -0.0454
 7536TIP3   OH244022   3.277   0.840  12.482  0.1814  0.0308 -0.5694
 7536TIP3    H144023   3.199   0.824  12.536  0.0640  1.1981 -0.3847
 7536TIP3    H244024   3.245   0.893  12.409  1.1523  2.3807  0.6312
 7537TIP3   OH244025   1.083   2.636   4.709 -0.4997 -0.0971 -0.0499
 7537TIP3    H144026   1.118   2.671   4.790  1.6491 -2.3932  0.0687
 7537TIP3    H244027   1.018   2.572   4.737  0.8928 -1.5506 -0.0932
 7538TIP3   OH244028   3.433   0.992  16.609  0.0322  0.1137 -0.0287
 7538TIP3    H144029   3.473   1.077  16.587  0.0702  0.0165 -0.3331
 7538TIP3    H244030   3.497   0.927  16.579 -1.3152 -0.1226 -2.5433
 7539TIP3   OH244031   5.020   6.146   3.333  0.0083 -0.2303  0.5791
 7539TIP3    H144032   4.958   6.074   3.334 -2.1950  1.5998  0.0177
 7539TIP3    H244033   5.068   6.138   3.415 -2.0689 -0.7559  1.7597
 7540TIP3   OH244034   5.579   5.495  11.536  0.3659 -0.0130 -0.8042
 7540TIP3    H144035   5.648   5.497  11.470 -0.6576  1.1170 -1.8749
 7540TIP3    H244036   5.510   5.551  11.500  0.2294  1.4869  1.7266
 7541TIP3   OH244037   4.729   5.937  10.807  0.4934 -0.1151 -0.2488
 7541TIP3    H144038   4.769   5.895  10.731  0.4196  0.7890 -0.7894
 7541TIP3    H244039   4.779   6.018  10.820  1.7551 -1.1767  1.8402
 7542TIP3   OH244040   2.867   4.592   4.165  0.1985 -0.3624 -0.5776
 7542TIP3    H144041   2.884   4.673   4.117  1.4597 -0.3562 -0.1254
 7542TIP3    H244042   2.837   4.621   4.251  1.9166 -0.3536  0.0384
 7543TIP3   OH244043   2.387   5.539   4.806 -0.1995  0.4079  0.1076
 7543TIP3    H144044   2.476   5.511   4.785 -0.7034 -2.0937  0.9946
 7543TIP3    H244045   2.376   5.514   4.898 -1.4169  1.7703  0.3449
 7544TIP3   OH244046   1.793   3.460   3.693  0.0392 -0.1803 -0.2072
 7544TIP3    H144047   1.732   3.414   3.750  0.0216 -3.9068 -3.0653
 7544TIP3    H244048   1.744   3.473   3.611  1.7244  0.4197 -1.1361
 7545TIP3   OH244049   1.005   2.043  16.709  0.5973 -0.3238  0.2902
 7545TIP3    H144050   0.924   2.096  16.711 -0.1384 -1.4642  0.9904
 7545TIP3    H244051   1.044   2.056  16.796  1.5432  0.7811 -0.2855
 7546TIP3   OH244052   6.212   6.550  15.801 -0.5972 -0.0433  0.1950
 7546TIP3    H144053   6.184   6.641  15.814  2.9215  1.0306  0.6744
 7546TIP3    H244054   6.216   6.514  15.890  0.6827  0.1835  0.2360
 7547TIP3   OH244055   3.260   6.659  13.377  0.5761 -0.0804  0.5878
 7547TIP3    H144056   3.238   6.603  13.302  1.2835  1.1890 -0.6024
 7547TIP3    H244057   3.332   6.613  13.421  0.6464 -0.4832  0.0587
 7548TIP3   OH244058   4.618   1.875  12.939 -0.3214 -0.0799  0.5353
 7548TIP3    H144059   4.683   1.833  12.882  0.1024  3.9238 -2.1912
 7548TIP3    H244060   4.539   1.822  12.929  0.9264 -1.7867 -0.5771
 7549TIP3   OH244061   1.037   0.945  13.051  0.0958 -0.3856  0.1241
 7549TIP3    H144062   1.069   1.028  13.014  1.0402 -0.2531  1.1810
 7549TIP3    H244063   0.964   0.971  13.107  1.5446 -0.0242  1.8857
 7550TIP3   OH244064   1.519   5.673  16.118 -0.0901 -0.6182  0.2376
 7550TIP3    H144065   1.513   5.712  16.031 -1.4181 -0.1910  0.5120
 7550TIP3    H244066   1.471   5.590  16.110  1.7188 -1.6516 -0.0322
 7551TIP3   OH244067   2.651   5.400  11.501  0.1582  0.0119 -0.2077
 7551TIP3    H144068   2.697   5.332  11.549  1.4511 -0.8456 -2.5735
 7551TIP3    H244069   2.558   5.377  11.509  0.3498 -0.1040  1.8271
 7552TIP3   OH244070   3.751   3.035  16.706 -0.5043 -0.1396  0.3650
 7552TIP3    H144071   3.776   3.112  16.756  2.0267 -0.4272 -0.3703
 7552TIP3    H244072   3.698   3.068  16.634  1.3822  1.0536 -0.5021
 7553TIP3   OH244073   2.580   5.625  12.666  0.0630 -0.0058  0.1461
 7553TIP3    H144074   2.542   5.616  12.753  1.0960 -1.5099  0.4570
 7553TIP3    H244075   2.583   5.536  12.632 -0.2790  0.5705 -1.4071
 7554TIP3   OH244076   1.083   3.644   0.375  0.2642  0.2194 -0.7487
 7554TIP3    H144077   1.009   3.704   0.367 -0.4211 -0.2894  1.3309
 7554TIP3    H244078   1.046   3.565   0.415  1.6500 -0.6071 -1.0583
 7555TIP3   OH244079   6.379   4.243   3.941 -0.6407 -0.3936  0.7322
 7555TIP3    H144080   6.310   4.176   3.944 -0.0339 -1.1627 -1.3084
 7555TIP3    H244081   6.357   4.296   3.864 -0.5334  1.1233  1.7426
 7556TIP3   OH244082   1.006   0.799  16.870  0.2748 -0.1945  0.4214
 7556TIP3    H144083   0.997   0.709  16.840 -0.2567  0.0956 -0.3113
 7556TIP3    H244084   0.969   0.799  16.958  0.6482 -0.7783  0.5778
 7557TIP3   OH244085   3.975   3.843   3.945  0.0161 -0.1175  0.3134
 7557TIP3    H144086   3.885   3.860   3.972 -0.1743 -1.7041  0.7005
 7557TIP3    H244087   3.968   3.818   3.853 -0.1808 -2.2968  0.9035
 7558TIP3   OH244088   2.227   6.180  17.022  0.0253 -0.0561  0.2938
 7558TIP3    H144089   2.251   6.108  17.080  0.5988 -0.6234 -0.6338
 7558TIP3    H244090   2.132   6.172  17.012  0.1639 -1.0643 -0.2916
 7559TIP3   OH244091   2.324   4.727   3.699  0.3156 -0.1190 -0.4965
 7559TIP3    H144092   2.228   4.733   3.700  0.4455  1.8560  1.0388
 7559TIP3    H244093   2.341   4.637   3.670 -1.9924 -0.4997 -0.8106
 7560TIP3   OH244094   0.110   0.661  15.607  0.5993 -0.0081 -0.7477
 7560TIP3    H144095   0.104   0.682  15.700  0.6240 -2.6624 -0.0959
 7560TIP3    H244096   0.099   0.745  15.562  0.1420  1.2402  1.6299
 7561TIP3   OH244097   1.090   5.767  15.598 -0.3731  0.1481  0.7896
 7561TIP3    H144098   1.093   5.685  15.549  0.0331 -0.5566  1.9460
 7561TIP3    H244099   1.131   5.831  15.541 -1.7625 -0.1960 -0.6004
 7562TIP3   OH244100   1.890   0.176   3.083  0.2630  0.0775 -0.2209
 7562TIP3    H144101   1.854   0.140   3.001 -0.6278  1.4904 -0.4823
 7562TIP3    H244102   1.946   0.249   3.054  1.9955 -1.0370  0.2916
 7563TIP3   OH244103   2.618   5.632   5.299  0.2703 -0.2296  0.4309
 7563TIP3    H144104   2.583   5.543   5.293 -0.7830  0.1232  1.1582
 7563TIP3    H244105   2.712   5.622   5.284  0.1222 -1.4288  0.2414
 7564TIP3   OH244106   1.409   4.658  14.971 -0.6148  0.0673 -0.4371
 7564TIP3    H144107   1.386   4.629  15.059  1.1965  2.9630  1.0766
 7564TIP3    H244108   1.327   4.690  14.934 -1.2263 -0.3467  0.5346
 7565TIP3   OH244109   0.212   0.418   5.709  0.0437  0.0881 -0.1397
 7565TIP3    H144110   0.143   0.361   5.743 -1.2438  1.6660 -0.0287
 7565TIP3    H244111   0.251   0.369   5.637 -0.8005 -1.0683  0.1698
 7566TIP3   OH244112   5.003   4.308   6.248 -0.2197 -0.0500 -0.4690
 7566TIP3    H144113   4.980   4.225   6.207 -2.6942 -0.1963  1.1528
 7566TIP3    H244114   5.043   4.284   6.332  0.5942  0.3726 -0.7223
 7567TIP3   OH244115   5.906   2.826  16.630  0.1025 -0.3646 -0.1631
 7567TIP3    H144116   5.967   2.759  16.601 -0.1283 -0.6503  0.0128
 7567TIP3    H244117   5.839   2.830  16.562 -0.4790 -1.0863  0.3644
 7568TIP3   OH244118   2.408   5.651   2.097  0.0703 -0.3655 -0.5394
 7568TIP3    H144119   2.352   5.665   2.021 -1.4213 -2.3724  0.1436
 7568TIP3    H244120   2.418   5.556   2.103  1.0097 -0.1895  1.1718
 7569TIP3   OH244121   6.477   1.479  13.387  0.5884  0.2982  0.6013
 7569TIP3    H144122   6.549   1.528  13.426  1.1959  0.8265 -1.1280
 7569TIP3    H244123   6.423   1.545  13.343  1.2794 -0.5045 -1.5381
 7570TIP3   OH244124   4.851   3.009  12.713  0.6507  0.1363  0.0048
 7570TIP3    H144125   4.888   2.926  12.742 -0.5944 -0.5236 -0.2639
 7570TIP3    H244126   4.857   3.007  12.617  2.6250  1.3109  0.0815
 7571TIP3   OH244127   4.697   6.545   2.437 -0.4330  0.1173 -0.0657
 7571TIP3    H144128   4.752   6.622   2.422 -0.3312  0.0804  0.1208
 7571TIP3    H244129   4.632   6.575   2.500  1.0293 -0.6121  1.8420
 7572TIP3   OH244130   2.240   1.764  17.025  0.2051  0.0644 -0.2973
 7572TIP3    H144131   2.218   1.759  17.118  0.8800  0.4382 -0.1111
 7572TIP3    H244132   2.207   1.682  16.987  3.1549 -1.7995  0.9740
 7573TIP3   OH244133   4.544   2.308   2.073 -0.4367 -0.2422  0.5154
 7573TIP3    H144134   4.588   2.254   2.008 -0.0803  1.9547 -1.1075
 7573TIP3    H244135   4.589   2.288   2.155  2.5582  0.7500 -0.8208
 7574TIP3   OH244136   4.824   2.906   4.408 -0.1547 -0.4101 -0.0275
 7574TIP3    H144137   4.788   2.911   4.319  1.0799 -1.9641 -0.6583
 7574TIP3    H244138   4.803   2.817   4.436 -0.3305  0.0057  1.1553
 7575TIP3   OH244139   0.437   0.524  15.582  0.0795  0.7900 -0.0290
 7575TIP3    H144140   0.490   0.482  15.515  0.4555 -0.9057  1.3144
 7575TIP3    H244141   0.365   0.463  15.598 -1.5322  2.4260 -0.8233
 7576TIP3   OH244142   2.486   5.489   3.457 -0.1984  0.4305  0.4101
 7576TIP3    H144143   2.491   5.585   3.458  0.5145  0.3927  0.7010
 7576TIP3    H244144   2.568   5.461   3.416  0.2089 -0.0992  1.5641
 7577TIP3   OH244145   5.031   3.871  15.153  0.5767 -0.1560 -0.3601
 7577TIP3    H144146   5.103   3.814  15.129  0.3091 -0.8611  0.5066
 7577TIP3    H244147   5.068   3.960  15.146  2.4793 -0.5915  3.0690
 7578TIP3   OH244148   1.333   0.808   0.950 -0.3799  0.1025 -0.0513
 7578TIP3    H144149   1.366   0.805   0.860 -0.4242 -1.1581 -0.0434
 7578TIP3    H244150   1.410   0.829   1.003 -0.5976  2.0882 -0.4870
 7579TIP3   OH244151   3.112   5.816   0.614  0.5598 -0.2284 -0.0271
 7579TIP3    H144152   3.064   5.887   0.571  1.3223  0.7094  0.6699
 7579TIP3    H244153   3.050   5.742   0.612 -0.5192  0.6585 -0.0856
 7580TIP3   OH244154   0.201   5.791   1.627  0.0626 -0.3222 -0.2209
 7580TIP3    H144155   0.200   5.870   1.573  0.4983 -0.0207  0.2083
 7580TIP3    H244156   0.117   5.793   1.673  1.3976  1.6123  2.2404
 7581TIP3   OH244157   6.298   3.745  11.161  0.3456 -0.1481 -0.2508
 7581TIP3    H144158   6.220   3.742  11.106  0.1154  1.6381 -0.0415
 7581TIP3    H244159   6.365   3.784  11.105  0.5873  0.0457  0.1758
 7582TIP3   OH244160   6.749   6.299  11.951 -0.3661  0.0148 -0.4672
 7582TIP3    H144161   6.748   6.207  11.979  2.6100  0.1515  0.2818
 7582TIP3    H244162   6.702   6.345  12.020  0.7490 -0.5811  0.7178
 7583TIP3   OH244163   2.627   0.033   4.445 -0.3657  0.0398  0.5105
 7583TIP3    H144164   2.704  -0.020   4.426 -0.8451 -0.9998  1.3999
 7583TIP3    H244165   2.643   0.069   4.532 -0.4397  0.6276  0.2835
 7584TIP3   OH244166   3.679   6.207  14.549 -0.4102  0.5462  0.5937
 7584TIP3    H144167   3.615   6.193  14.479  0.1408 -0.7096  0.3190
 7584TIP3    H244168   3.739   6.133  14.541  1.0731  1.7107  0.8535
 7585TIP3   OH244169   5.282   4.333  16.933  0.1848  0.1538  0.0759
 7585TIP3    H144170   5.257   4.242  16.918 -0.7690  0.5204 -0.5837
 7585TIP3    H244171   5.300   4.337  17.027  1.4162 -0.9895 -0.0872
 7586TIP3   OH244172   1.031   2.115   4.182  0.6822 -0.0002 -0.4273
 7586TIP3    H144173   1.118   2.111   4.223 -1.0968 -0.6169  3.5204
 7586TIP3    H244174   1.009   2.208   4.183  1.6759  0.2767 -2.3678
 7587TIP3   OH244175   3.226   4.276   3.807  0.1669 -0.0570  0.0980
 7587TIP3    H144176   3.189   4.232   3.884 -0.8885  1.2918  0.3802
 7587TIP3    H244177   3.260   4.359   3.840  1.1115 -0.1420 -0.6278
 7588TIP3   OH244178   3.456   2.583   2.166 -0.1079 -0.4837  0.0818
 7588TIP3    H144179   3.431   2.494   2.191  0.2947 -0.9374 -1.0769
 7588TIP3    H244180   3.375   2.633   2.173 -0.9515 -1.5214 -1.7540
 7589TIP3   OH244181   1.929   6.014  11.435 -0.2679  0.8632 -0.1826
 7589TIP3    H144182   1.840   6.030  11.465  0.0802  1.1795  0.6977
 7589TIP3    H244183   1.984   6.069  11.492  0.3817  1.6905 -1.5637
 7590TIP3   OH244184   0.036   3.086  14.700  0.2603 -0.2781  0.5750
 7590TIP3    H144185   0.060   3.033  14.624 -0.9972  0.9286 -0.7039
 7590TIP3    H244186  -0.060   3.085  14.701  0.2522  0.4711  1.5995
 7591TIP3   OH244187   5.626   3.197  16.204 -0.3335  0.2457  0.3180
 7591TIP3    H144188   5.711   3.225  16.236 -1.1537  1.0883  1.8447
 7591TIP3    H244189   5.629   3.101  16.207 -0.5832  0.2906  3.6051
 7592TIP3   OH244190   5.376   1.259   1.712 -0.1009 -0.1941  0.3945
 7592TIP3    H144191   5.281   1.272   1.705 -0.0223  0.7193  0.9514
 7592TIP3    H244192   5.412   1.348   1.710  0.8470 -0.5834 -1.2372
 7593TIP3   OH244193   4.781   3.277  13.891 -0.0324 -0.1031 -0.1690
 7593TIP3    H144194   4.805   3.289  13.983 -2.8899 -1.4139  0.8026
 7593TIP3    H244195   4.716   3.345  13.875 -0.6519 -0.8516 -0.8012
 7594TIP3   OH244196   5.994   5.967  16.473 -0.0246  0.2865  0.7574
 7594TIP3    H144197   5.926   5.905  16.503 -0.8208  1.1460  0.7401
 7594TIP3    H244198   6.059   5.911  16.430 -1.5369 -0.3837 -0.7332
 7595TIP3   OH244199   6.398   6.723  14.944  0.1961  0.1440 -0.7635
 7595TIP3    H144200   6.369   6.812  14.965  1.4793  0.5956 -0.8630
 7595TIP3    H244201   6.387   6.675  15.027 -1.9402 -0.0059 -1.1172
 7596TIP3   OH244202   1.209   2.309   0.064 -0.1666  0.0631  1.2503
 7596TIP3    H144203   1.181   2.329   0.153 -1.6144 -0.5782  0.9519
 7596TIP3    H244204   1.239   2.218   0.068  0.0526  0.1304  1.1502
 7597TIP3   OH244205   2.110   5.134   3.113  0.2762 -0.1571  0.3143
 7597TIP3    H144206   2.083   5.182   3.034  0.2408 -1.2275 -0.3406
 7597TIP3    H244207   2.029   5.121   3.162 -0.0313 -1.2049 -0.4438
 7598TIP3   OH244208   4.724   5.673  13.966 -0.0102 -0.3042  0.2655
 7598TIP3    H144209   4.666   5.749  13.964  0.5071  0.1049  0.9934
 7598TIP3    H244210   4.676   5.606  13.916 -0.3878  0.5423 -0.5266
 7599TIP3   OH244211   5.813   4.762  16.853  0.3602  0.2381 -0.3627
 7599TIP3    H144212   5.861   4.831  16.807  0.0212  0.1429 -0.8678
 7599TIP3    H244213   5.834   4.776  16.945 -1.1973  2.2146 -0.2589
 7600TIP3   OH244214   0.644   1.091  10.782  0.1823 -0.3178 -0.3582
 7600TIP3    H144215   0.646   1.054  10.694 -2.0798  0.7273 -0.9103
 7600TIP3    H244216   0.692   1.173  10.775 -0.6323  0.1230 -0.8073
 7601TIP3   OH244217   6.719   1.970   2.162 -0.0882  0.0680  0.8875
 7601TIP3    H144218   6.734   1.888   2.114  0.6068  0.1715  0.9249
 7601TIP3    H244219   6.647   1.949   2.222 -2.5846  0.6114 -1.8055
 7602TIP3   OH244220   2.382   2.971   3.318  0.2175 -0.1222 -0.3134
 7602TIP3    H144221   2.465   2.945   3.359  0.4633  1.6630  0.3968
 7602TIP3    H244222   2.388   2.939   3.228  1.4897 -0.4317 -0.1261
 7603TIP3   OH244223   4.271   3.268   5.785 -0.0541 -0.2377  0.4850
 7603TIP3    H144224   4.226   3.342   5.743 -0.0957 -0.8251 -0.5320
 7603TIP3    H244225   4.317   3.306   5.859 -0.8874  0.6498  0.5552
 7604TIP3   OH244226   1.296   3.651   1.507  0.0862 -0.3475 -0.4894
 7604TIP3    H144227   1.285   3.609   1.422  0.3595  1.3773 -1.4199
 7604TIP3    H244228   1.209   3.687   1.527 -0.0057 -0.8514  0.0185
 7605TIP3   OH244229   0.396   3.290  17.017 -0.1558  0.2233 -0.0789
 7605TIP3    H144230   0.461   3.260  17.081 -0.6011  2.1279  1.3125
 7605TIP3    H244231   0.425   3.378  16.993 -1.1596  0.3324 -0.9294
 7606TIP3   OH244232   3.015   3.325   2.453 -0.1951 -0.0013  0.1206
 7606TIP3    H144233   2.934   3.294   2.493  0.0184 -0.7822 -0.0492
 7606TIP3    H244234   3.025   3.271   2.375  0.9698 -0.5469  0.6363
 7607TIP3   OH244235   1.062   2.870   1.221  0.7026  0.1236 -0.1295
 7607TIP3    H144236   1.074   2.851   1.128  1.5337 -2.9263  0.5635
 7607TIP3    H244237   1.093   2.792   1.266  0.7082  1.7244  2.7550
 7608TIP3   OH244238   0.959   6.506  11.881 -0.3325  0.1142  0.2360
 7608TIP3    H144239   1.009   6.451  11.821 -3.3769 -3.0811  0.4996
 7608TIP3    H244240   0.926   6.577  11.826 -1.0005 -1.3975 -1.3422
 7609TIP3   OH244241   1.768   5.300  14.259 -0.2422  0.2403  0.1931
 7609TIP3    H144242   1.862   5.316  14.267 -0.2217  0.0022  0.4359
 7609TIP3    H244243   1.751   5.303  14.165 -0.2323  1.6599  0.2138
 7610TIP3   OH244244   5.719   1.625   5.713 -0.2023  0.4009  0.4098
 7610TIP3    H144245   5.812   1.602   5.720 -0.2502  0.1928  0.3842
 7610TIP3    H244246   5.705   1.691   5.781  0.0999  0.8682  0.0217
 7611TIP3   OH244247   3.022   3.052   5.016 -0.2271 -0.3248  0.7582
 7611TIP3    H144248   3.058   3.085   5.098 -0.3151  1.6880  0.0202
 7611TIP3    H244249   2.927   3.050   5.031 -0.2303 -0.1275  0.7602
 7612TIP3   OH244250   5.080   6.011  15.287 -0.5429 -0.3835  0.5528
 7612TIP3    H144251   5.012   5.943  15.289  1.4845 -2.4712  0.0179
 7612TIP3    H244252   5.130   5.992  15.208  0.1811  1.6572  0.4948
 7613TIP3   OH244253   4.065   1.985  12.759 -0.3222  0.1709  0.2411
 7613TIP3    H144254   4.144   2.014  12.806 -0.1983  2.1315 -1.0947
 7613TIP3    H244255   4.099   1.925  12.692 -0.1050  0.0664  0.4420
 7614TIP3   OH244256   5.649   2.085   4.026 -0.2438  0.1348 -0.2605
 7614TIP3    H144257   5.678   2.175   4.037  0.4875 -0.0174 -0.9113
 7614TIP3    H244258   5.590   2.070   4.100 -0.9550  1.3718 -0.5646
 7615TIP3   OH244259   4.838   0.186   4.332 -0.1519  0.2548  0.1730
 7615TIP3    H144260   4.894   0.116   4.366 -2.1472 -0.7799  1.4646
 7615TIP3    H244261   4.807   0.152   4.248  1.1889  0.8653 -0.5839
 7616TIP3   OH244262   3.860   2.256   0.760  0.1526 -0.0733 -0.5156
 7616TIP3    H144263   3.886   2.165   0.743 -0.7734 -0.3236 -0.6011
 7616TIP3    H244264   3.940   2.306   0.746  1.5679 -1.2330  2.8678
 7617TIP3   OH244265   1.366   2.633  13.392  0.6929  0.2906  0.4150
 7617TIP3    H144266   1.311   2.708  13.371 -2.0551 -1.2116  1.9969
 7617TIP3    H244267   1.323   2.559  13.350  1.3504 -0.9542  1.8608
 7618TIP3   OH244268   3.526   0.914  14.827  0.0969 -0.0676 -1.0948
 7618TIP3    H144269   3.550   0.990  14.881 -1.7699 -0.3289  0.1495
 7618TIP3    H244270   3.540   0.838  14.884  0.7056 -0.5640 -1.8970
 7619TIP3   OH244271   3.099   1.177   3.994 -0.3535  0.3554 -0.2816
 7619TIP3    H144272   3.145   1.261   4.001  0.5999 -0.1146 -0.7327
 7619TIP3    H244273   3.055   1.166   4.078  3.0448 -0.6870  1.4776
 7620TIP3   OH244274   2.673   5.798  13.338  0.1130  0.2108 -0.5362
 7620TIP3    H144275   2.642   5.828  13.423  1.8418  0.1273  0.1405
 7620TIP3    H244276   2.630   5.855  13.275  0.1227  1.3626  0.4887
 7621TIP3   OH244277   1.344   6.484  15.391 -0.3020 -0.0655 -0.2298
 7621TIP3    H144278   1.373   6.393  15.390  1.0543  0.3645 -0.4970
 7621TIP3    H244279   1.256   6.481  15.354 -0.2041 -1.2538 -0.3885
 7622TIP3   OH244280   2.775   0.546  12.807 -0.8114  0.2326 -0.2804
 7622TIP3    H144281   2.780   0.524  12.900  0.3959  1.0426 -0.1349
 7622TIP3    H244282   2.723   0.476  12.768 -0.1867 -0.8383  0.7767
 7623TIP3   OH244283   3.834   6.209   6.777 -0.1057 -0.3468  0.0550
 7623TIP3    H144284   3.882   6.168   6.706 -0.5004  0.8579 -0.9295
 7623TIP3    H244285   3.780   6.139   6.814 -1.2297 -0.6145 -1.9809
 7624TIP3   OH244286   5.752   0.394  14.332  0.3492 -0.2372  0.6670
 7624TIP3    H144287   5.730   0.439  14.251  0.7164 -0.3757  0.4918
 7624TIP3    H244288   5.830   0.439  14.365 -1.1652  1.3714  2.1749
 7625TIP3   OH244289   4.607   6.514   5.904 -0.0980  0.0987 -0.4083
 7625TIP3    H144290   4.561   6.472   5.976 -0.9424  1.6849 -0.0173
 7625TIP3    H244291   4.552   6.496   5.827 -0.8362  1.0861 -0.1198
 7626TIP3   OH244292   1.655   3.476  11.312 -0.0069  0.0869 -0.2103
 7626TIP3    H144293   1.560   3.466  11.303 -0.0077  0.0210 -0.1274
 7626TIP3    H244294   1.688   3.473  11.223 -0.4452  3.7804 -0.5677
 7627TIP3   OH244295   1.695   1.778  15.196 -0.1974 -0.1808 -0.8586
 7627TIP3    H144296   1.749   1.775  15.117  0.7228 -0.9216 -0.2040
 7627TIP3    H244297   1.606   1.768  15.164 -0.0055  1.4574 -1.9869
 7628TIP3   OH244298   0.670   4.605  12.285  0.0514 -0.7425 -0.2159
 7628TIP3    H144299   0.614   4.629  12.359  0.0643  1.0962 -0.7779
 7628TIP3    H244300   0.609   4.596  12.212  0.1281 -1.8350 -0.1543
 7629TIP3   OH244301   2.239   0.271  16.176 -0.5194 -0.7339 -0.0353
 7629TIP3    H144302   2.310   0.216  16.143 -1.6445 -2.0704 -0.2407
 7629TIP3    H244303   2.218   0.234  16.261 -1.1899 -0.5289 -0.1095
 7630TIP3   OH244304   5.013   4.686  12.316  0.1460 -0.1236  0.5795
 7630TIP3    H144305   4.955   4.611  12.330 -0.6834  0.4425  0.2370
 7630TIP3    H244306   4.979   4.753  12.375 -1.4633  1.2418 -1.7736
 7631TIP3   OH244307   5.153   4.976  11.114 -0.1556 -0.4022  0.6658
 7631TIP3    H144308   5.059   4.960  11.113 -0.3556  0.6943 -2.2329
 7631TIP3    H244309   5.191   4.892  11.089 -0.5488 -0.0368 -1.2488
 7632TIP3   OH244310   5.415   1.811  15.917 -0.4484 -0.4388 -0.1188
 7632TIP3    H144311   5.337   1.760  15.896  0.9726 -2.0776 -1.6143
 7632TIP3    H244312   5.473   1.748  15.961  0.4654  0.4714  0.0060
 7633TIP3   OH244313   4.624   3.296  11.326  0.0090 -0.1026 -0.5791
 7633TIP3    H144314   4.685   3.346  11.272 -0.1634  0.7229 -0.0211
 7633TIP3    H244315   4.540   3.342  11.316 -0.1403 -0.2516 -0.0275
 7634TIP3   OH244316   3.420   2.980  16.203  0.5973 -0.3064 -0.5197
 7634TIP3    H144317   3.478   2.934  16.264 -1.2125 -1.3242  0.4758
 7634TIP3    H244318   3.479   3.028  16.145  2.4287 -1.3511  0.4458
 7635TIP3   OH244319   5.836   2.824   4.000 -0.1540 -0.4812 -0.0433
 7635TIP3    H144320   5.903   2.856   4.059 -1.7734  1.7378  0.6668
 7635TIP3    H244321   5.880   2.758   3.946  3.2195  2.5783 -1.2316
 7636TIP3   OH244322   0.242   5.135  14.164 -0.4003 -0.3048 -0.1058
 7636TIP3    H144323   0.259   5.227  14.147  0.3788  0.0517  2.4067
 7636TIP3    H244324   0.174   5.111  14.100 -1.7275  2.3979  0.2170
 7637TIP3   OH244325   2.498   1.509  10.889  0.6355  0.7941  0.0387
 7637TIP3    H144326   2.429   1.506  10.823  0.5062  3.0266  0.0379
 7637TIP3    H244327   2.579   1.509  10.839  0.5886  0.4778 -0.0385
 7638TIP3   OH244328   5.677   0.431  12.446 -0.1485  0.3588 -0.2716
 7638TIP3    H144329   5.687   0.336  12.443 -0.6014  0.2886  0.2954
 7638TIP3    H244330   5.583   0.446  12.433 -0.1027  0.7200 -0.2094
 7639TIP3   OH244331   5.098   2.402   1.860 -0.2210 -1.0054 -0.1560
 7639TIP3    H144332   5.062   2.418   1.772 -1.5495 -0.6036  0.4422
 7639TIP3    H244333   5.127   2.311   1.858  0.7379 -0.6737 -1.3476
 7640TIP3   OH244334   4.822   6.670  16.367  0.6337  0.3249  0.1919
 7640TIP3    H144335   4.736   6.664  16.325  0.6965 -0.5038  0.1838
 7640TIP3    H244336   4.871   6.732  16.313  0.1629  0.5277 -0.0057
 7641TIP3   OH244337   3.506   6.492  13.481  0.0313 -0.6288 -0.4082
 7641TIP3    H144338   3.558   6.424  13.439 -0.5546 -0.0205 -2.1593
 7641TIP3    H244339   3.568   6.562  13.499 -0.1067 -0.0318 -2.2121
 7642TIP3   OH244340   1.145   1.513   2.208 -0.3888  0.4181  0.0203
 7642TIP3    H144341   1.130   1.559   2.125  2.3772 -0.0218 -0.7919
 7642TIP3    H244342   1.058   1.499   2.244 -1.8071 -1.0725 -3.7454
 7643TIP3   OH244343   1.633   0.595   5.838 -0.1926 -0.0029  0.6587
 7643TIP3    H144344   1.638   0.508   5.878 -0.2080  0.6160  2.0246
 7643TIP3    H244345   1.571   0.643   5.894  1.0984  1.4004  0.8885
 7644TIP3   OH244346   0.050   4.037   6.623  0.2679  0.7222  0.7034
 7644TIP3    H144347   0.022   4.122   6.591  4.1579  2.1857  0.8888
 7644TIP3    H244348   0.055   3.982   6.545  0.0817  1.3650  0.2385
 7645TIP3   OH244349   0.754   5.123   3.551  0.6251  0.0219  0.0245
 7645TIP3    H144350   0.708   5.182   3.610  0.9907  0.8480 -0.5184
 7645TIP3    H244351   0.802   5.063   3.609 -1.0762 -0.8165  0.5886
 7646TIP3   OH244352   3.445   4.216   2.755 -0.1815 -0.8603 -0.2368
 7646TIP3    H144353   3.468   4.211   2.848  0.1124  1.7618 -0.1408
 7646TIP3    H244354   3.350   4.218   2.754 -0.1760 -0.2775  0.0571
 7647TIP3   OH244355   4.692   6.317  16.035  0.4031 -0.2415 -0.2518
 7647TIP3    H144356   4.614   6.343  16.086 -0.3972  0.3459 -1.7359
 7647TIP3    H244357   4.766   6.345  16.089 -0.4416  2.1586 -0.2752
 7648TIP3   OH244358   2.516   4.861  16.592 -0.0026 -0.3706 -0.4809
 7648TIP3    H144359   2.462   4.936  16.617  0.6576  0.8294 -2.5803
 7648TIP3    H244360   2.587   4.861  16.655 -0.6519  0.0303  0.2622
 7649TIP3   OH244361   0.033   3.519  12.147  0.0522 -0.2537  0.4302
 7649TIP3    H144362   0.092   3.572  12.094 -2.5751  1.3693 -0.9155
 7649TIP3    H244363   0.010   3.445  12.091  0.8311 -0.9497  0.9991
 7650TIP3   OH244364   2.280   6.781   3.881 -0.3427  0.1034 -0.0329
 7650TIP3    H144365   2.192   6.745   3.884 -0.4422  0.2652 -0.9517
 7650TIP3    H244366   2.298   6.793   3.788  0.0780  1.4762  0.2205
 7651TIP3   OH244367   5.057   4.081  14.250  0.1698  0.1633 -0.8521
 7651TIP3    H144368   5.138   4.046  14.287  1.3023  0.8507 -2.6570
 7651TIP3    H244369   5.066   4.176  14.257 -0.4206  0.2446 -1.1843
 7652TIP3   OH244370   6.359   0.753   3.578 -0.1886  1.2307 -0.5670
 7652TIP3    H144371   6.400   0.832   3.612  0.8394  0.7866 -0.7816
 7652TIP3    H244372   6.350   0.769   3.484 -1.4447  1.7421 -0.3717
 7653TIP3   OH244373   4.608   6.680   4.256  0.7939 -0.6277 -0.1715
 7653TIP3    H144374   4.594   6.765   4.214  0.1191 -1.2639 -1.2614
 7653TIP3    H244375   4.690   6.648   4.219  0.8553 -0.6250 -0.0396
 7654TIP3   OH244376   3.124   1.269   5.191  0.4409 -0.7435 -0.2985
 7654TIP3    H144377   3.176   1.236   5.265  0.0048 -0.5777  0.0804
 7654TIP3    H244378   3.084   1.349   5.224  2.0379  0.5420 -1.4258
 7655TIP3   OH244379   3.296   2.866   5.601  0.1571 -0.1568 -0.1566
 7655TIP3    H144380   3.368   2.924   5.577  1.1435 -1.1994  0.2110
 7655TIP3    H244381   3.304   2.855   5.696 -0.0213 -0.8788 -0.2164
 7656TIP3   OH244382   1.886   1.067  15.451 -0.1564  0.1485  0.3148
 7656TIP3    H144383   1.872   1.047  15.358  0.3108  0.7645  0.1099
 7656TIP3    H244384   1.818   1.132  15.471 -0.9555 -0.7906  0.6892
 7657TIP3   OH244385   2.568   0.087   1.281 -0.2849 -0.4113  0.0430
 7657TIP3    H144386   2.493   0.110   1.225  0.0901  0.4804 -0.1041
 7657TIP3    H244387   2.635   0.151   1.257  1.3649 -2.6383 -1.5037
 7658TIP3   OH244388   3.951   3.109   3.490  0.3170  0.0938  0.2910
 7658TIP3    H144389   4.036   3.121   3.531  1.0380  3.9628 -2.0844
 7658TIP3    H244390   3.934   3.192   3.446 -5.3031 -0.0907  1.7576
 7659TIP3   OH244391   6.259   6.401  13.015  0.2403 -0.4876  0.1005
 7659TIP3    H144392   6.249   6.359  12.930  0.0869  0.8721 -0.5581
 7659TIP3    H244393   6.221   6.339  13.077 -0.9025 -0.8786 -0.9721
 7660TIP3   OH244394   5.591   3.495  10.743 -0.4352  0.5194 -0.0446
 7660TIP3    H144395   5.649   3.433  10.788 -3.3172 -1.7228  0.7796
 7660TIP3    H244396   5.558   3.551  10.813 -1.7485 -0.3204  0.0224
 7661TIP3   OH244397   1.558   1.563   5.436 -0.5027 -0.2201 -0.1822
 7661TIP3    H144398   1.538   1.593   5.525 -1.1814 -0.4597 -0.2509
 7661TIP3    H244399   1.579   1.643   5.388 -0.2488 -0.0767  0.1609
 7662TIP3   OH244400   4.426   5.195  16.297  0.4275 -0.2398 -0.2404
 7662TIP3    H144401   4.512   5.236  16.309 -0.3975  1.5051 -0.1405
 7662TIP3    H244402   4.419   5.134  16.370  0.4495  1.6308  1.3833
 7663TIP3   OH244403   1.782   1.031   0.294 -0.0002 -0.1123 -0.2836
 7663TIP3    H144404   1.863   1.068   0.260 -0.2028  0.7947  0.2154
 7663TIP3    H244405   1.744   0.985   0.219  1.8535 -2.1236 -0.0606
 7664TIP3   OH244406   0.625   1.280  17.160  0.1014 -0.5365 -0.4983
 7664TIP3    H144407   0.650   1.190  17.139  0.2808 -0.4327 -0.7315
 7664TIP3    H244408   0.551   1.271  17.220  0.9580 -0.8478  0.5177
 7665TIP3   OH244409   1.440   2.337  14.351 -0.1695  0.1471 -0.4147
 7665TIP3    H144410   1.450   2.282  14.273 -0.1455 -0.2810 -0.1153
 7665TIP3    H244411   1.364   2.392  14.332 -2.1648 -2.1566  0.5071
 7666TIP3   OH244412   4.645   5.312   1.671 -0.1859 -0.2189 -0.0015
 7666TIP3    H144413   4.699   5.287   1.746 -1.9797 -1.5018  0.9316
 7666TIP3    H244414   4.669   5.250   1.602 -0.8628 -1.1705  0.6028
 7667TIP3   OH244415   2.099   5.483  15.160  0.2615 -0.5422  0.0521
 7667TIP3    H144416   2.056   5.416  15.212 -0.1046 -1.8566 -1.8740
 7667TIP3    H244417   2.190   5.483  15.191 -0.0367 -1.0137  0.9449
 7668TIP3   OH244418   6.060   6.650  15.148 -0.3254  0.6692  0.4231
 7668TIP3    H144419   5.972   6.666  15.183 -0.4610  0.6083  0.1247
 7668TIP3    H244420   6.113   6.723  15.179 -0.4101  0.5398  0.8645
 7669TIP3   OH244421   6.106   3.459  12.383  0.1093  0.5152  0.2032
 7669TIP3    H144422   6.131   3.494  12.468 -2.2613  0.1995  1.0556
 7669TIP3    H244423   6.187   3.420  12.348  1.4312  1.9152  1.6515
 7670TIP3   OH244424   4.809   5.385  17.066  0.0111  1.1369 -0.1709
 7670TIP3    H144425   4.764   5.450  17.120 -1.5240  0.1408 -0.2234
 7670TIP3    H244426   4.761   5.384  16.984  0.0080 -0.0597 -0.1654
 7671TIP3   OH244427   2.067   4.132   5.517  0.6658  0.1462 -0.3870
 7671TIP3    H144428   2.019   4.055   5.485  3.1200 -0.7477 -2.0432
 7671TIP3    H244429   2.060   4.195   5.445 -0.4576  1.1279  0.5534
 7672TIP3   OH244430   1.663   1.755  15.955 -0.8852 -0.0638 -0.3951
 7672TIP3    H144431   1.613   1.710  15.887  0.6581 -0.3034 -1.3871
 7672TIP3    H244432   1.741   1.701  15.967  0.9891  2.3251 -1.5794
 7673TIP3   OH244433   5.637   1.816  14.620  0.0351  0.4174 -0.3765
 7673TIP3    H144434   5.597   1.868  14.551  2.7341  0.4151 -2.0423
 7673TIP3    H244435   5.662   1.880  14.687 -0.4438  0.7362 -0.5066
 7674TIP3   OH244436   0.909   4.250   1.350 -0.1406  0.2791 -0.2923
 7674TIP3    H144437   0.905   4.164   1.308  1.0869  0.1790 -0.2201
 7674TIP3    H244438   0.994   4.285   1.324  0.8048  0.0902  2.3474
 7675TIP3   OH244439   4.460   3.211  14.397 -0.2501 -0.0729  0.3679
 7675TIP3    H144440   4.420   3.286  14.353  1.6758  0.2355 -0.9146
 7675TIP3    H244441   4.506   3.250  14.472 -1.5757 -0.3197  1.3215
 7676TIP3   OH244442   4.122   0.049  16.432 -1.0864  0.9038 -0.4655
 7676TIP3    H144443   4.122  -0.044  16.410  0.7431  0.6141  0.7368
 7676TIP3    H244444   4.145   0.093  16.350 -0.6943  0.2334 -0.7137
 7677TIP3   OH244445   1.990   0.025  13.167  0.7649  0.7330 -0.4475
 7677TIP3    H144446   2.018   0.039  13.257  0.4409  2.4692 -0.6068
 7677TIP3    H244447   1.895   0.012  13.172  0.4843  2.5275 -0.6880
 7678TIP3   OH244448   0.083   2.981  12.836 -0.7673 -0.2448 -0.1863
 7678TIP3    H144449   0.114   3.070  12.819  0.7127 -0.6640  0.2335
 7678TIP3    H244450   0.007   2.971  12.779 -0.3970  0.9690 -0.9194
 7679TIP3   OH244451   6.012   6.676  16.071 -0.1795  0.0832  0.2216
 7679TIP3    H144452   5.996   6.766  16.099 -0.1147  0.8408 -2.1239
 7679TIP3    H244453   5.932   6.629  16.093 -0.9918  1.1615 -0.4242
 7680TIP3   OH244454   2.626   4.806   1.661  0.3827  0.5728 -0.5959
 7680TIP3    H144455   2.575   4.883   1.637  0.6750  0.0136 -3.1207
 7680TIP3    H244456   2.651   4.766   1.578  0.5893 -2.0416  0.6619
 7681TIP3   OH244457   6.484   0.289  12.128  0.1868 -0.1653 -0.4776
 7681TIP3    H144458   6.539   0.280  12.205 -1.2536  1.0543  0.7479
 7681TIP3    H244459   6.545   0.304  12.055  1.5564 -1.3648  0.4121
 7682TIP3   OH244460   3.367   1.198   4.678 -0.5114 -0.0632 -0.0848
 7682TIP3    H144461   3.377   1.107   4.706 -1.1565 -0.0570  0.1750
 7682TIP3    H244462   3.394   1.250   4.754 -0.3147 -0.0331 -0.1729
 7683TIP3   OH244463   6.527   4.724   6.033  0.5099 -0.1500 -0.1592
 7683TIP3    H144464   6.511   4.723   5.938 -1.6370  0.1105  0.1687
 7683TIP3    H244465   6.545   4.633   6.055 -2.2556 -0.7792 -0.3321
 7684TIP3   OH244466   3.069   4.580   2.068 -0.0264 -0.2003  0.3606
 7684TIP3    H144467   3.101   4.649   2.009  1.0773  0.3140  1.5177
 7684TIP3    H244468   2.992   4.544   2.024  1.2376 -0.3992 -1.7843
 7685TIP3   OH244469   5.804   4.354  16.957  0.2063  0.0918 -0.0626
 7685TIP3    H144470   5.774   4.264  16.966  1.9255 -0.5810 -0.8354
 7685TIP3    H244471   5.812   4.367  16.863  1.0591  0.6749  0.0874
 7686TIP3   OH244472   6.471   5.485   1.972  0.0754 -0.4345  0.4791
 7686TIP3    H144473   6.436   5.397   1.986 -1.6417 -0.1980 -1.9817
 7686TIP3    H244474   6.425   5.539   2.036 -0.2584 -1.0112  0.7392
 7687TIP3   OH244475   6.156   4.207  14.639  0.8885 -0.5887  0.0534
 7687TIP3    H144476   6.217   4.133  14.641  1.1945 -0.4901 -2.6739
 7687TIP3    H244477   6.207   4.278  14.600  0.2903  0.7786  1.7508
 7688TIP3   OH244478   0.281   3.873  11.942  0.9455  0.6021 -0.3133
 7688TIP3    H144479   0.261   3.949  11.996  1.7010  0.2989  0.4065
 7688TIP3    H244480   0.351   3.827  11.990 -0.9199 -1.6773  0.3098
 7689TIP3   OH244481   4.224   0.481  14.185  0.1106 -0.4044  0.3562
 7689TIP3    H144482   4.265   0.564  14.160 -2.8213  0.5180 -1.6316
 7689TIP3    H244483   4.141   0.506  14.226 -0.8875 -2.3244 -0.4179
 7690TIP3   OH244484   4.046   6.407  16.566  0.0349 -0.2215 -0.0769
 7690TIP3    H144485   3.961   6.451  16.579  0.0246 -0.7207  1.6400
 7690TIP3    H244486   4.078   6.390  16.654  1.9228 -0.0747 -0.7166
 7691TIP3   OH244487   6.645   2.903   4.798  0.0763  0.3466 -0.2932
 7691TIP3    H144488   6.583   2.950   4.854  0.9482  3.3606 -1.7425
 7691TIP3    H244489   6.730   2.917   4.841  0.3073 -0.1182 -0.6037
 7692TIP3   OH244490   2.095   0.373   6.269  0.3908  0.3694 -0.1813
 7692TIP3    H144491   2.073   0.415   6.352 -0.6369 -1.3417  0.4383
 7692TIP3    H244492   2.162   0.308   6.293 -0.1663 -0.3734 -0.6143
 7693TIP3   OH244493   3.846   2.142   0.362  0.3466 -0.2201  0.1288
 7693TIP3    H144494   3.898   2.195   0.422  0.2051 -0.9573  0.9102
 7693TIP3    H244495   3.883   2.054   0.369 -0.4348 -0.5623  0.0250
 7694TIP3   OH244496   0.094   0.840   4.039  0.4535 -0.6737  0.0348
 7694TIP3    H144497   0.156   0.830   4.112 -0.3214 -0.2123  0.7607
 7694TIP3    H244498   0.138   0.797   3.965  2.4755  1.2278  0.0538
 7695TIP3   OH244499   2.893   0.017  14.717  0.2783 -0.2709 -0.5767
 7695TIP3    H144500   2.884  -0.060  14.660 -0.6399 -0.2830 -0.4120
 7695TIP3    H244501   2.831   0.003  14.788  0.0329  0.6673 -0.5946
 7696TIP3   OH244502   0.420   2.175   6.223 -0.5876  0.1750  0.1455
 7696TIP3    H144503   0.429   2.209   6.312  1.0396  1.4523 -0.5016
 7696TIP3    H244504   0.506   2.138   6.202 -0.9799 -0.1696 -0.8855
 7697TIP3   OH244505   2.786   1.504  13.293  0.3504  0.3620  0.5546
 7697TIP3    H144506   2.795   1.536  13.203  1.2600 -1.3932 -0.0183
 7697TIP3    H244507   2.694   1.517  13.314 -0.1820 -0.4348 -1.1412
 7698TIP3   OH244508   5.119   5.744  12.730  0.5328 -0.7922  0.1488
 7698TIP3    H144509   5.180   5.723  12.659  1.2986  0.0506  0.5550
 7698TIP3    H244510   5.103   5.660  12.772  1.3796 -1.0378  0.0069
 7699TIP3   OH244511   6.027   2.064  13.547  0.3961 -0.2576 -0.1230
 7699TIP3    H144512   5.965   2.096  13.613  0.3815 -1.4509  0.4487
 7699TIP3    H244513   5.977   2.067  13.465 -0.1404 -0.3659  0.1945
 7700TIP3   OH244514   2.061   1.697  11.697  0.1517  0.0176  0.5043
 7700TIP3    H144515   2.014   1.660  11.771  0.9480  0.2428  1.1204
 7700TIP3    H244516   2.083   1.622  11.642  0.8711 -0.3132  1.2417
 7701TIP3   OH244517   1.087   0.959   0.368 -0.2409  0.6242 -0.0854
 7701TIP3    H144518   1.068   0.963   0.274  0.8426  1.7329 -0.2772
 7701TIP3    H244519   1.005   0.982   0.410 -0.4826  1.0932 -0.7949
 7702TIP3   OH244520   3.058   6.532  12.872  0.3612 -0.2267 -0.0240
 7702TIP3    H144521   3.039   6.614  12.916 -1.9431 -0.2299 -0.9380
 7702TIP3    H244522   3.106   6.557  12.793  0.0576  0.2188 -0.0687
 7703TIP3   OH244523   5.160   0.304  14.805 -0.1653  0.6319  0.0761
 7703TIP3    H144524   5.249   0.277  14.829 -0.5418 -0.3422  0.3840
 7703TIP3    H244525   5.170   0.343  14.718  0.0828 -2.5006 -1.3906
 7704TIP3   OH244526   2.614   1.808   6.262 -0.6389  0.1243 -0.2411
 7704TIP3    H144527   2.650   1.724   6.291 -2.3577  0.1089  1.9377
 7704TIP3    H244528   2.680   1.872   6.288 -1.2126 -0.1137  1.8936
 7705TIP3   OH244529   3.307   2.030   4.677  0.2915 -0.5326  0.2129
 7705TIP3    H144530   3.394   2.046   4.640  0.7756 -0.7538  1.2343
 7705TIP3    H244531   3.290   2.107   4.731  0.5080 -1.1708  1.2096
 7706TIP3   OH244532   6.346   1.679   1.257  1.0814 -0.4719 -0.2115
 7706TIP3    H144533   6.335   1.771   1.232  2.1283  0.3691  2.2373
 7706TIP3    H244534   6.258   1.650   1.279  0.8779  0.2598 -0.0234
 7707TIP3   OH244535   5.193   5.304   5.463  0.3928  0.1287 -0.1618
 7707TIP3    H144536   5.139   5.383   5.457  0.4240  0.0721 -1.3924
 7707TIP3    H244537   5.129   5.234   5.478  0.2019  0.1769 -0.7297
 7708TIP3   OH244538   3.112   0.774   0.264  0.2682 -0.3576 -0.1975
 7708TIP3    H144539   3.098   0.681   0.247 -2.8037  0.3423 -2.1036
 7708TIP3    H244540   3.195   0.794   0.222  1.5280 -2.4592  1.2344
 7709TIP3   OH244541   3.671   2.260  15.633 -0.0195  1.1306 -0.0059
 7709TIP3    H144542   3.734   2.300  15.574 -0.4162 -0.9081 -1.8896
 7709TIP3    H244543   3.693   2.166  15.632 -2.8108  0.4224 -0.4077
 7710TIP3   OH244544   4.694   5.481   3.759 -0.2033  0.3573  0.6563
 7710TIP3    H144545   4.754   5.514   3.692  0.9325 -0.1506  1.3923
 7710TIP3    H244546   4.615   5.534   3.750  0.1135  0.5999 -0.7719
 7711TIP3   OH244547   3.441   2.129  13.870 -0.2099 -0.3889 -0.3761
 7711TIP3    H144548   3.521   2.076  13.859 -1.2726 -1.8344 -1.3163
 7711TIP3    H244549   3.451   2.168  13.957  0.8663 -1.6876  0.1142
 7712TIP3   OH244550   2.394   2.449  11.795 -0.3395 -0.0459 -0.1160
 7712TIP3    H144551   2.331   2.445  11.722  0.4015  0.2299 -0.7787
 7712TIP3    H244552   2.354   2.397  11.864 -0.4625 -1.4152 -1.1908
 7713TIP3   OH244553   6.469   2.637   3.811 -0.0730 -0.0356 -0.5854
 7713TIP3    H144554   6.495   2.566   3.869  3.5220 -0.6960 -2.8772
 7713TIP3    H244555   6.498   2.717   3.856 -1.2306 -0.1853  0.4794
 7714TIP3   OH244556   3.911   3.435   1.348 -0.2030 -0.0258  0.1214
 7714TIP3    H144557   3.818   3.445   1.367 -0.1254 -0.6301  0.8355
 7714TIP3    H244558   3.916   3.430   1.253 -0.7111  1.8332 -0.0263
 7715TIP3   OH244559   1.087   5.297   2.749  0.1639 -0.0799  0.3724
 7715TIP3    H144560   1.072   5.316   2.656  0.1639 -1.7707  0.0096
 7715TIP3    H244561   1.024   5.228   2.770 -1.6373  2.0709  2.3290
 7716TIP3   OH244562   2.611   0.617   3.761  0.0588  0.4158 -0.4850
 7716TIP3    H144563   2.640   0.631   3.670  0.1421 -2.0139 -0.8624
 7716TIP3    H244564   2.563   0.697   3.783  1.1298  1.5912 -2.2173
 7717TIP3   OH244565   1.239   5.667  13.683 -0.2103 -0.4781 -0.7130
 7717TIP3    H144566   1.154   5.695  13.715  0.1571 -1.5554  1.3372
 7717TIP3    H244567   1.219   5.600  13.617 -0.9426 -1.4512  0.4846
 7718TIP3   OH244568   5.519   5.252   0.311 -0.1954  0.1827 -0.2606
 7718TIP3    H144569   5.553   5.227   0.225 -0.9223 -2.7443  0.2303
 7718TIP3    H244570   5.592   5.234   0.371 -0.9089 -1.3274  0.1733
 7719TIP3   OH244571   5.424   4.796   1.362 -0.6950 -0.0212 -0.1370
 7719TIP3    H144572   5.344   4.848   1.358 -1.0207 -0.3526  1.4290
 7719TIP3    H244573   5.468   4.825   1.442 -1.2872 -2.6935  1.2327
 7720TIP3   OH244574   3.528   2.190  12.272 -0.0324 -0.3917  0.3408
 7720TIP3    H144575   3.442   2.156  12.298  0.8907 -2.3813  0.9020
 7720TIP3    H244576   3.514   2.228  12.186 -1.4800 -0.7179  0.4148
 7721TIP3   OH244577   1.911   5.160   5.814  0.3697  0.5082 -0.1069
 7721TIP3    H144578   1.829   5.113   5.800  0.5716  0.4454 -1.0932
 7721TIP3    H244579   1.968   5.096   5.857  0.6954 -0.1874 -1.5759
 7722TIP3   OH244580   4.578   1.171  14.043 -0.5010 -0.1437  0.3803
 7722TIP3    H144581   4.586   1.261  14.011  0.0911 -0.7938 -1.3844
 7722TIP3    H244582   4.623   1.171  14.127 -0.0648  1.0954  0.1559
 7723TIP3   OH244583   1.261   5.825   3.418  0.5641 -0.2755  0.5386
 7723TIP3    H144584   1.228   5.778   3.341 -2.1680  0.7205  1.0441
 7723TIP3    H244585   1.345   5.784   3.437 -0.8702 -3.7075 -0.1575
 7724TIP3   OH244586   2.932   4.040  13.187  0.0452  0.7634  0.1026
 7724TIP3    H144587   2.913   4.117  13.135  0.9093  1.4185  0.7350
 7724TIP3    H244588   3.028   4.034  13.188 -0.0200 -1.1144 -1.0807
 7725TIP3   OH244589   4.843   4.021   4.519  0.4718 -0.3157  0.0760
 7725TIP3    H144590   4.747   4.017   4.512  0.6737 -3.5110 -1.8274
 7725TIP3    H244591   4.864   3.970   4.597  0.6702 -0.3012  0.0316
 7726TIP3   OH244592   3.555   2.421  13.034  0.2539  0.0673  0.3077
 7726TIP3    H144593   3.541   2.328  13.023 -1.0971  0.1819  0.9931
 7726TIP3    H244594   3.619   2.428  13.106  1.6332 -0.3590 -0.8501
 7727TIP3   OH244595   6.533   0.702   2.397  0.2310 -0.8053  0.2021
 7727TIP3    H144596   6.591   0.655   2.337  0.7334 -0.4277  0.3931
 7727TIP3    H244597   6.592   0.749   2.456 -0.2663  1.6159 -1.1951
 7728TIP3   OH244598   4.902   0.330  12.196  0.4247 -0.3968 -0.3337
 7728TIP3    H144599   4.950   0.366  12.122  2.1099  0.6197  1.2093
 7728TIP3    H244600   4.883   0.405  12.252  0.8278 -1.3794  1.1649
 7729TIP3   OH244601   5.842   2.959   6.121 -0.3002 -0.6306  0.6847
 7729TIP3    H144602   5.839   2.958   6.025  2.2869  0.4529  0.5490
 7729TIP3    H244603   5.831   2.867   6.146 -0.2442 -1.0249 -0.6918
 7730TIP3   OH244604   4.513   0.256  13.164  0.5598  0.6904 -0.2997
 7730TIP3    H144605   4.595   0.208  13.174  0.9166  0.5391 -3.3489
 7730TIP3    H244606   4.517   0.325  13.230  2.5595 -0.1081  0.4355
 7731TIP3   OH244607   4.659   3.643  14.589  0.1216  0.3899 -0.0843
 7731TIP3    H144608   4.722   3.690  14.643 -1.2545  1.6037  0.4963
 7731TIP3    H244609   4.674   3.675  14.500  1.5925 -0.7456 -0.2687
 7732TIP3   OH244610   1.422   3.249  13.175  0.1867  0.1838  0.0939
 7732TIP3    H144611   1.390   3.163  13.150  0.1159  0.6562 -1.4963
 7732TIP3    H244612   1.343   3.299  13.198  0.1354  0.1077  0.0825
 7733TIP3   OH244613   5.061   0.741   3.875  0.1480 -0.2571 -0.1257
 7733TIP3    H144614   5.057   0.831   3.844 -0.0581 -0.3235 -0.2981
 7733TIP3    H244615   5.143   0.707   3.839 -0.2596 -0.4401 -0.9035
 7734TIP3   OH244616   5.503   3.361  13.185  0.2946 -0.2642 -0.3083
 7734TIP3    H144617   5.448   3.353  13.264 -0.2587 -1.1991 -0.7830
 7734TIP3    H244618   5.553   3.280  13.182  0.1991 -0.2996 -1.0037
 7735TIP3   OH244619   1.365   0.603  16.136  0.1698  0.1184 -0.0576
 7735TIP3    H144620   1.359   0.527  16.078  2.0403  0.1370 -0.3150
 7735TIP3    H244621   1.326   0.675  16.087  0.1525 -0.2567 -0.5889
 7736TIP3   OH244622   2.171   6.765  11.329  0.1281  0.5407  0.0909
 7736TIP3    H144623   2.128   6.707  11.267 -0.5988  0.8916  0.2682
 7736TIP3    H244624   2.148   6.730  11.415 -0.0766  0.9208  0.1919
 7737TIP3   OH244625   3.407   3.980  16.922 -0.2295  0.1046 -0.0382
 7737TIP3    H144626   3.452   3.953  16.842  0.2935 -0.0368  0.3013
 7737TIP3    H244627   3.337   3.916  16.933 -0.3283  0.1489 -0.4079
 7738TIP3   OH244628   0.213   1.002   5.188 -0.3095  0.3888 -0.5705
 7738TIP3    H144629   0.195   1.084   5.142  0.7457 -0.0399 -1.7942
 7738TIP3    H244630   0.132   0.952   5.181  0.0818  0.0032 -2.7009
 7739TIP3   OH244631   2.024   5.735   2.005 -0.2558  0.1724  0.2683
 7739TIP3    H144632   2.029   5.676   2.080 -1.2964 -2.2616 -1.5134
 7739TIP3    H244633   1.957   5.800   2.030 -2.2888 -1.9625  0.5791
 7740TIP3   OH244634   2.186   2.704  17.063 -0.1956  0.5759  0.2445
 7740TIP3    H144635   2.176   2.700  16.968 -3.3229  3.3417  0.4035
 7740TIP3    H244636   2.269   2.749  17.077 -0.8645  2.3071 -1.2151
 7741TIP3   OH244637   5.194   5.802  15.491 -0.2022 -0.0864  0.2987
 7741TIP3    H144638   5.193   5.894  15.519  0.2075  0.0936 -0.2544
 7741TIP3    H244639   5.206   5.807  15.396  0.1086 -0.7164  0.3050
 7742TIP3   OH244640   4.199   0.103   5.403  0.0251  0.1391 -0.3637
 7742TIP3    H144641   4.203   0.196   5.423  1.1511 -0.2819  1.5367
 7742TIP3    H244642   4.164   0.063   5.482  1.6754 -1.2832 -0.3066
 7743TIP3   OH244643   4.638   5.748   2.806 -0.4593 -0.0958  0.1987
 7743TIP3    H144644   4.692   5.727   2.729 -1.3298 -0.0952 -0.4232
 7743TIP3    H244645   4.596   5.665   2.828  0.6248 -0.3421  1.3409
 7744TIP3   OH244646   0.452   6.066   1.218 -0.3392 -0.1327 -0.0278
 7744TIP3    H144647   0.529   6.012   1.199 -0.4038 -0.8548  1.6866
 7744TIP3    H244648   0.378   6.006   1.210 -0.4876 -0.0892  0.9439
 7745TIP3   OH244649   0.461   4.946   1.489 -0.3093 -0.3066 -0.3943
 7745TIP3    H144650   0.485   5.004   1.416  0.4269  0.6376  0.5890
 7745TIP3    H244651   0.398   4.996   1.539  0.8175 -0.0806  0.8280
 7746TIP3   OH244652   5.105   0.858   1.845  0.2468  0.6075  0.1534
 7746TIP3    H144653   5.069   0.927   1.900 -2.7131 -0.3306 -0.5596
 7746TIP3    H244654   5.133   0.904   1.765 -1.4865  1.0216 -0.2184
 7747TIP3   OH244655   3.214   5.530   2.300 -0.2518 -0.4192  0.6082
 7747TIP3    H144656   3.124   5.499   2.307 -0.2473 -0.6967 -0.4733
 7747TIP3    H244657   3.208   5.611   2.249  0.3592 -1.7053 -1.5713
 7748TIP3   OH244658   0.806   2.454   4.372  0.2297 -0.1463  0.1809
 7748TIP3    H144659   0.825   2.548   4.373 -4.6981  1.0400 -0.7781
 7748TIP3    H244660   0.854   2.420   4.296 -1.4014  2.5717 -2.1822
 7749TIP3   OH244661   4.777   6.244  17.083 -0.3034  0.8347 -0.5695
 7749TIP3    H144662   4.851   6.200  17.041  0.8634 -0.3445  2.5908
 7749TIP3    H244663   4.818   6.303  17.146 -2.0164  2.5540 -1.0336
 7750TIP3   OH244664   4.167   0.832  15.202 -0.0340  0.1165 -0.1780
 7750TIP3    H144665   4.088   0.856  15.155 -0.0801  0.2077 -0.0553
 7750TIP3    H244666   4.233   0.819  15.134 -0.4256 -0.9904 -0.3518
 7751TIP3   OH244667   1.600   2.934  16.167  0.3695  0.2646 -0.0600
 7751TIP3    H144668   1.612   2.854  16.219 -0.4204  0.6948  0.7982
 7751TIP3    H244669   1.523   2.975  16.205  1.3506  1.9536  0.1424
 7752TIP3   OH244670   3.678   4.220   3.233 -0.2626 -0.1002  0.1066
 7752TIP3    H144671   3.759   4.170   3.239  0.0063  0.3726  0.4279
 7752TIP3    H244672   3.611   4.164   3.271 -0.0223 -0.3459  0.1614
 7753TIP3   OH244673   0.722   1.056   0.123 -0.3863 -0.0717  0.4487
 7753TIP3    H144674   0.660   1.042   0.195  1.3622 -3.4406  1.4075
 7753TIP3    H244675   0.703   0.986   0.061 -0.6795  1.7526 -1.5645
 7754TIP3   OH244676   6.777   6.563  12.254 -0.1305  0.3934  0.1419
 7754TIP3    H144677   6.843   6.510  12.209  0.4155 -1.0308  2.5127
 7754TIP3    H244678   6.827   6.620  12.312 -0.7333  3.5056 -2.2768
 7755TIP3   OH244679   5.774   1.387  17.136  0.4041 -0.6953 -0.0327
 7755TIP3    H144680   5.759   1.292  17.137  1.7781 -0.9431 -1.3639
 7755TIP3    H244681   5.864   1.397  17.107  0.3838  1.0209  0.4419
 7756TIP3   OH244682   2.041   2.971   2.053  0.3978  0.4914 -0.0681
 7756TIP3    H144683   2.054   2.903   2.119 -2.5612 -0.4624 -0.4037
 7756TIP3    H244684   2.022   2.923   1.973  3.2732  1.6571 -1.5494
 7757TIP3   OH244685   3.922   2.794  11.790  0.6574  0.2568  0.0593
 7757TIP3    H144686   3.845   2.824  11.742  1.1062  2.0106  0.4079
 7757TIP3    H244687   3.886   2.746  11.865 -0.0543 -0.9685 -1.0354
 7758TIP3   OH244688   4.309   3.569  16.151  0.0920 -0.3824  0.2500
 7758TIP3    H144689   4.327   3.495  16.208 -0.3223  0.7478  1.8735
 7758TIP3    H244690   4.274   3.530  16.071 -0.6389 -1.9139  1.2983
 7759TIP3   OH244691   6.421   6.003   1.311 -0.2478  0.1496  0.3042
 7759TIP3    H144692   6.368   6.082   1.327 -2.5776 -1.4333  0.6192
 7759TIP3    H244693   6.501   6.018   1.361  0.2514  3.1927 -1.2348
 7760TIP3   OH244694   0.745   2.209   3.789 -0.5196  0.2179  0.1983
 7760TIP3    H144695   0.790   2.126   3.804 -0.8364  0.0768  0.3689
 7760TIP3    H244696   0.749   2.254   3.873  0.1646  0.6243 -0.0532
 7761TIP3   OH244697   2.404   0.147   1.936  0.0573 -0.5694 -0.4373
 7761TIP3    H144698   2.498   0.162   1.946 -0.3174  3.2010 -1.7152
 7761TIP3    H244699   2.389   0.153   1.841 -1.3842 -2.0235 -0.3272
 7762TIP3   OH244700   6.313   4.274   4.858  0.5166 -0.2163  0.4211
 7762TIP3    H144701   6.255   4.272   4.781  1.9278 -0.0290 -0.6743
 7762TIP3    H244702   6.312   4.184   4.891  0.9893 -0.6454 -0.6743
 7763TIP3   OH244703   1.206   1.797   5.874  0.1167  0.2351 -0.4743
 7763TIP3    H144704   1.179   1.834   5.791  1.3690  0.0127 -0.9919
 7763TIP3    H244705   1.136   1.820   5.935 -1.3449 -0.5371 -1.8227
 7764TIP3   OH244706   6.417   0.181  15.569 -0.1987  0.0082  0.5224
 7764TIP3    H144707   6.465   0.213  15.493 -1.6546 -0.9847 -0.8487
 7764TIP3    H244708   6.478   0.121  15.613  0.5349  0.3219 -0.0603
 7765TIP3   OH244709   2.588   6.658  13.915 -0.2179  0.4796  0.1163
 7765TIP3    H144710   2.531   6.652  13.838  1.0037  0.6935 -0.8108
 7765TIP3    H244711   2.674   6.631  13.884 -0.2397 -1.9391  2.0330
 7766TIP3   OH244712   4.260   4.072   1.665  0.1516 -0.2881  0.1825
 7766TIP3    H144713   4.241   4.159   1.630  2.7454 -0.1688 -1.1003
 7766TIP3    H244714   4.316   4.089   1.741 -0.2184 -0.7773  0.5608
 7767TIP3   OH244715   0.760   0.746   3.726 -0.3463 -0.8734  0.1576
 7767TIP3    H144716   0.751   0.654   3.753  2.3746 -1.2246  0.0349
 7767TIP3    H244717   0.779   0.793   3.807 -2.3020 -0.2960  0.3067
 7768TIP3   OH244718   1.184   5.043  16.114  0.0584 -0.0689  0.3630
 7768TIP3    H144719   1.247   4.976  16.087  0.5599  1.0402 -1.3083
 7768TIP3    H244720   1.175   5.100  16.038 -2.0649  0.4919  0.9976
 7769TIP3   OH244721   2.069   6.227   1.513 -0.2207  0.3431  0.2140
 7769TIP3    H144722   1.981   6.209   1.545 -0.5257  1.2356 -0.1109
 7769TIP3    H244723   2.059   6.244   1.420  0.3209  0.2549  0.1350
 7770TIP3   OH244724   3.080   0.922  15.279 -0.6744  0.3330 -0.3619
 7770TIP3    H144725   2.999   0.935  15.328 -0.5471 -0.4715  0.0679
 7770TIP3    H244726   3.055   0.866  15.205 -0.3942 -0.4258  0.1114
 7771TIP3   OH244727   2.077   3.229  15.537 -0.6502 -0.0612  0.6947
 7771TIP3    H144728   2.041   3.181  15.462 -0.6255 -0.9343  1.2287
 7771TIP3    H244729   2.014   3.298  15.554 -0.8219 -0.0647  0.0676
 7772TIP3   OH244730   2.535   0.206   4.244 -0.1621  0.1780 -0.3798
 7772TIP3    H144731   2.440   0.193   4.253 -0.0952  1.2267  2.0562
 7772TIP3    H244732   2.572   0.162   4.320  1.2478  0.6792 -0.7744
 7773TIP3   OH244733   1.821   6.641  15.139  0.8689  0.2498  0.2442
 7773TIP3    H144734   1.803   6.571  15.076  0.4295 -0.7129  1.4189
 7773TIP3    H244735   1.831   6.597  15.222 -1.4783  1.7475  1.3876
 7774TIP3   OH244736   1.335   5.204   5.155  0.3433  0.0724 -0.6645
 7774TIP3    H144737   1.355   5.111   5.144 -1.6481 -0.5645  0.8770
 7774TIP3    H244738   1.419   5.245   5.174  1.0591 -1.5927 -0.2066
 7775TIP3   OH244739   6.507   6.646   0.566  0.3338 -0.4581 -0.2402
 7775TIP3    H144740   6.504   6.640   0.471 -0.7380 -0.3179 -0.2235
 7775TIP3    H244741   6.494   6.556   0.596  0.6286 -0.4963 -0.2278
 7776TIP3   OH244742   1.449   6.174  16.281  0.8338  0.2200  0.3115
 7776TIP3    H144743   1.495   6.150  16.200  0.8942 -0.6228  0.5896
 7776TIP3    H244744   1.517   6.175  16.348  0.1820 -3.0673  1.1292
 7777TIP3   OH244745   0.968   3.425  11.510 -0.5183 -0.3057  0.0391
 7777TIP3    H144746   1.024   3.487  11.463 -0.3404  0.4705  1.2567
 7777TIP3    H244747   0.880   3.458  11.499 -0.4399  0.0848  0.5431
 7778TIP3   OH244748   2.306   2.819  14.829  0.5234  0.6572 -0.5605
 7778TIP3    H144749   2.306   2.813  14.734 -0.6499  1.2309 -0.6180
 7778TIP3    H244750   2.216   2.846  14.851  0.4975 -0.4676  0.7720
 7779TIP3   OH244751   3.589   0.509  16.568  0.0829  0.1479 -0.2510
 7779TIP3    H144752   3.551   0.526  16.482  0.9360  2.9850 -0.1195
 7779TIP3    H244753   3.516   0.477  16.621 -0.6340 -0.7691 -1.7812
 7780TIP3   OH244754   4.764   4.192  17.068  0.3547  0.1513  0.1244
 7780TIP3    H144755   4.817   4.226  17.140 -1.5050  0.3992  1.4185
 7780TIP3    H244756   4.715   4.120  17.106  0.0991 -0.3709 -1.1680
 7781TIP3   OH244757   0.905   2.325  15.951  0.4978  0.3012  0.2308
 7781TIP3    H144758   0.849   2.395  15.918  0.6000  0.1649 -0.2323
 7781TIP3    H244759   0.979   2.370  15.991  0.3578  0.4684  0.3027
 7782TIP3   OH244760   3.595   2.930   0.608 -0.2804 -0.3796  0.5378
 7782TIP3    H144761   3.647   2.852   0.589 -1.4695 -1.2224  0.6441
 7782TIP3    H244762   3.655   2.990   0.652  0.6877 -1.1761  0.3100
 7783TIP3   OH244763   2.961   1.561   4.961  0.2970  0.1287  0.3822
 7783TIP3    H144764   2.869   1.559   4.939  0.7723  1.8092 -1.9637
 7783TIP3    H244765   2.993   1.473   4.944 -0.4303  0.1020 -0.8501
 7784TIP3   OH244766   2.039   2.274  12.592 -0.4874  0.3295  0.6871
 7784TIP3    H144767   2.095   2.197  12.596 -0.1524  0.5800  0.8573
 7784TIP3    H244768   2.079   2.329  12.525 -1.5998 -0.3287 -0.5354
 7785TIP3   OH244769   5.471   5.869  16.797  0.4290  0.0874  0.4706
 7785TIP3    H144770   5.516   5.939  16.845 -0.0343  0.3319  0.5481
 7785TIP3    H244771   5.459   5.905  16.709  0.0485  0.1654  0.5552
 7786TIP3   OH244772   2.753   0.880  15.340  0.0608  0.4902 -0.1187
 7786TIP3    H144773   2.659   0.866  15.351 -0.0945  0.5629 -1.2820
 7786TIP3    H244774   2.771   0.959  15.391  0.1360 -1.4057  2.8829
 7787TIP3   OH244775   1.210   1.236  15.364 -0.2161 -0.2613  0.4618
 7787TIP3    H144776   1.248   1.210  15.448 -1.0932  0.4775  1.1042
 7787TIP3    H244777   1.208   1.332  15.368 -0.4336 -0.2305 -0.3270
 7788TIP3   OH244778   3.494   2.297   0.819 -0.0427  0.1280  0.5041
 7788TIP3    H144779   3.504   2.240   0.742  0.5387  1.5361 -0.4765
 7788TIP3    H244780   3.401   2.319   0.819 -0.1340 -0.2434  0.4769
 7789TIP3   OH244781   0.221   3.195  11.712  0.9300 -0.1209  0.7903
 7789TIP3    H144782   0.151   3.149  11.758  0.2048 -0.0204 -0.1842
 7789TIP3    H244783   0.224   3.153  11.626  1.4893  0.4436  0.5293
 7790TIP3   OH244784   2.136   1.505  14.054  0.3048  0.6072 -0.1564
 7790TIP3    H144785   2.137   1.493  13.960 -1.8798  2.0585 -0.4045
 7790TIP3    H244786   2.142   1.417  14.090  0.0957 -0.0277 -1.6502
 7791TIP3   OH244787   1.791   1.111  13.284 -0.8392  0.1583 -0.6061
 7791TIP3    H144788   1.779   1.021  13.253 -0.7602 -0.6950  1.7197
 7791TIP3    H244789   1.705   1.153  13.272 -0.5170  0.1977 -2.9403
 7792TIP3   OH244790   6.256   1.580  10.463 -0.1136 -0.0121  0.3204
 7792TIP3    H144791   6.346   1.613  10.461  0.5470 -1.6965  1.2316
 7792TIP3    H244792   6.215   1.624  10.537  0.1653  0.2073  0.3456
 7793TIP3   OH244793   1.494   4.542   2.226 -0.1028 -0.4093  0.2351
 7793TIP3    H144794   1.574   4.545   2.174  0.7701 -1.3026  1.4923
 7793TIP3    H244795   1.439   4.476   2.182  0.3800 -0.7186  0.0871
 7794TIP3   OH244796   3.985   6.395   1.874  0.3680  0.4570 -0.6538
 7794TIP3    H144797   4.022   6.323   1.824 -0.5344 -0.4455 -0.0272
 7794TIP3    H244798   3.998   6.371   1.965  1.1476  1.6546 -0.4278
 7795TIP3   OH244799   6.397   2.536  15.299 -0.3839 -0.0026 -0.4228
 7795TIP3    H144800   6.363   2.571  15.216 -1.7456 -1.2538 -0.4201
 7795TIP3    H244801   6.457   2.467  15.272 -0.4231 -0.0561 -0.3713
 7796TIP3   OH244802   3.267   1.791   0.204  0.0049  0.0583  0.4620
 7796TIP3    H144803   3.348   1.752   0.171  1.4042  2.5167  0.8397
 7796TIP3    H244804   3.226   1.831   0.128 -0.1038  0.0766  0.5301
 7797TIP3   OH244805   1.656   4.624   0.273  0.3650  0.1046  0.1891
 7797TIP3    H144806   1.739   4.617   0.321  1.8164  2.6670 -1.7355
 7797TIP3    H244807   1.661   4.556   0.207  0.9347  0.1986  0.1287
 7798TIP3   OH244808   3.555   4.130   0.452  0.2245  0.2931 -0.5068
 7798TIP3    H144809   3.482   4.177   0.411 -1.6039 -0.4475  1.8258
 7798TIP3    H244810   3.626   4.194   0.454 -1.4510  2.1827  0.3581
 7799TIP3   OH244811   6.408   1.554  11.839  0.2675 -0.0333 -0.2493
 7799TIP3    H144812   6.368   1.636  11.812 -0.1548 -0.1769 -0.0633
 7799TIP3    H244813   6.474   1.536  11.772 -0.6229 -0.2794 -1.0686
 7800TIP3   OH244814   1.163   2.586  16.341 -0.0138  0.1593 -0.5415
 7800TIP3    H144815   1.233   2.643  16.372  0.0642  0.1053 -0.6203
 7800TIP3    H244816   1.139   2.533  16.417 -1.2942  1.5136  0.0189
 7801TIP3   OH244817   4.226   3.377   6.690 -1.0907  0.2102  0.6933
 7801TIP3    H144818   4.303   3.427   6.662 -1.4407  0.5575  0.3440
 7801TIP3    H244819   4.262   3.298   6.729 -0.5313  0.6878  1.1633
 7802TIP3   OH244820   5.234   4.204   5.814 -0.7881 -0.2544  0.2887
 7802TIP3    H144821   5.242   4.299   5.805 -2.0524 -0.2292 -0.5988
 7802TIP3    H244822   5.241   4.188   5.908 -1.9250  0.8434  0.5671
 7803TIP3   OH244823   1.214   4.919  13.648  0.0402  0.1867  0.0979
 7803TIP3    H144824   1.163   4.845  13.615 -2.2958  1.0434  1.7030
 7803TIP3    H244825   1.195   4.921  13.742  1.6604  1.6115  0.4074
 7804TIP3   OH244826   3.082   2.535   7.304  0.2337  0.1683 -0.2990
 7804TIP3    H144827   3.039   2.601   7.249  1.6950  1.9781  0.6555
 7804TIP3    H244828   3.095   2.460   7.247 -0.2846  1.1866 -1.7785
 7805TIP3   OH244829   6.034   1.127  11.971 -0.8793 -1.1275  0.1037
 7805TIP3    H144830   5.996   1.066  11.908 -2.6379  1.1720 -1.1226
 7805TIP3    H244831   5.967   1.138  12.038  0.4191 -2.4455  1.6517
 7806TIP3   OH244832   4.564   0.898   4.180 -0.8448 -0.2385  0.2977
 7806TIP3    H144833   4.514   0.864   4.255  1.2588 -1.2691  1.2748
 7806TIP3    H244834   4.568   0.824   4.119  0.7532 -0.6834  0.9027
 7807TIP3   OH244835   5.932   3.194  16.989  0.0439 -0.4314 -0.2125
 7807TIP3    H144836   5.908   3.271  16.936  1.1848  1.0726  1.3910
 7807TIP3    H244837   6.011   3.160  16.947  0.2724  0.0546 -0.1876
 7808TIP3   OH244838   3.813   4.638   1.449  0.2375 -0.0110  0.4083
 7808TIP3    H144839   3.825   4.690   1.370  0.8602 -0.5336  0.1539
 7808TIP3    H244840   3.895   4.589   1.458 -0.7632 -1.7845  0.0256
 7809TIP3   OH244841   5.317   3.941   3.432 -0.3290  0.1435  0.1542
 7809TIP3    H144842   5.402   3.904   3.456  0.4962  2.6338  1.2001
 7809TIP3    H244843   5.255   3.902   3.494  0.2653 -0.6077  0.2846
 7810TIP3   OH244844   4.508   4.958  12.761 -0.1031 -0.3877  0.0326
 7810TIP3    H144845   4.518   4.936  12.668  1.1608 -1.0786  0.3189
 7810TIP3    H244846   4.504   4.873  12.805  0.9848 -0.0735  0.7711
 7811TIP3   OH244847   1.484   2.402   4.425 -0.7111 -0.5223 -0.6039
 7811TIP3    H144848   1.458   2.444   4.343 -0.3308 -0.5488 -0.7436
 7811TIP3    H244849   1.526   2.471   4.476  1.4755 -1.1164 -1.5554
 7812TIP3   OH244850   5.433   1.301   5.466 -0.2965  0.0899  0.6350
 7812TIP3    H144851   5.517   1.336   5.493 -0.3389 -0.1557  1.0824
 7812TIP3    H244852   5.445   1.206   5.466 -0.5831  0.0519  0.7288
 7813TIP3   OH244853   4.698   3.870   3.937 -0.0109  0.2370  0.5319
 7813TIP3    H144854   4.655   3.932   3.879  0.1665 -0.5704 -0.4655
 7813TIP3    H244855   4.691   3.910   4.024  0.5969  1.9080 -0.1769
 7814TIP3   OH244856   6.697   0.088  12.073  0.3025  0.0004  0.0327
 7814TIP3    H144857   6.740   0.139  12.004 -0.9166  0.2505 -0.5450
 7814TIP3    H244858   6.766   0.073  12.138  1.1931  0.6334 -0.7587
 7815TIP3   OH244859   0.715   3.705   0.753  0.1604 -0.1013 -0.1788
 7815TIP3    H144860   0.700   3.611   0.741 -0.6587  0.0329 -0.2181
 7815TIP3    H244861   0.628   3.743   0.761  0.5399  0.3003  2.5953
 7816TIP3   OH244862   5.286   4.164   6.091  0.4811  0.0445 -0.1023
 7816TIP3    H144863   5.221   4.095   6.107 -0.1850  0.6897 -0.0152
 7816TIP3    H244864   5.326   4.179   6.176 -1.2154  1.6133  0.4427
 7817TIP3   OH244865   6.753   3.353  12.936 -0.5592 -0.1515  0.7788
 7817TIP3    H144866   6.765   3.361  12.841 -1.3310 -0.6467  0.6325
 7817TIP3    H244867   6.666   3.315  12.946  0.0923 -1.4465  1.6586
 7818TIP3   OH244868   4.639   2.303   6.201 -0.3773  0.9099  0.0760
 7818TIP3    H144869   4.567   2.334   6.147 -0.1680  0.4480 -0.4777
 7818TIP3    H244870   4.717   2.316   6.147 -0.0962  1.0093  0.5048
 7819TIP3   OH244871   3.725   0.705  13.528  0.3905 -0.1280  0.1668
 7819TIP3    H144872   3.637   0.700  13.567  1.2566 -1.4440  2.0102
 7819TIP3    H244873   3.709   0.730  13.437 -1.9968 -1.7619  0.0875
 7820TIP3   OH244874   3.814   2.692  17.075  0.6553  0.3623 -0.1836
 7820TIP3    H144875   3.899   2.672  17.114  0.7629 -1.6530 -1.3992
 7820TIP3    H244876   3.834   2.755  17.005  0.9767  0.8568  0.3477
 7821TIP3   OH244877   2.732   4.798   0.976  0.0924 -0.0112 -0.0022
 7821TIP3    H144878   2.661   4.738   0.952  0.7444 -1.9440  2.6003
 7821TIP3    H244879   2.754   4.773   1.066  4.1630  0.4081 -0.7903
 7822TIP3   OH244880   6.425   5.174  11.965 -0.2567  0.8807  0.3047
 7822TIP3    H144881   6.386   5.175  12.052  2.4260  0.8231  1.5574
 7822TIP3    H244882   6.495   5.239  11.969 -0.0449  0.8164 -1.7930
 7823TIP3   OH244883   6.314   1.345  13.738  0.0155  0.7245 -0.2648
 7823TIP3    H144884   6.243   1.395  13.698 -1.5168 -0.9784  0.2516
 7823TIP3    H244885   6.303   1.360  13.832 -0.8638 -1.0868 -0.0659
 7824TIP3   OH244886   2.867   2.465   6.273  0.6871 -0.1163  0.1010
 7824TIP3    H144887   2.913   2.482   6.355  2.3569  2.3445 -1.2833
 7824TIP3    H244888   2.788   2.518   6.278  0.6223 -0.2277  0.2547
 7825TIP3   OH244889   1.443   5.572   1.713  0.3421 -0.2656  0.2227
 7825TIP3    H144890   1.444   5.485   1.752  1.1385 -0.6784 -0.6984
 7825TIP3    H244891   1.515   5.618   1.755  0.3632 -0.2808  0.2038
 7826TIP3   OH244892   2.510   4.378  16.490  0.0676 -0.1395  0.2580
 7826TIP3    H144893   2.539   4.345  16.575 -0.7525  2.1824  1.4908
 7826TIP3    H244894   2.585   4.430  16.458  0.0981 -0.4049 -0.1097
 7827TIP3   OH244895   5.103   5.899   2.627 -0.7750 -0.2403  0.7118
 7827TIP3    H144896   5.189   5.932   2.654 -1.2543  0.7308  1.0680
 7827TIP3    H244897   5.120   5.853   2.544 -0.0745  0.8193  0.2490
 7828TIP3   OH244898   5.329   3.858   4.583  0.0834  0.4826  0.0231
 7828TIP3    H144899   5.323   3.949   4.554  1.3899  0.7447  0.5391
 7828TIP3    H244900   5.349   3.809   4.504  1.2295  0.8898  0.0523
 7829TIP3   OH244901   0.672   6.765  14.847 -0.3476 -0.5913 -0.2427
 7829TIP3    H144902   0.662   6.755  14.752 -2.0093 -0.6992 -0.0691
 7829TIP3    H244903   0.621   6.692  14.883 -0.8903  0.2904  0.7637
 7830TIP3   OH244904   3.264   4.809   6.421  0.4402 -0.7985  0.3072
 7830TIP3    H144905   3.290   4.840   6.335  0.1829  0.0330  0.5248
 7830TIP3    H244906   3.254   4.715   6.411  0.7828 -0.7504 -0.4744
 7831TIP3   OH244907   3.224   2.635   0.827  0.0416  0.0367  0.2188
 7831TIP3    H144908   3.149   2.654   0.770  0.6368  0.2276 -0.5069
 7831TIP3    H244909   3.185   2.607   0.910 -0.8433  1.1022  0.1787
 7832TIP3   OH244910   4.011   3.623  10.846 -0.3508  0.0622 -0.1621
 7832TIP3    H144911   4.103   3.614  10.820  0.3458  1.6880  1.6360
 7832TIP3    H244912   4.011   3.606  10.940 -1.8108  0.5323 -0.0708
 7833TIP3   OH244913   2.855   2.068   5.417  0.1516  0.7524 -0.0046
 7833TIP3    H144914   2.928   2.013   5.446  1.6466  2.3894 -0.5538
 7833TIP3    H244915   2.844   2.131   5.488 -2.3149 -0.8994  1.1507
 7834TIP3   OH244916   5.475   0.705  13.474  0.2949 -0.2405 -0.0203
 7834TIP3    H144917   5.553   0.758  13.458  0.5599 -0.6361 -0.0683
 7834TIP3    H244918   5.449   0.725  13.564  0.1377  0.2907 -0.1817
 7835TIP3   OH244919   0.906   2.009  13.352 -0.0400  0.0213  0.3572
 7835TIP3    H144920   0.960   1.998  13.430  0.1313 -0.0152  0.2315
 7835TIP3    H244921   0.922   1.930  13.300 -2.7466 -1.6173  1.8743
 7836TIP3   OH244922   3.528   5.372  12.262  0.0288  0.0684 -0.0899
 7836TIP3    H144923   3.472   5.381  12.339  0.6050  0.5802  0.2815
 7836TIP3    H244924   3.541   5.278  12.252 -0.6200 -0.0315  0.0218
 7837TIP3   OH244925   6.246   6.110  11.418  0.0596  0.8750  0.0467
 7837TIP3    H144926   6.159   6.147  11.404 -0.7672 -0.2614  1.9457
 7837TIP3    H244927   6.231   6.034  11.474  2.1854  0.1450 -0.3227
 7838TIP3   OH244928   5.027   5.907   2.307  0.2408  0.1680  0.1082
 7838TIP3    H144929   5.024   5.994   2.348 -0.2154  0.1408  0.1388
 7838TIP3    H244930   5.097   5.913   2.243  1.0954  0.1555  1.0203
 7839TIP3   OH244931   5.497   0.661   1.546 -0.2943  0.4198 -0.7290
 7839TIP3    H144932   5.426   0.611   1.586 -0.4680  1.1166 -0.1484
 7839TIP3    H244933   5.541   0.703   1.620  1.6194 -1.1338 -0.9321
 7840TIP3   OH244934   3.792   6.108   4.739  0.0794  0.1754  0.0988
 7840TIP3    H144935   3.737   6.031   4.749 -2.1545  1.4622 -1.9190
 7840TIP3    H244936   3.766   6.145   4.655  2.2609  2.2379  0.2973
 7841TIP3   OH244937   1.478   1.924   1.568 -0.7050 -0.0749 -0.0834
 7841TIP3    H144938   1.495   1.861   1.638 -0.7715  0.2704  0.2487
 7841TIP3    H244939   1.522   2.004   1.597 -0.1525 -0.1299 -0.7689
 7842TIP3   OH244940   6.115   2.768  15.526  0.1228 -0.2224  0.6433
 7842TIP3    H144941   6.177   2.842  15.528 -0.5038  0.3100  0.4784
 7842TIP3    H244942   6.116   2.739  15.435 -1.1601  0.8903  0.2621
 7843TIP3   OH244943   2.402   3.653   2.914  0.0939  0.6186  0.1166
 7843TIP3    H144944   2.382   3.589   2.982  0.6169 -0.0958 -0.3899
 7843TIP3    H244945   2.350   3.625   2.839 -2.4618  2.8730  0.9645
 7844TIP3   OH244946   5.560   1.595  13.770 -0.7262 -0.0219 -0.0982
 7844TIP3    H144947   5.553   1.668  13.832 -0.3185  0.6607 -0.8536
 7844TIP3    H244948   5.654   1.580  13.762 -0.6706  1.2476 -2.1175
 7845TIP3   OH244949   6.765   0.055  11.109  0.0213  0.5270  0.2934
 7845TIP3    H144950   6.699  -0.010  11.130  0.5752 -1.2015 -2.9277
 7845TIP3    H244951   6.849   0.010  11.122  0.4730  1.5188  0.8487
 7846TIP3   OH244952   1.807   1.205  16.430  0.2937  0.5126 -0.1805
 7846TIP3    H144953   1.858   1.180  16.352  1.8659  1.7500  0.4224
 7846TIP3    H244954   1.846   1.288  16.458 -0.9565  0.6092  1.3067
 7847TIP3   OH244955   2.907   2.445   5.360  0.0818  0.3352 -0.2020
 7847TIP3    H144956   2.841   2.510   5.335 -0.7650  0.1432  1.4807
 7847TIP3    H244957   2.878   2.412   5.445  2.3806  0.2807  0.6039
 7848TIP3   OH244958   5.566   6.491   4.566  0.0729  0.1983 -0.0623
 7848TIP3    H144959   5.576   6.579   4.602 -1.4884  1.3354 -2.2778
 7848TIP3    H244960   5.633   6.439   4.610  1.7178  2.7316  0.5077
 7849TIP3   OH244961   3.606   4.789  11.201  0.0187  0.4075 -0.0388
 7849TIP3    H144962   3.630   4.845  11.128 -0.6394  0.4470 -0.2324
 7849TIP3    H244963   3.662   4.816  11.273  1.0043  0.0452 -0.6659
 7850TIP3   OH244964   1.168   3.367   5.192  0.7111  0.2512  0.0038
 7850TIP3    H144965   1.229   3.294   5.200  0.0633 -0.2731  0.2681
 7850TIP3    H244966   1.083   3.330   5.218  0.3228  1.0203 -0.1472
 7851TIP3   OH244967   5.610   0.695  12.243  1.0859 -0.7115  0.0273
 7851TIP3    H144968   5.670   0.637  12.196  0.7053 -1.3694  0.3448
 7851TIP3    H244969   5.539   0.712  12.181  1.5049 -0.0599 -0.2913
 7852TIP3   OH244970   1.486   4.563  12.054 -0.0193  0.3864  0.3088
 7852TIP3    H144971   1.529   4.598  11.975 -1.4882  0.8002 -0.3333
 7852TIP3    H244972   1.513   4.623  12.123  2.1170 -0.5738  0.3484
 7853TIP3   OH244973   1.488   1.256  12.348 -0.1953 -0.4430 -0.0517
 7853TIP3    H144974   1.414   1.312  12.369 -0.3191 -0.1567 -1.2071
 7853TIP3    H244975   1.490   1.191  12.418 -2.2550 -1.1729 -0.6474
 7854TIP3   OH244976   6.046   1.890   4.980 -0.7927 -0.0132  0.2179
 7854TIP3    H144977   6.016   1.880   4.890 -0.9801  0.3420  0.2415
 7854TIP3    H244978   6.039   1.802   5.017  0.8011 -0.4887 -0.5812
 7855TIP3   OH244979   4.133   6.669  14.731  0.2398  0.4538 -0.4625
 7855TIP3    H144980   4.047   6.702  14.706  0.0743 -0.2551 -0.8656
 7855TIP3    H244981   4.116   6.606  14.801  0.5379  1.1233  0.2181
 7856TIP3   OH244982   0.099   3.856  16.238  0.2169  0.2503 -0.0857
 7856TIP3    H144983   0.186   3.820  16.254  0.6919  1.4043 -0.0688
 7856TIP3    H244984   0.093   3.931  16.297 -0.0442  1.3435 -1.4932
 7857TIP3   OH244985   2.318   6.031   5.834 -0.6466 -0.0830  0.2878
 7857TIP3    H144986   2.232   6.028   5.791 -0.9475  0.4712  0.8379
 7857TIP3    H244987   2.368   5.961   5.793 -0.8583  0.5695 -1.1378
 7858TIP3   OH244988   1.019   0.500   0.661 -0.0333  0.4000 -0.2491
 7858TIP3    H144989   1.028   0.590   0.630  1.1145 -0.6845 -3.1892
 7858TIP3    H244990   1.100   0.457   0.635  0.0638 -1.1483  2.4575
 7859TIP3   OH244991   0.712   0.501  15.682 -0.3907 -0.0419  0.2149
 7859TIP3    H144992   0.621   0.526  15.695 -0.2505  0.0282  1.1015
 7859TIP3    H244993   0.721   0.418  15.730  0.3415  0.6282  1.2796
 7860TIP3   OH244994   5.168   0.948  14.987  0.0852  0.1248  0.1028
 7860TIP3    H144995   5.113   0.926  14.911 -1.9243  0.3959  1.4379
 7860TIP3    H244996   5.258   0.936  14.955 -0.6858  0.7545 -2.4808
 7861TIP3   OH244997   6.395   3.307  15.199  0.2680  0.4016 -0.6777
 7861TIP3    H144998   6.460   3.245  15.165  0.9233  0.7916 -0.1474
 7861TIP3    H244999   6.388   3.374  15.131 -0.9850 -0.6143 -1.5884
 7862TIP3   OH245000   3.723   2.803   3.579 -0.0278  0.2135  0.2602
 7862TIP3    H145001   3.696   2.741   3.511 -0.2622  0.8995 -0.2784
 7862TIP3    H245002   3.664   2.786   3.652 -0.6689  0.4062 -0.2111
 7863TIP3   OH245003   0.717   1.539  12.204 -0.1511  0.3929 -0.1292
 7863TIP3    H145004   0.740   1.630  12.222 -0.2142  0.3610  0.1144
 7863TIP3    H245005   0.735   1.492  12.286 -0.4561  0.2505 -0.1405
 7864TIP3   OH245006   3.666   3.760  16.868 -0.4645 -0.1877  0.0228
 7864TIP3    H145007   3.602   3.692  16.893  1.4074 -2.6621 -1.6478
 7864TIP3    H245008   3.618   3.818  16.809 -2.6651  1.1687  3.0186
 7865TIP3   OH245009   1.390   1.501  11.764 -0.0508  0.1422 -0.1857
 7865TIP3    H145010   1.398   1.520  11.670 -3.6331 -1.1661 -0.8515
 7865TIP3    H245011   1.352   1.580  11.802  0.5385  0.3393 -0.0080
 7866TIP3   OH245012   4.616   4.256   0.258 -0.3141  0.1816  0.1474
 7866TIP3    H145013   4.543   4.208   0.298 -1.6024  1.0558 -1.1243
 7866TIP3    H245014   4.659   4.191   0.201 -0.9402  0.0545 -0.1761
 7867TIP3   OH245015   3.192   4.784   4.509 -0.9692 -0.5705 -0.0344
 7867TIP3    H145016   3.267   4.729   4.530  0.9059  2.0685  0.4371
 7867TIP3    H245017   3.163   4.820   4.593 -1.5446 -0.0368 -0.4520
 7868TIP3   OH245018   4.341   0.979  14.011  0.0215  0.1819 -0.4827
 7868TIP3    H145019   4.317   0.977  14.103 -0.0036 -2.3348 -0.4978
 7868TIP3    H245020   4.391   1.060  14.000 -1.7236  1.5429  1.2572
 7869TIP3   OH245021   4.549   5.643   0.302  0.7672  0.3260 -0.2306
 7869TIP3    H145022   4.480   5.649   0.236  0.1038  2.8702  0.6286
 7869TIP3    H245023   4.568   5.734   0.325  2.6199 -0.4355  1.3929
 7870TIP3   OH245024   4.959   1.804   3.052  0.0378 -0.3693  0.2714
 7870TIP3    H145025   4.926   1.871   2.993 -0.4592  0.1256  1.0919
 7870TIP3    H245026   4.924   1.722   3.017 -1.3750  0.0603  0.6329
 7871TIP3   OH245027   1.078   3.128   3.873 -0.5361  0.2639 -0.3985
 7871TIP3    H145028   1.070   3.187   3.948 -1.3819  1.3256 -1.3051
 7871TIP3    H245029   1.088   3.041   3.912 -1.5831  0.7257  0.9380
 7872TIP3   OH245030   4.189   2.566  15.926 -0.2177 -0.2584 -0.3886
 7872TIP3    H145031   4.216   2.657  15.942 -0.6972 -0.0126 -0.9516
 7872TIP3    H245032   4.102   2.559  15.966  0.0735 -0.6411  0.1785
 7873TIP3   OH245033   1.168   4.255   0.679  0.1558 -0.3008  0.1805
 7873TIP3    H145034   1.102   4.204   0.632  1.2574 -2.3425  0.7904
 7873TIP3    H245035   1.177   4.210   0.764  1.1858  0.8805  0.7065
 7874TIP3   OH245036   4.729   0.537   1.157 -0.3525  0.3432  0.2875
 7874TIP3    H145037   4.673   0.473   1.113  0.4591  0.0201 -0.3020
 7874TIP3    H245038   4.748   0.602   1.089  2.1336 -0.9448 -0.3278
 7875TIP3   OH245039   4.656   4.494   1.335 -0.1533 -0.0175 -0.4057
 7875TIP3    H145040   4.598   4.534   1.271 -0.6257  1.5331  0.9600
 7875TIP3    H245041   4.739   4.540   1.325 -0.8981  1.8567  1.6386
 7876TIP3   OH245042   3.897   1.425   0.414  0.0705 -0.3073 -0.3231
 7876TIP3    H145043   3.870   1.488   0.481 -1.2229  0.7683 -1.8420
 7876TIP3    H245044   3.842   1.348   0.430  0.5015 -0.4470  0.5034
 7877TIP3   OH245045   0.442   6.422  11.471  0.8852 -0.2910  0.1456
 7877TIP3    H145046   0.347   6.430  11.461  0.5481 -1.1532  2.3369
 7877TIP3    H245047   0.465   6.346  11.417  0.6412  1.1231 -1.9811
 7878TIP3   OH245048   4.081   4.181  13.205 -0.6284  0.4537  0.4019
 7878TIP3    H145049   4.032   4.152  13.128 -0.2873 -2.6223  1.2705
 7878TIP3    H245050   4.035   4.142  13.279 -0.9859  3.4226  1.7967
 7879TIP3   OH245051   1.726   0.689   4.666 -0.4073 -0.4253 -0.2952
 7879TIP3    H145052   1.777   0.631   4.723 -0.4637  0.2435  0.4357
 7879TIP3    H245053   1.758   0.776   4.686 -0.0157 -0.2222 -1.7080
 7880TIP3   OH245054   2.343   3.456  16.275  0.6221 -0.2354  0.6036
 7880TIP3    H145055   2.259   3.458  16.229  1.6400 -2.7467 -1.5287
 7880TIP3    H245056   2.345   3.537  16.326 -1.6071  1.5499 -1.9750
 7881TIP3   OH245057   1.140   3.106   2.184 -0.0178  0.4520 -0.9572
 7881TIP3    H145058   1.146   3.110   2.089 -0.9616  1.9281 -0.9700
 7881TIP3    H245059   1.215   3.156   2.216  1.4364 -1.7127 -0.8840
 7882TIP3   OH245060   1.665   6.235   3.681 -0.6032 -0.4711 -0.5930
 7882TIP3    H145061   1.711   6.183   3.747 -1.6821  1.1527  1.4852
 7882TIP3    H245062   1.600   6.175   3.644 -0.7577 -1.0748  0.6343
 7883TIP3   OH245063   0.116   3.502  10.490 -0.2152  0.4674  0.1984
 7883TIP3    H145064   0.109   3.597  10.490 -1.8619  0.3515  0.3042
 7883TIP3    H245065   0.084   3.475  10.404 -0.3376 -0.0223  0.3920
 7884TIP3   OH245066   1.708   6.513  16.674 -0.4831  0.6708  0.2003
 7884TIP3    H145067   1.642   6.446  16.657  0.1119  0.2492 -0.5196
 7884TIP3    H245068   1.709   6.567  16.595  1.1687 -0.3194 -0.4828
 7885TIP3   OH245069   3.056   6.275  15.929 -0.3851 -0.9799 -0.1172
 7885TIP3    H145070   3.143   6.313  15.917 -0.0026 -1.9646 -0.4752
 7885TIP3    H245071   2.997   6.338  15.887  0.1710 -0.4191 -0.0670
 7886TIP3   OH245072   3.888   3.083   6.055 -0.0921 -0.5124  0.9096
 7886TIP3    H145073   3.981   3.082   6.078  0.0896  1.1358  0.3267
 7886TIP3    H245074   3.883   3.138   5.977 -1.1330 -3.4186 -1.1563
 7887TIP3   OH245075   2.763   1.697   3.730 -0.4654 -0.0947  0.3185
 7887TIP3    H145076   2.733   1.614   3.693 -2.4092  0.7059  0.0274
 7887TIP3    H245077   2.744   1.691   3.823 -0.0006 -0.2308  0.4056
 7888TIP3   OH245078   4.443   5.008   1.661  0.6362  0.2499 -0.2275
 7888TIP3    H145079   4.466   5.023   1.752  2.8599  0.5204 -0.8126
 7888TIP3    H245080   4.354   5.043   1.653  0.0972 -0.5142  2.0035
 7889TIP3   OH245081   6.262   5.883  11.592 -0.5546  0.1832 -0.0627
 7889TIP3    H145082   6.280   5.790  11.601 -2.1994 -0.0470  1.0400
 7889TIP3    H245083   6.300   5.923  11.671 -0.4481  0.3445 -0.1960
 7890TIP3   OH245084   6.702   4.058   3.428  0.1594  0.2355 -0.4777
 7890TIP3    H145085   6.719   4.088   3.339  2.1547 -1.2116 -0.6299
 7890TIP3    H245086   6.672   3.967   3.417  1.1428 -0.2004  0.3448
 7891TIP3   OH245087   5.615   6.546  15.387  0.0948  0.3648 -0.5456
 7891TIP3    H145088   5.568   6.493  15.451 -2.9553  1.9831 -1.3824
 7891TIP3    H245089   5.591   6.508  15.303  0.7297  0.8795 -0.9594
 7892TIP3   OH245090   6.404   0.528  12.608 -0.1522  0.0504  0.7862
 7892TIP3    H145091   6.353   0.531  12.689  2.4991  1.1746  2.4648
 7892TIP3    H245092   6.373   0.604  12.558 -0.3517  0.5421  1.6422
 7893TIP3   OH245093   0.914   6.694  11.046 -0.2299 -0.3117 -0.7225
 7893TIP3    H145094   0.888   6.785  11.059 -0.1288 -0.0798 -2.1219
 7893TIP3    H245095   0.874   6.669  10.963  0.9064 -1.1150 -1.0378
 7894TIP3   OH245096   3.317   3.193  15.181  0.5786 -0.6823  0.2786
 7894TIP3    H145097   3.283   3.257  15.119  1.0835  0.8593  1.5686
 7894TIP3    H245098   3.355   3.124  15.126  2.1410  1.2678 -1.1205
 7895TIP3   OH245099   2.704   1.183   1.475  0.0606 -0.0039 -0.5025
 7895TIP3    H145100   2.670   1.128   1.405 -0.8480 -1.2262  0.8904
 7895TIP3    H245101   2.773   1.131   1.515 -0.6636 -0.0735  0.6846
 7896TIP3   OH245102   3.627   5.393   3.160 -0.1577 -0.1719 -0.0658
 7896TIP3    H145103   3.642   5.481   3.126 -0.3840  0.0251  0.3433
 7896TIP3    H245104   3.707   5.370   3.206 -0.0105 -0.2723 -0.3728
 7897TIP3   OH245105   5.071   1.128  14.547  0.1355  0.5457 -0.0820
 7897TIP3    H145106   4.987   1.093  14.578 -0.9445  1.2722 -2.1509
 7897TIP3    H245107   5.093   1.074  14.471  0.7148  1.4214 -0.5441
 7898TIP3   OH245108   0.560   4.206  13.046 -0.1899 -0.3016 -0.1830
 7898TIP3    H145109   0.546   4.138  12.980  0.8173 -0.6913 -0.0038
 7898TIP3    H245110   0.480   4.258  13.044 -0.8120 -1.2479 -0.6149
 7899TIP3   OH245111   2.889   4.885  11.913 -0.7456  0.9056 -0.4150
 7899TIP3    H145112   2.817   4.910  11.855 -0.2699  3.0730 -0.1105
 7899TIP3    H245113   2.958   4.949  11.895  1.1218 -1.1322 -0.6989
 7900TIP3   OH245114   6.387   4.889  16.882 -0.2039 -0.1268  0.2464
 7900TIP3    H145115   6.440   4.918  16.956 -0.8444  0.4654  0.4807
 7900TIP3    H245116   6.307   4.854  16.922 -0.3360 -0.2655 -0.1414
 7901TIP3   OH245117   4.102   6.018  16.191  0.1288 -0.2519 -0.3623
 7901TIP3    H145118   4.087   5.976  16.276 -1.6569  1.0092 -0.0351
 7901TIP3    H245119   4.164   6.088  16.210 -1.5413  1.0971  0.2511
 7902TIP3   OH245120   5.409   3.349  14.961 -0.6281 -0.1104 -0.9225
 7902TIP3    H145121   5.502   3.371  14.960 -0.2775 -1.2913  1.4038
 7902TIP3    H245122   5.366   3.428  14.993 -0.1608 -0.3411  0.3056
 7903TIP3   OH245123   1.271   0.567   1.221 -0.1245 -0.1153  0.0524
 7903TIP3    H145124   1.255   0.503   1.291  1.3997  0.0360  0.5413
 7903TIP3    H245125   1.324   0.635   1.262  0.7731 -0.0142 -1.2585
 7904TIP3   OH245126   1.555   3.923   4.038  0.7278 -0.4643  0.2434
 7904TIP3    H145127   1.594   3.925   3.951 -0.3314  0.9257 -0.2261
 7904TIP3    H245128   1.491   3.995   4.037  0.1811 -0.9046  1.9138
 7905TIP3   OH245129   1.333   2.652  16.681  0.4408 -0.3023 -0.1863
 7905TIP3    H145130   1.410   2.664  16.737 -0.3172  0.7221  0.6511
 7905TIP3    H245131   1.263   2.627  16.741 -0.2332  0.1924 -0.7606
 7906TIP3   OH245132   5.038   0.929  12.509  0.0893 -0.1629  0.2044
 7906TIP3    H145133   5.010   0.875  12.583  0.3108 -1.1744 -0.4432
 7906TIP3    H245134   5.114   0.977  12.542 -0.4907  0.2279  0.9780
 7907TIP3   OH245135   5.550   0.551  16.172  0.5462  0.4035  0.2573
 7907TIP3    H145136   5.589   0.479  16.122  0.6003  2.2744 -2.5173
 7907TIP3    H245137   5.615   0.620  16.169  0.0328  0.9894  1.9596
 7908TIP3   OH245138   0.532   2.704  11.436 -0.3608  0.8421  0.1522
 7908TIP3    H145139   0.458   2.721  11.493 -0.0262  0.9249  0.5637
 7908TIP3    H245140   0.586   2.640  11.483 -1.2040 -0.7908 -1.0418
 7909TIP3   OH245141   4.018   5.804   3.341  0.3626  0.6761  0.1767
 7909TIP3    H145142   4.047   5.805   3.433 -0.2538 -0.2691  0.3837
 7909TIP3    H245143   4.046   5.889   3.307  0.4453  1.1090  1.2874
 7910TIP3   OH245144   0.085   0.168   1.388  0.4672  0.6590 -0.5066
 7910TIP3    H145145   0.139   0.111   1.333  0.3502 -2.4803  2.4452
 7910TIP3    H245146  -0.005   0.152   1.359  0.4747 -0.3652  0.0080
 7911TIP3   OH245147   3.742   5.667   5.957  1.0035  0.0438  0.1497
 7911TIP3    H145148   3.717   5.683   6.048  0.4281 -1.1545  0.2080
 7911TIP3    H245149   3.658   5.664   5.910  1.2020 -1.1610 -0.1215
 7912TIP3   OH245150   1.734   2.873  12.443  0.1354  0.1325 -0.4666
 7912TIP3    H145151   1.794   2.887  12.516 -2.0587  0.8131  1.2480
 7912TIP3    H245152   1.747   2.782  12.418 -0.6273 -0.7484  2.2138
 7913TIP3   OH245153   6.189   6.338  15.614 -0.7030 -0.0218  0.1560
 7913TIP3    H145154   6.215   6.387  15.692  0.3484 -0.9726  0.4095
 7913TIP3    H245155   6.107   6.295  15.639 -0.4519 -0.1991  0.6795
 7914TIP3   OH245156   0.244   3.849   0.184 -0.2166 -0.9824  0.0959
 7914TIP3    H145157   0.210   3.907   0.117  1.9885 -0.6042 -0.7617
 7914TIP3    H245158   0.213   3.886   0.267 -0.7825  0.0575 -0.5720
 7915TIP3   OH245159   5.559   2.250   1.700 -0.6199 -0.6383  0.0891
 7915TIP3    H145160   5.511   2.330   1.720 -0.4068 -0.1914 -1.1097
 7915TIP3    H245161   5.493   2.182   1.695 -0.9656 -0.2835 -0.1949
 7916TIP3   OH245162   2.209   6.595   0.591  0.2675 -0.2770 -0.0156
 7916TIP3    H145163   2.155   6.520   0.616  1.1939 -0.9148  0.0948
 7916TIP3    H245164   2.219   6.586   0.496  0.6559 -0.4779  0.0448
 7917TIP3   OH245165   1.231   0.114  10.451 -0.0025  0.2150 -0.1028
 7917TIP3    H145166   1.178   0.179  10.496  1.4709  0.4592  1.3311
 7917TIP3    H245167   1.171   0.073  10.388 -1.2387  2.1381 -0.2122
 7918TIP3   OH245168   3.998   1.723   3.673  0.1990  0.0702  0.4328
 7918TIP3    H145169   3.922   1.770   3.707 -0.3682 -0.4815 -0.0762
 7918TIP3    H245170   3.965   1.675   3.598  1.1933  0.3469 -0.1900
 7919TIP3   OH245171   5.264   5.545  15.590 -0.9071 -0.0152  0.1728
 7919TIP3    H145172   5.231   5.490  15.519 -0.3610  1.1783 -1.0429
 7919TIP3    H245173   5.243   5.634  15.562  1.8697  0.6776  0.1126
 7920TIP3   OH245174   2.690   6.470  16.484  0.2092 -0.4056  0.4635
 7920TIP3    H145175   2.616   6.493  16.541 -0.4708  0.8958 -0.8913
 7920TIP3    H245176   2.744   6.549  16.483  0.5562 -0.6495 -0.1734
 7921TIP3   OH245177   0.964   5.963  11.184  0.1269  0.0631 -0.4475
 7921TIP3    H145178   1.056   5.983  11.167  0.0163  1.4937  0.5974
 7921TIP3    H245179   0.924   6.048  11.205 -0.6553 -1.0076  2.6878
 7922TIP3   OH245180   2.889   6.206   6.222  0.5071  0.4958 -0.8351
 7922TIP3    H145181   2.981   6.218   6.197  0.0489  0.0506 -2.8060
 7922TIP3    H245182   2.879   6.111   6.231 -0.2036  0.3932 -2.4913
 7923TIP3   OH245183   5.809   6.271   3.981  0.3053 -0.2574 -0.3485
 7923TIP3    H145184   5.767   6.288   3.896 -2.2005 -0.2232  0.8451
 7923TIP3    H245185   5.814   6.357   4.023 -0.9105 -0.6461  0.6110
 7924TIP3   OH245186   4.554   3.602  16.607 -0.0509  0.0325 -0.4050
 7924TIP3    H145187   4.540   3.533  16.543 -1.9548  0.2843 -0.2854
 7924TIP3    H245188   4.469   3.612  16.650  0.6567  1.2928  0.7275
 7925TIP3   OH245189   3.587   2.323   5.085  0.2341 -0.4686 -0.0002
 7925TIP3    H145190   3.540   2.384   5.029  0.6700  0.0363  0.1739
 7925TIP3    H245191   3.551   2.338   5.172 -0.6851 -1.4948 -0.1925
 7926TIP3   OH245192   0.612   3.242   3.641  0.5542 -0.3701 -0.0167
 7926TIP3    H145193   0.555   3.175   3.604 -0.2462 -0.1699  0.8248
 7926TIP3    H245194   0.636   3.208   3.727  1.3175 -0.2339 -0.1777
 7927TIP3   OH245195   4.802   0.817   5.702 -0.2310  0.0712 -0.1163
 7927TIP3    H145196   4.768   0.872   5.772 -2.3224  2.1211 -2.6144
 7927TIP3    H245197   4.883   0.860   5.675 -0.6766  0.6557 -0.5352
 7928TIP3   OH245198   5.107   1.452   0.533  0.2536 -0.3631 -0.6285
 7928TIP3    H145199   5.126   1.363   0.562 -0.0110 -0.9558 -2.2188
 7928TIP3    H245200   5.027   1.444   0.481 -0.2951  0.9524  0.0036
 7929TIP3   OH245201   0.436   5.507   6.538  0.6632 -0.0936  0.2198
 7929TIP3    H145202   0.394   5.592   6.554  0.0454 -0.3544  0.0145
 7929TIP3    H245203   0.445   5.503   6.443 -0.7513 -0.9349  0.1143
 7930TIP3   OH245204   5.790   3.375  12.379  0.4270  0.2472 -0.0156
 7930TIP3    H145205   5.848   3.320  12.326 -1.6124 -1.4611 -0.5213
 7930TIP3    H245206   5.814   3.465  12.355  1.7964 -0.4544 -1.3710
 7931TIP3   OH245207   1.233   2.464   2.025 -0.2427 -0.2916  0.4639
 7931TIP3    H145208   1.276   2.535   1.977 -0.7745 -1.0858 -1.2151
 7931TIP3    H245209   1.171   2.427   1.963 -1.2118 -1.1193  1.8931
 7932TIP3   OH245210   3.802   2.504   5.302  0.2382  0.0967 -0.4569
 7932TIP3    H145211   3.780   2.577   5.245  0.1702 -0.0505 -0.6195
 7932TIP3    H245212   3.782   2.535   5.390 -0.1373  0.1461 -0.5585
 7933TIP3   OH245213   0.579   2.612   4.348 -0.1532 -0.3577  0.4364
 7933TIP3    H145214   0.664   2.583   4.382  0.7203  0.0390 -1.3133
 7933TIP3    H245215   0.573   2.704   4.376 -0.7971 -0.8534  1.9960
 7934TIP3   OH245216   3.811   6.283  15.798  0.0829  0.6013  0.2676
 7934TIP3    H145217   3.739   6.330  15.839 -0.9392 -0.2358 -0.5474
 7934TIP3    H245218   3.803   6.193  15.830  0.0509  0.2382 -0.7370
 7935TIP3   OH245219   5.840   2.087   4.824  0.0616  0.0566  0.1687
 7935TIP3    H145220   5.919   2.080   4.770 -0.9978  0.9416 -1.5184
 7935TIP3    H245221   5.873   2.113   4.910  1.5671  1.0774 -0.6911
 7936TIP3   OH245222   5.878   3.323   0.021  0.7469 -0.3011  0.3028
 7936TIP3    H145223   5.853   3.261  -0.047  1.1512  0.3773 -0.4662
 7936TIP3    H245224   5.896   3.268   0.098  0.1078 -1.0484 -0.0772
 7937TIP3   OH245225   5.268   1.365   3.628  0.5696 -0.0283 -0.0683
 7937TIP3    H145226   5.251   1.430   3.696  0.8266 -0.7021  0.6360
 7937TIP3    H245227   5.189   1.311   3.626  0.3731  0.2611 -0.6290
 7938TIP3   OH245228   4.684   4.896   0.004 -0.4520 -0.3958 -0.3350
 7938TIP3    H145229   4.626   4.864  -0.065 -0.5310 -0.1846 -0.3654
 7938TIP3    H245230   4.627   4.909   0.080 -0.6856  1.0212 -0.7314
 7939TIP3   OH245231   1.304   2.521   0.547  0.8113  0.2021  0.2483
 7939TIP3    H145232   1.334   2.431   0.532 -1.3579 -0.4763 -0.1938
 7939TIP3    H245233   1.331   2.541   0.636 -0.5556 -1.6784  1.1172
 7940TIP3   OH245234   0.654   5.474   2.933 -0.2855  0.1449 -0.3779
 7940TIP3    H145235   0.671   5.382   2.917  0.6107  0.0057  1.2035
 7940TIP3    H245236   0.583   5.475   2.997  1.3337  0.4635  1.4651
 7941TIP3   OH245237   0.067   5.095  10.809 -0.1299  0.7468 -0.3513
 7941TIP3    H145238   0.008   5.020  10.806 -0.7017  1.2488 -2.2082
 7941TIP3    H245239   0.149   5.059  10.846 -0.6319 -0.5980 -0.5011
 7942TIP3   OH245240   5.946   0.655  15.329 -0.3940 -0.4084  0.0852
 7942TIP3    H145241   5.851   0.657  15.327 -0.3742  0.5972 -0.1053
 7942TIP3    H245242   5.973   0.739  15.292  0.5610 -0.6169  0.2863
 7943TIP3   OH245243   0.784   6.736  12.027 -0.4552  0.1040  0.4120
 7943TIP3    H145244   0.713   6.672  12.031  0.0810 -0.5920 -0.7654
 7943TIP3    H245245   0.821   6.724  11.939  1.7283 -0.2149  1.3480
 7944TIP3   OH245246   3.115   0.683   4.032 -0.0085 -0.4778 -0.1734
 7944TIP3    H145247   3.188   0.701   4.092 -0.6209 -1.1744  0.7845
 7944TIP3    H245248   3.124   0.750   3.963  0.9623  0.0490  0.4506
 7945TIP3   OH245249   1.387   4.144   4.074  0.8306  0.4488 -0.1942
 7945TIP3    H145250   1.322   4.139   4.145  1.9312 -1.8381  0.7063
 7945TIP3    H245251   1.452   4.205   4.107 -0.5703  2.3502 -0.8773
 7946TIP3   OH245252   2.510   5.459  14.998  0.4947  0.4537 -0.0684
 7946TIP3    H145253   2.574   5.418  14.941  0.8080  1.4617 -0.4399
 7946TIP3    H245254   2.453   5.508  14.940  0.4858  1.0416  0.4282
 7947TIP3   OH245255   5.654   1.759  13.960  0.1669  0.3881 -0.3978
 7947TIP3    H145256   5.716   1.810  13.908 -0.2827  0.6060 -0.7143
 7947TIP3    H245257   5.630   1.818  14.032  0.5650  0.1901 -0.0955
 7948TIP3   OH245258   3.247   0.073   2.235  0.2669 -0.2314 -0.2922
 7948TIP3    H145259   3.286   0.128   2.168  1.2187 -1.2668 -0.5956
 7948TIP3    H245260   3.288   0.102   2.317 -1.0380  1.1629 -0.1025
 7949TIP3   OH245261   6.209   4.440   5.787  0.7857  0.7298  0.2443
 7949TIP3    H145262   6.184   4.349   5.771 -0.6622  0.9646  1.1401
 7949TIP3    H245263   6.212   4.447   5.882 -0.2292  1.9172  0.1951
 7950TIP3   OH245264   6.133   6.337  12.244 -0.0252  0.0729  0.0717
 7950TIP3    H145265   6.068   6.303  12.182  1.2297  1.9594 -2.3911
 7950TIP3    H245266   6.137   6.271  12.313 -2.7943 -1.2432 -0.9301
 7951TIP3   OH245267   6.719   4.216  16.247 -0.1202 -0.3387  0.6020
 7951TIP3    H145268   6.645   4.181  16.198  0.0081 -0.0954  0.2403
 7951TIP3    H245269   6.792   4.158  16.224  0.5050  1.1717 -1.3257
 7952TIP3   OH245270   0.982   6.530  13.601  0.4914  0.4052  0.5855
 7952TIP3    H145271   0.955   6.442  13.573  1.4545  0.3496 -0.1928
 7952TIP3    H245272   0.946   6.589  13.535  0.0833  0.5733  0.9549
 7953TIP3   OH245273   4.718   4.669  16.489  0.4646 -0.6896  0.1300
 7953TIP3    H145274   4.791   4.730  16.476 -0.5710  0.4016 -0.6293
 7953TIP3    H245275   4.760   4.584  16.505  1.9429  0.3623  1.9928
 7954TIP3   OH245276   2.928   3.485  11.461 -0.0713  0.8653  0.2859
 7954TIP3    H145277   2.867   3.467  11.532 -0.4263 -0.2508 -0.2913
 7954TIP3    H245278   2.877   3.471  11.381  0.9266 -0.1171 -0.2033
 7955TIP3   OH245279   0.491   2.091   5.464  0.3402  0.1298  0.4224
 7955TIP3    H145280   0.554   2.163   5.458  2.9122 -2.0925 -0.3036
 7955TIP3    H245281   0.526   2.034   5.532 -0.8647 -1.2152 -0.0520
 7956TIP3   OH245282   3.754   3.661   2.471 -0.0959 -0.0065 -0.1937
 7956TIP3    H145283   3.712   3.722   2.531  1.0961 -0.3653  1.0485
 7956TIP3    H245284   3.846   3.689   2.469 -0.3101  0.6750 -2.7240
 7957TIP3   OH245285   6.036   2.322  12.656  0.5903  0.4169 -0.1748
 7957TIP3    H145286   6.039   2.415  12.676  2.0197  0.4238 -0.3555
 7957TIP3    H245287   6.097   2.312  12.582  1.5850 -0.8892  0.8048
 7958TIP3   OH245288   3.160   1.473  16.755  1.1175 -0.4238  0.3063
 7958TIP3    H145289   3.151   1.564  16.781  0.6010 -0.5421  0.5451
 7958TIP3    H245290   3.077   1.432  16.780  0.8022 -0.6503 -1.0487
 7959TIP3   OH245291   5.431   0.714  15.261 -0.0238 -0.2313 -0.2105
 7959TIP3    H145292   5.447   0.666  15.342 -2.8921  0.9183  1.1423
 7959TIP3    H245293   5.435   0.806  15.287 -1.4583  0.1432 -1.2546
 7960TIP3   OH245294   4.275   2.781   0.828  0.2842  0.2464  0.1885
 7960TIP3    H145295   4.220   2.825   0.763  0.9779  0.8414 -0.0012
 7960TIP3    H245296   4.217   2.716   0.869  0.4587 -1.7905 -2.6638
 7961TIP3   OH245297   1.807   5.744  14.130 -0.5594 -0.4301  0.3225
 7961TIP3    H145298   1.773   5.669  14.179  1.3410 -0.9097  0.9581
 7961TIP3    H245299   1.823   5.811  14.196 -1.6296  0.3140 -0.1615
 7962TIP3   OH245300   2.942   3.091  11.346 -0.0507  0.4500 -0.7044
 7962TIP3    H145301   2.952   3.123  11.436 -0.6930  0.6936 -0.7253
 7962TIP3    H245302   2.848   3.080  11.334  0.1425 -1.2625 -0.7565
 7963TIP3   OH245303   2.278   6.126   3.402  0.3757 -0.3812  0.4044
 7963TIP3    H145304   2.212   6.069   3.442 -0.1397 -0.3420 -0.3828
 7963TIP3    H245305   2.260   6.121   3.308  0.7959  0.4942  0.2770
 7964TIP3   OH245306   1.941   4.881   4.516 -0.1964  0.5493 -0.1088
 7964TIP3    H145307   1.997   4.852   4.588  0.1511  1.7027  0.0848
 7964TIP3    H245308   1.902   4.962   4.547  0.6014  1.5085 -1.5410
 7965TIP3   OH245309   6.235   6.497   5.299  0.3363  0.2292  0.2012
 7965TIP3    H145310   6.321   6.465   5.327  0.2593  0.5349  0.7968
 7965TIP3    H245311   6.186   6.507   5.380  0.2687  1.6181  0.0008
 7966TIP3   OH245312   2.321   6.236  11.088 -0.1971  0.1204  0.1962
 7966TIP3    H145313   2.377   6.224  11.165 -1.5457 -2.7861  0.8084
 7966TIP3    H245314   2.349   6.167  11.027 -0.4211  1.1909 -1.1353
 7967TIP3   OH245315   2.303   3.919   4.197 -0.4004  0.0310  0.4456
 7967TIP3    H145316   2.371   3.855   4.175  0.0616  0.3117  1.0397
 7967TIP3    H245317   2.325   3.997   4.146 -1.4919 -0.5790 -0.9927
 7968TIP3   OH245318   6.558   2.922  11.196 -0.4000  0.3804  0.0557
 7968TIP3    H145319   6.481   2.921  11.139 -1.2733  2.0573  1.1597
 7968TIP3    H245320   6.606   2.842  11.173 -2.2762 -0.5023 -0.9105
 7969TIP3   OH245321   4.428   1.655   0.913 -0.0551  0.4114  0.0685
 7969TIP3    H145322   4.356   1.592   0.923 -0.0083  0.4111  0.3859
 7969TIP3    H245323   4.455   1.676   1.002  1.6184 -1.0500 -0.0725
 7970TIP3   OH245324   1.812   2.751   1.225  0.1574  1.0104 -0.0934
 7970TIP3    H145325   1.826   2.827   1.168  1.3896  0.0732 -1.0785
 7970TIP3    H245326   1.815   2.787   1.314  1.0001  2.0879 -0.5403
 7971TIP3   OH245327   4.487   5.545  12.884  0.0346  0.1852  0.3628
 7971TIP3    H145328   4.451   5.467  12.924  1.1612 -0.7600 -0.4392
 7971TIP3    H245329   4.415   5.581  12.833 -0.5172 -0.2674  0.8212
 7972TIP3   OH245330   2.565   0.741   0.756  0.8913  0.6388 -0.1528
 7972TIP3    H145331   2.535   0.660   0.715  1.2173 -0.0064  0.8629
 7972TIP3    H245332   2.493   0.767   0.814  2.3062 -1.0387  2.4658
 7973TIP3   OH245333   0.507   0.798  14.528  0.0950  0.5096 -0.1762
 7973TIP3    H145334   0.543   0.769  14.445 -0.1241 -0.0994 -0.0600
 7973TIP3    H245335   0.412   0.796  14.515  0.0728  1.2090 -0.1767
 7974TIP3   OH245336   1.452   3.993   1.000  0.1585 -0.4640  0.0130
 7974TIP3    H145337   1.515   4.021   0.935  1.8497 -1.6207  1.1093
 7974TIP3    H245338   1.501   3.990   1.082 -1.4461 -0.8609  0.9939
 7975TIP3   OH245339   1.820   4.776  11.697 -0.9584  0.4447 -0.2136
 7975TIP3    H145340   1.827   4.864  11.661 -2.0868 -0.2217 -2.1035
 7975TIP3    H245341   1.902   4.764  11.745  0.3964  1.5186 -2.1774
 7976TIP3   OH245342   2.450   0.798   3.431  0.2009  0.2076  0.1306
 7976TIP3    H145343   2.375   0.827   3.378  0.9879 -1.0808 -1.7489
 7976TIP3    H245344   2.523   0.852   3.400  0.7513 -0.8196 -0.3743
 7977TIP3   OH245345   4.749   1.013  12.526  0.0603 -0.0226  0.0947
 7977TIP3    H145346   4.842   0.998  12.509  0.6493  0.7730  2.3820
 7977TIP3    H245347   4.709   0.927  12.517  1.2629 -0.6431  0.4899
 7978TIP3   OH245348   3.834   6.541  11.346  0.4283 -0.6133  0.4735
 7978TIP3    H145349   3.827   6.594  11.425  2.2694  0.6690 -0.1643
 7978TIP3    H245350   3.928   6.527  11.335  0.3188  0.2486 -2.1032
 7979TIP3   OH245351   4.475   2.702  12.778 -0.1949  0.1110  0.6124
 7979TIP3    H145352   4.387   2.666  12.778 -0.6390  1.1650  0.8203
 7979TIP3    H245353   4.524   2.646  12.838 -0.8618 -0.1642  0.9012
 7980TIP3   OH245354   2.676   2.674  13.500 -0.2912 -0.2326  0.1355
 7980TIP3    H145355   2.612   2.653  13.568  0.9390 -1.1750  1.0169
 7980TIP3    H245356   2.696   2.589  13.459  1.6677 -0.2392  1.0220
 7981TIP3   OH245357   1.046   6.466   2.721  0.0718  0.4212  0.0579
 7981TIP3    H145358   1.044   6.540   2.782  0.9557  1.3228 -0.9692
 7981TIP3    H245359   1.130   6.424   2.738 -1.0872 -1.2983  1.7037
 7982TIP3   OH245360   6.765   0.901  12.182  0.5922 -0.2445  0.5156
 7982TIP3    H145361   6.715   0.970  12.224 -1.8381 -0.6698 -1.5662
 7982TIP3    H245362   6.767   0.830  12.246 -0.4975  0.1899  1.0434
 7983TIP3   OH245363   5.398   2.638   6.558 -0.2221  0.2822  0.5317
 7983TIP3    H145364   5.372   2.678   6.641 -1.3198 -0.7933  0.7284
 7983TIP3    H245365   5.387   2.544   6.572  2.2741 -0.0994  0.0552
 7984TIP3   OH245366   2.826   1.969  13.749  0.2816 -0.3171  0.8012
 7984TIP3    H145367   2.777   1.982  13.668 -0.4328 -1.1340  1.0991
 7984TIP3    H245368   2.911   1.936  13.719 -0.2893 -1.4841  0.4189
 7985TIP3   OH245369   3.236   5.803   4.471  0.1490 -0.0747 -0.0115
 7985TIP3    H145370   3.287   5.870   4.426 -1.1189  1.9039  1.4320
 7985TIP3    H245371   3.146   5.817   4.441 -0.3154 -0.3461  1.2079
 7986TIP3   OH245372   2.604   6.745  14.824  0.4549  0.0277  0.1798
 7986TIP3    H145373   2.613   6.652  14.847  1.6586  0.2309  0.5376
 7986TIP3    H245374   2.536   6.777  14.883  0.3788 -0.5066  0.3921
 7987TIP3   OH245375   6.750   4.409   0.238 -0.1384 -0.2198 -0.1692
 7987TIP3    H145376   6.676   4.469   0.234 -0.4184 -0.4187  1.5923
 7987TIP3    H245377   6.824   4.464   0.265 -0.3447 -0.5776  1.2102
 7988TIP3   OH245378   1.616   2.414   1.608 -0.3805  0.5442  0.0006
 7988TIP3    H145379   1.708   2.409   1.583 -0.3301  2.7555 -0.3657
 7988TIP3    H245380   1.615   2.464   1.690 -1.2455  0.5687 -0.0162
 7989TIP3   OH245381   3.096   1.376  16.464  0.0457  0.4184  0.1641
 7989TIP3    H145382   3.103   1.291  16.421  0.4630  0.3350  0.3893
 7989TIP3    H245383   3.061   1.356  16.551  3.4889  0.0184  1.5714
 7990TIP3   OH245384   2.279   0.604   5.187 -0.1665 -0.2623 -0.3827
 7990TIP3    H145385   2.243   0.522   5.222  0.2571  0.4708  1.8455
 7990TIP3    H245386   2.202   0.657   5.166 -0.4286 -0.1801  0.7663
 7991TIP3   OH245387   5.180   2.683   2.234  0.0887  0.0874 -0.3544
 7991TIP3    H145388   5.217   2.633   2.161  0.5020  0.7713 -0.6214
 7991TIP3    H245389   5.190   2.775   2.208 -1.9902  0.2964 -0.5342
 7992TIP3   OH245390   1.134   1.033   2.735  0.5949 -0.3952 -0.5307
 7992TIP3    H145391   1.113   1.085   2.657 -0.0799 -2.1381 -1.5349
 7992TIP3    H245392   1.220   0.995   2.717  0.0852 -1.4450 -0.7835
 7993TIP3   OH245393   6.262   5.535   4.061 -0.9357 -0.2418 -0.0364
 7993TIP3    H145394   6.247   5.449   4.101 -1.2495  0.0635  0.5103
 7993TIP3    H245395   6.302   5.515   3.976  0.1841 -0.8781  0.6267
 7994TIP3   OH245396   2.764   0.640   0.535 -0.0571  0.2678 -0.5671
 7994TIP3    H145397   2.683   0.683   0.507  0.5187  0.9512 -1.1784
 7994TIP3    H245398   2.758   0.552   0.498 -0.4132  0.3936 -0.8128
 7995TIP3   OH245399   5.188   6.026   2.068  0.1520 -0.2723 -0.2279
 7995TIP3    H145400   5.124   6.070   2.011  1.0462  1.0468 -0.2513
 7995TIP3    H245401   5.256   5.997   2.008 -0.1638 -1.2013 -0.1368
 7996TIP3   OH245402   1.298   1.137   3.863 -0.1318  0.1942  0.1133
 7996TIP3    H145403   1.389   1.120   3.887  0.2189  1.4523 -0.2979
 7996TIP3    H245404   1.262   1.184   3.938 -0.4607 -0.3423  0.2943
 7997TIP3   OH245405   4.518   3.194  12.184  0.4602  0.0904 -0.0083
 7997TIP3    H145406   4.572   3.243  12.121  1.8980 -1.7544 -0.2552
 7997TIP3    H245407   4.530   3.241  12.267  0.8276  0.8695 -0.4870
 7998TIP3   OH245408   1.681   4.497   5.279  0.6168 -0.6619 -0.3113
 7998TIP3    H145409   1.675   4.545   5.362 -0.7808 -0.0699 -0.7482
 7998TIP3    H245410   1.669   4.564   5.212  0.2139 -1.3848 -0.9634
 7999TIP3   OH245411   4.345   5.338  15.362  0.2678  0.3119  0.2306
 7999TIP3    H145412   4.265   5.377  15.326  1.2543  1.3672 -0.8356
 7999TIP3    H245413   4.334   5.244  15.347 -0.0151  0.6041 -1.4648
 8000TIP3   OH245414   3.058   3.807   4.799 -0.1103  1.1500  0.3406
 8000TIP3    H145415   3.114   3.864   4.852 -0.2509  2.3792 -0.7967
 8000TIP3    H245416   3.021   3.866   4.732 -0.5096 -0.2127 -0.6572
 8001TIP3   OH245417   6.587   2.100  12.544  0.6315 -0.4150  0.1634
 8001TIP3    H145418   6.605   2.181  12.593  0.5447 -1.1413  1.4005
 8001TIP3    H245419   6.668   2.084  12.495  0.7764  0.2236  0.1895
 8002TIP3   OH245420   0.266   0.850   0.338 -0.1130  0.2822 -0.7079
 8002TIP3    H145421   0.253   0.893   0.422 -0.2972  0.5943 -0.8944
 8002TIP3    H245422   0.221   0.766   0.346 -0.6554  0.5757 -0.7124
 8003TIP3   OH245423   6.483   4.299  11.250  1.0224 -0.4986 -0.5913
 8003TIP3    H145424   6.566   4.256  11.228  1.1238 -0.4903 -0.2323
 8003TIP3    H245425   6.510   4.375  11.303  0.9668  0.8401 -2.4051
 8004TIP3   OH245426   1.572   0.079   2.651  0.4990 -0.4014 -0.3707
 8004TIP3    H145427   1.643   0.143   2.647 -0.5211  0.6774 -1.6358
 8004TIP3    H245428   1.597   0.020   2.721  2.4706  0.1843 -0.5585
 8005TIP3   OH245429   3.628   4.266   4.754  0.0594 -0.1120 -0.3345
 8005TIP3    H145430   3.654   4.179   4.786  0.6991  0.2155  0.0362
 8005TIP3    H245431   3.679   4.278   4.674 -3.5901 -2.1383 -3.1704
 8006TIP3   OH245432   4.117   1.301  12.002 -0.1079 -0.2800 -0.1943
 8006TIP3    H145433   4.126   1.274  11.910 -2.3158  0.4144 -0.6455
 8006TIP3    H245434   4.206   1.304  12.035  0.8194  0.6567 -2.6762
 8007TIP3   OH245435   3.344   5.996   5.727  0.1480  0.6799 -0.5139
 8007TIP3    H145436   3.319   5.981   5.819  3.1465 -1.9461 -0.0577
 8007TIP3    H245437   3.401   6.073   5.730  1.4834 -0.3119  0.0790
 8008TIP3   OH245438   1.053   3.008  17.133  0.5092  0.3522  0.1941
 8008TIP3    H145439   0.963   3.026  17.161  1.0240 -0.1573  2.2748
 8008TIP3    H245440   1.106   3.075  17.177  1.0516  1.3554 -1.9119
 8009TIP3   OH245441   3.254   4.912  15.533 -0.7623 -0.2343 -0.0714
 8009TIP3    H145442   3.247   4.971  15.609 -1.5315 -1.2449  0.6562
 8009TIP3    H245443   3.196   4.951  15.468  0.6182  1.1599 -0.5141
 8010TIP3   OH245444   1.088   5.417  13.407  0.0200  0.7169  0.0966
 8010TIP3    H145445   1.045   5.430  13.491  0.5427  0.8306  0.3498
 8010TIP3    H245446   1.054   5.334  13.374  0.1527  0.4525  0.6273
 8011TIP3   OH245447   1.926   5.093   2.091 -0.1838  0.3971 -0.3848
 8011TIP3    H145448   1.848   5.131   2.132 -1.7510 -3.1514  0.1722
 8011TIP3    H245449   1.892   5.041   2.018  1.5749 -1.7286  0.2563
 8012TIP3   OH245450   5.896   1.731  11.170 -0.4592  0.3401  0.3606
 8012TIP3    H145451   5.892   1.636  11.175  0.1673  0.3513  1.1827
 8012TIP3    H245452   5.844   1.753  11.092  0.2809 -0.7321 -0.4548
 8013TIP3   OH245453   5.792   4.467  16.060  0.7610  0.4912 -0.3209
 8013TIP3    H145454   5.821   4.410  16.131  1.5558  2.9571  1.3751
 8013TIP3    H245455   5.702   4.438  16.042  1.4610 -1.8990 -0.1696
 8014TIP3   OH245456   0.909   3.836   0.035 -0.0950 -0.3177 -0.0692
 8014TIP3    H145457   0.869   3.887  -0.035  0.7262  0.7017  0.1916
 8014TIP3    H245458   0.986   3.795  -0.006  0.9116  1.0166  0.4471
 8015TIP3   OH245459   4.056   2.485   6.397  0.1517  0.7186 -0.0283
 8015TIP3    H145460   4.085   2.573   6.420  0.2210  0.7489 -0.2343
 8015TIP3    H245461   3.997   2.497   6.323 -1.1371  0.7422  0.9905
 8016TIP3   OH245462   5.637   6.277  11.014  0.7242 -0.3376  0.6378
 8016TIP3    H145463   5.543   6.275  10.996  0.8553 -1.4590  0.0519
 8016TIP3    H245464   5.678   6.266  10.929  1.3998  0.9227  0.7928
 8017TIP3   OH245465   5.881   2.072   1.447 -0.0743 -0.1171 -0.0480
 8017TIP3    H145466   5.915   2.156   1.478 -1.1223 -0.6012  2.5160
 8017TIP3    H245467   5.791   2.091   1.420 -0.6976 -0.6445  1.6434
 8018TIP3   OH245468   5.123   5.972   5.152  0.2327  0.5466  0.4551
 8018TIP3    H145469   5.208   5.951   5.115 -0.5594 -0.9924 -0.5667
 8018TIP3    H245470   5.120   6.068   5.155  2.1874  0.5949  1.0101
 8019TIP3   OH245471   1.633   3.516   2.379 -0.4178  0.0833 -0.5576
 8019TIP3    H145472   1.728   3.500   2.374 -0.4542 -0.3299 -0.0097
 8019TIP3    H245473   1.614   3.515   2.473 -0.9824  0.0821 -0.6723
 8020TIP3   OH245474   6.044   5.790  14.453 -0.0972 -0.2581 -0.3566
 8020TIP3    H145475   6.004   5.847  14.387  0.6533 -0.4443 -0.9711
 8020TIP3    H245476   6.095   5.850  14.508 -1.0306 -0.0496  0.3014
 8021TIP3   OH245477   3.885   6.656   4.879  0.0533 -0.3920 -0.6544
 8021TIP3    H145478   3.800   6.687   4.911 -0.5860 -0.8554 -1.8467
 8021TIP3    H245479   3.868   6.565   4.853  1.2942 -0.9707  0.5145
 8022TIP3   OH245480   5.102   5.749   2.014 -0.7527 -0.8272 -0.2013
 8022TIP3    H145481   5.053   5.746   1.932  0.1450 -0.5413 -0.7702
 8022TIP3    H245482   5.130   5.840   2.021 -2.9398 -0.2563  1.7235
 8023TIP3   OH245483   4.114   3.488  13.785 -0.1175 -0.6876 -0.5326
 8023TIP3    H145484   4.126   3.566  13.838  1.0495 -1.0862 -0.2033
 8023TIP3    H245485   4.202   3.453  13.772 -0.4689 -1.0890 -1.9846
 8024TIP3   OH245486   4.730   2.745   4.125  0.2612  0.0542 -0.0083
 8024TIP3    H145487   4.752   2.823   4.074  1.6114 -0.5738 -0.4003
 8024TIP3    H245488   4.664   2.700   4.072 -0.4289  0.8494  0.1555
 8025TIP3   OH245489   2.220   0.654   3.712  0.0633 -0.0438 -0.1674
 8025TIP3    H145490   2.139   0.705   3.707 -0.1302 -0.3217  0.1113
 8025TIP3    H245491   2.282   0.712   3.757  0.4858  0.7621 -1.7552
 8026TIP3   OH245492   0.885   0.535   4.219 -0.2516  0.1881  0.6238
 8026TIP3    H145493   0.896   0.464   4.282  1.0691 -0.5297 -0.3777
 8026TIP3    H245494   0.929   0.503   4.140 -0.5899  1.6823 -0.1828
 8027TIP3   OH245495   0.047   3.788  14.917 -0.2120 -0.1221 -0.1111
 8027TIP3    H145496   0.079   3.747  14.997  1.5011 -1.3786 -1.4214
 8027TIP3    H245497   0.078   3.732  14.846  0.5695  2.3718 -1.8246
 8028TIP3   OH245498   5.832   2.422  16.409  0.5399 -0.2323  0.3181
 8028TIP3    H145499   5.738   2.437  16.425  0.7360  1.5095 -0.1056
 8028TIP3    H245500   5.875   2.449  16.490  0.8635  1.1747 -0.3109
 8029TIP3   OH245501   1.498   6.700   1.716  0.2355 -0.1222 -0.4835
 8029TIP3    H145502   1.557   6.774   1.732  0.1901 -0.2124  0.1106
 8029TIP3    H245503   1.555   6.624   1.713  0.1298 -0.2387  0.3208
 8030TIP3   OH245504   4.466   3.604   0.117 -0.4207 -0.1026 -0.3868
 8030TIP3    H145505   4.385   3.651   0.101 -0.4038 -0.3400 -1.1711
 8030TIP3    H245506   4.472   3.540   0.047 -0.6644 -1.5899  0.9158
 8031TIP3   OH245507   3.702   5.297   4.876 -0.3049  0.8317 -0.2173
 8031TIP3    H145508   3.710   5.203   4.895 -0.7920  0.4105 -2.0567
 8031TIP3    H245509   3.764   5.338   4.937 -1.5210 -0.4946  1.9808
 8032TIP3   OH245510   3.958   2.905  15.405  0.3253  0.3259  1.0026
 8032TIP3    H145511   4.050   2.932  15.410 -0.3477  3.0367 -0.0693
 8032TIP3    H245512   3.960   2.822  15.357  2.1788  0.5781  0.5874
 8033TIP3   OH245513   2.784   4.448   1.015  0.3108 -0.5123 -0.2636
 8033TIP3    H145514   2.707   4.496   0.984  0.2380 -0.8966 -0.6803
 8033TIP3    H245515   2.849   4.459   0.945  1.2746  1.3299  0.8773
 8034TIP3   OH245516   5.612   3.532   5.278 -0.2256  0.1509  0.3822
 8034TIP3    H145517   5.643   3.613   5.318 -1.3953 -0.0489  1.7296
 8034TIP3    H245518   5.522   3.550   5.253 -0.2919 -0.5368  0.1242
 8035TIP3   OH245519   2.950   0.206  11.775  0.2298  0.8063 -0.4531
 8035TIP3    H145520   2.858   0.183  11.760  0.3247 -0.1958  0.4561
 8035TIP3    H245521   2.990   0.202  11.688 -0.0754 -1.0680 -0.5160
 8036TIP3   OH245522   5.213   6.463   0.950  0.7545  0.3395  0.3536
 8036TIP3    H145523   5.179   6.420   1.029 -0.5997 -0.3429 -0.5707
 8036TIP3    H245524   5.148   6.444   0.883  1.2960  1.9235 -0.6490
 8037TIP3   OH245525   0.581   6.267   0.321  0.0850 -0.7554 -0.2609
 8037TIP3    H145526   0.617   6.253   0.233 -1.1280 -1.4095 -0.6666
 8037TIP3    H245527   0.581   6.362   0.332 -1.7088 -0.5331 -1.8339
 8038TIP3   OH245528   5.386   1.554  13.211  0.1470 -0.3252  0.0740
 8038TIP3    H145529   5.291   1.562  13.221  0.3330 -0.7839  2.2994
 8038TIP3    H245530   5.413   1.637  13.173 -0.8248  0.8274  1.8394
 8039TIP3   OH245531   3.947   2.013  13.621 -0.2263 -0.0919 -0.2819
 8039TIP3    H145532   3.861   1.995  13.659 -0.3819  1.0807 -0.0659
 8039TIP3    H245533   3.958   2.108  13.629  1.0848 -0.2276 -0.3158
 8040TIP3   OH245534   1.672   4.723   4.752 -0.2100  0.1680  0.3116
 8040TIP3    H145535   1.681   4.657   4.683 -0.0781 -0.6009  1.0507
 8040TIP3    H245536   1.653   4.804   4.706 -2.2266 -0.7308 -0.5373
 8041TIP3   OH245537   2.637   4.276   2.886 -0.2571 -0.4088  0.2108
 8041TIP3    H145538   2.627   4.241   2.975  1.9532  1.5112  1.2581
 8041TIP3    H245539   2.607   4.205   2.829 -3.4273 -1.0200  2.5130
 8042TIP3   OH245540   5.650   2.093  11.431 -0.7009 -0.2426 -0.4589
 8042TIP3    H145541   5.723   2.038  11.403  0.1414  0.7017 -0.1337
 8042TIP3    H245542   5.677   2.128  11.516 -1.0883  0.9111 -0.7940
 8043TIP3   OH245543   3.970   5.977   2.591 -0.0154 -0.0951  0.4038
 8043TIP3    H145544   4.028   5.902   2.574 -0.5931 -0.0771 -1.8082
 8043TIP3    H245545   3.900   5.940   2.646  0.5510 -0.7946  0.6712
 8044TIP3   OH245546   4.492   5.178  11.596 -0.3358 -0.6084 -0.2404
 8044TIP3    H145547   4.531   5.142  11.517  0.9374 -2.2522  1.1280
 8044TIP3    H245548   4.505   5.273  11.588  0.7237 -0.8482 -1.4859
 8045TIP3   OH245549   4.548   5.731   2.009  0.2312 -0.0210 -0.0868
 8045TIP3    H145550   4.533   5.826   2.009  1.7690  0.2339  0.1253
 8045TIP3    H245551   4.557   5.708   1.917 -0.0930  0.0436 -0.1355
 8046TIP3   OH245552   3.228   2.311  11.658 -0.5685  0.0701 -0.1991
 8046TIP3    H145553   3.159   2.258  11.698 -1.3405  2.5037  1.8326
 8046TIP3    H245554   3.300   2.308  11.721  0.8822 -1.6511 -1.8560
 8047TIP3   OH245555   4.410   3.448  14.269  0.2716  0.4586 -0.2035
 8047TIP3    H145556   4.347   3.519  14.280 -0.4010  0.1623 -1.9841
 8047TIP3    H245557   4.478   3.484  14.212 -0.2288 -0.3993 -1.3699
 8048TIP3   OH245558   5.320   3.441   5.590 -0.2731 -0.0408 -0.3522
 8048TIP3    H145559   5.273   3.504   5.645 -0.4719 -0.1595 -0.3845
 8048TIP3    H245560   5.397   3.489   5.560 -0.7308  0.3947 -0.8696
 8049TIP3   OH245561   1.042   3.743   1.562 -0.1135 -0.6033  0.2464
 8049TIP3    H145562   0.973   3.760   1.498 -1.1289  0.6061  1.6296
 8049TIP3    H245563   0.995   3.724   1.643  1.1681  0.4930  1.2598
 8050TIP3   OH245564   2.340   5.995   1.036 -0.0194 -0.1371  0.1489
 8050TIP3    H145565   2.305   5.932   1.099  1.1308 -1.1821 -0.2374
 8050TIP3    H245566   2.273   6.002   0.969 -0.8897  0.3461  1.0670
 8051TIP3   OH245567   1.983   1.498  15.549  0.1235 -0.0720  0.0592
 8051TIP3    H145568   2.072   1.467  15.567 -0.0263  0.1851  1.2629
 8051TIP3    H245569   1.969   1.477  15.457  1.2482 -0.5726 -0.0072
 8052TIP3   OH245570   2.235   1.851   1.001  0.7045  0.3081 -0.8035
 8052TIP3    H145571   2.274   1.883   1.083 -3.6868  1.4827  0.9742
 8052TIP3    H245572   2.231   1.756   1.011 -0.2391  0.4831  0.5794
 8053TIP3   OH245573   3.120   2.364  13.742  0.3303 -0.1591  0.4128
 8053TIP3    H145574   3.205   2.331  13.714 -0.8978 -1.2576 -2.2098
 8053TIP3    H245575   3.099   2.433  13.679 -0.7628  0.0042  0.9508
 8054TIP3   OH245576   6.079   4.626  13.163  0.4087  0.4778  0.0090
 8054TIP3    H145577   6.041   4.681  13.232 -1.7326 -0.8849 -0.0339
 8054TIP3    H245578   6.109   4.548  13.209  0.1768  0.1442 -0.3965
 8055TIP3   OH245579   0.320   0.185   0.929 -0.5631  0.2908 -0.5520
 8055TIP3    H145580   0.364   0.226   1.004  0.9715  0.6273 -1.6086
 8055TIP3    H245581   0.307   0.094   0.955  1.1361  0.0857 -0.3457
 8056TIP3   OH245582   3.166   6.204  14.599 -0.4792  0.3327 -0.2608
 8056TIP3    H145583   3.208   6.132  14.552 -1.0970  0.8438 -1.6457
 8056TIP3    H245584   3.228   6.276  14.592  0.7161 -0.4061  2.2437
 8057TIP3   OH245585   6.357   1.653  12.728  0.3543  0.2425  0.2956
 8057TIP3    H145586   6.353   1.652  12.633 -2.0971  1.2815  0.3619
 8057TIP3    H245587   6.291   1.717  12.755  1.7543  0.7858  2.6636
 8058TIP3   OH245588   6.369   0.689  11.589  0.1711  0.0946  0.0112
 8058TIP3    H145589   6.357   0.622  11.656 -0.9630  1.1430  0.8735
 8058TIP3    H245590   6.464   0.692  11.576  0.2419 -1.7067 -0.0967
 8059TIP3   OH245591   2.837   6.655  13.337 -0.4436 -0.2076  0.4719
 8059TIP3    H145592   2.791   6.719  13.392  2.7378  1.2588  1.5557
 8059TIP3    H245593   2.884   6.599  13.399  1.1203 -0.1875 -0.6696
 8060TIP3   OH245594   1.574   6.231  13.513  0.0793  0.5214 -0.0701
 8060TIP3    H145595   1.658   6.249  13.555  0.5426  0.4887 -0.9612
 8060TIP3    H245596   1.516   6.300  13.544  1.0372  1.8333 -1.1482
 8061TIP3   OH245597   4.679   2.897   0.766 -0.3406  0.4277  0.3425
 8061TIP3    H145598   4.734   2.894   0.687  0.2407 -2.2958  0.8237
 8061TIP3    H245599   4.643   2.986   0.765  1.4915  1.2206 -1.7319
 8062TIP3   OH245600   0.921   3.079  16.771  0.0331  0.0465  0.2972
 8062TIP3    H145601   0.967   2.995  16.775 -4.0772 -2.3824  0.2798
 8062TIP3    H245602   0.907   3.094  16.677  2.0835  1.5454  0.2224
 8063TIP3   OH245603   5.919   6.548   5.934  0.1969  0.5504  0.1716
 8063TIP3    H145604   5.974   6.517   5.862  1.0369  1.8132  0.2461
 8063TIP3    H245605   5.836   6.572   5.892  0.3632  0.4160 -0.2398
 8064TIP3   OH245606   5.775   4.512   2.921  0.1922  0.1560 -0.3636
 8064TIP3    H145607   5.788   4.425   2.884 -0.4261 -0.8015  1.5919
 8064TIP3    H245608   5.681   4.524   2.925  0.2750  1.0359 -0.8747
 8065TIP3   OH245609   4.044   0.008  12.581 -0.1819 -0.1340  0.5383
 8065TIP3    H145610   3.981   0.046  12.520 -1.2846  0.6991  2.1356
 8065TIP3    H245611   4.073  -0.072  12.539  0.6144  1.4221 -1.9828
 8066TIP3   OH245612   4.152   1.083   2.357 -0.4855  0.2416  0.6639
 8066TIP3    H145613   4.149   1.106   2.450 -1.3004 -1.4337  1.0862
 8066TIP3    H245614   4.245   1.071   2.338 -0.3983 -0.6371  1.5950
 8067TIP3   OH245615   2.946   2.819   2.662 -0.1443  0.1922  0.3627
 8067TIP3    H145616   2.935   2.726   2.642  2.2355 -0.1764  0.6643
 8067TIP3    H245617   3.040   2.833   2.662 -0.3356  1.9384  3.3141
 8068TIP3   OH245618   3.845   4.911   0.859  0.4545 -0.5909  0.0138
 8068TIP3    H145619   3.906   4.893   0.788 -1.6420 -0.5576 -1.8735
 8068TIP3    H245620   3.830   5.006   0.854  2.4994 -0.0687  2.4165
 8069TIP3   OH245621   5.620   3.372   1.430 -0.5121  0.8167  0.2477
 8069TIP3    H145622   5.596   3.408   1.344 -2.2007  0.4050  0.5176
 8069TIP3    H245623   5.600   3.443   1.491 -0.0282  0.8416  0.3736
 8070TIP3   OH245624   5.963   6.118   4.751  0.0655  0.3062 -0.1156
 8070TIP3    H145625   5.981   6.024   4.760 -0.6304  0.1289 -0.4580
 8070TIP3    H245626   5.990   6.156   4.834 -1.0670 -0.4344  0.6171
 8071TIP3   OH245627   4.949   4.008  10.676  0.0081  0.6200  0.0523
 8071TIP3    H145628   5.019   4.053  10.629 -0.8163  1.6115 -0.2567
 8071TIP3    H245629   4.869   4.053  10.648 -0.6544  0.1457  1.1526
 8072TIP3   OH245630   5.380   1.004  14.120 -0.1133 -0.7035 -0.2967
 8072TIP3    H145631   5.436   0.927  14.114  2.6697  1.2515 -0.4687
 8072TIP3    H245632   5.386   1.032  14.211  0.3906  0.3490 -0.6381
 8073TIP3   OH245633   2.512   2.754   1.975 -0.3293  0.0006  0.3479
 8073TIP3    H145634   2.567   2.748   1.897 -0.4750  2.0648  0.0755
 8073TIP3    H245635   2.513   2.846   1.999 -0.2920 -0.6020  2.7983
 8074TIP3   OH245636   3.240   3.172   2.573  0.5332  0.2581 -0.5884
 8074TIP3    H145637   3.184   3.245   2.549 -0.0839  0.2024  0.6772
 8074TIP3    H245638   3.215   3.101   2.513  0.7674  0.9009 -1.4581
 8075TIP3   OH245639   1.228   5.086  11.920 -0.0459  0.0810 -0.3226
 8075TIP3    H145640   1.315   5.061  11.949 -0.2124  1.4092  1.3616
 8075TIP3    H245641   1.168   5.037  11.977 -0.3983  0.0059 -0.7540
 8076TIP3   OH245642   4.671   6.463  12.146 -0.0576 -0.3631  0.4041
 8076TIP3    H145643   4.644   6.544  12.189  0.2365 -0.8400  1.4998
 8076TIP3    H245644   4.613   6.396  12.181 -1.4975 -0.3479 -1.8370
 8077TIP3   OH245645   0.726   3.456   5.679 -0.0753  0.0877 -0.2468
 8077TIP3    H145646   0.806   3.507   5.662 -0.5070  0.5192 -1.0593
 8077TIP3    H245647   0.662   3.493   5.618 -0.8217 -0.4306  0.2217
 8078TIP3   OH245648   1.797   3.169   4.417  0.0533 -0.2224 -0.0123
 8078TIP3    H145649   1.798   3.153   4.512 -0.1784 -0.2379 -0.0116
 8078TIP3    H245650   1.749   3.095   4.380  1.0144 -0.7333 -0.2487
 8079TIP3   OH245651   3.849   2.491   6.921 -0.5122 -0.4866  0.1506
 8079TIP3    H145652   3.920   2.555   6.930  0.5464 -1.5625 -0.3119
 8079TIP3    H245653   3.826   2.494   6.828 -0.8898 -0.3345  0.2481
 8080TIP3   OH245654   4.028   3.340   0.199 -0.4922  0.9035 -0.1446
 8080TIP3    H145655   4.075   3.385   0.270 -0.5853 -0.4422  0.7910
 8080TIP3    H245656   3.939   3.375   0.202 -0.9552 -0.3692  1.5196
 8081TIP3   OH245657   3.444   5.983  12.642 -0.0899 -0.4409  0.0136
 8081TIP3    H145658   3.379   6.047  12.671  0.9531  1.9317 -2.6023
 8081TIP3    H245659   3.438   5.984  12.546  2.7645 -1.1978 -0.2209
 8082TIP3   OH245660   3.883   6.086   1.366  0.7468  0.1350 -0.1358
 8082TIP3    H145661   3.880   6.065   1.273 -0.7131 -1.6523  0.2796
 8082TIP3    H245662   3.971   6.060   1.394  0.7106 -0.6431 -0.7382
 8083TIP3   OH245663   1.421   4.579   3.366  0.1162  0.0108 -0.8649
 8083TIP3    H145664   1.341   4.581   3.313  0.9441 -1.0786 -2.1938
 8083TIP3    H245665   1.489   4.615   3.308  0.9083 -0.6330 -0.3514
 8084TIP3   OH245666   0.326   4.376   3.731  0.0226 -0.6022  0.0725
 8084TIP3    H145667   0.294   4.461   3.702  0.9642 -0.2001  0.1938
 8084TIP3    H245668   0.421   4.384   3.729  0.1499 -2.1189 -1.3177
 8085TIP3   OH245669   2.987   1.147  14.747  0.1735 -0.3257  0.0548
 8085TIP3    H145670   2.902   1.152  14.703 -0.4045  1.2472  1.2894
 8085TIP3    H245671   2.969   1.173  14.837  1.8917 -0.4011  0.4422
 8086TIP3   OH245672   4.421   4.749   1.296  0.2056  0.8065 -0.8553
 8086TIP3    H145673   4.453   4.815   1.358  3.8934 -0.7291 -0.9458
 8086TIP3    H245674   4.457   4.777   1.212 -1.4717  0.7360 -1.6084
 8087TIP3   OH245675   6.199   5.815   1.400  0.3881  0.2078 -0.0200
 8087TIP3    H145676   6.260   5.873   1.354  0.1098  1.1576  0.7681
 8087TIP3    H245677   6.114   5.859   1.393  0.1963 -0.0333  0.7044
 8088TIP3   OH245678   2.485   3.385   5.883  0.1278  0.1525  0.4812
 8088TIP3    H145679   2.527   3.403   5.967  0.6344 -0.0394  0.2718
 8088TIP3    H245680   2.427   3.460   5.868  1.9553  1.4421 -0.2233
 8089TIP3   OH245681   0.312   3.403  15.164 -0.3848  0.2523  0.5117
 8089TIP3    H145682   0.352   3.330  15.115  1.3503  1.8535 -0.5679
 8089TIP3    H245683   0.385   3.440  15.214 -0.9497  2.0325  0.0444
 8090TIP3   OH245684   4.485   6.451   1.515  0.1015  0.0722 -0.1181
 8090TIP3    H145685   4.495   6.372   1.569 -0.7665 -0.7688 -1.1546
 8090TIP3    H245686   4.572   6.468   1.480  0.4953  0.1465  0.8991
 8091TIP3   OH245687   4.579   2.400   3.994 -0.3460  0.3490 -0.3037
 8091TIP3    H145688   4.533   2.456   3.931 -2.6767 -0.8498  0.2727
 8091TIP3    H245689   4.663   2.445   4.009 -1.7822  3.2452 -0.4880
 8092TIP3   OH245690   2.519   3.609  16.097  0.3536  0.2643 -0.3146
 8092TIP3    H145691   2.447   3.562  16.055  0.6934 -0.0044 -0.5957
 8092TIP3    H245692   2.508   3.700  16.068  1.0561 -0.0577 -1.6528
 8093TIP3   OH245693   5.985   6.079  13.398 -0.0915 -0.5000 -0.1599
 8093TIP3    H145694   6.008   6.162  13.438  0.4298 -1.0354  0.6629
 8093TIP3    H245695   5.899   6.094  13.358 -0.3077  0.2324  0.5817
 8094TIP3   OH245696   2.712   5.256  14.430 -0.3323  0.0421 -0.1988
 8094TIP3    H145697   2.779   5.209  14.380 -0.8618  0.4521 -1.3195
 8094TIP3    H245698   2.728   5.348  14.411 -1.4011  0.1273 -0.7352
 8095TIP3   OH245699   0.348   2.776   0.279 -0.3313  0.2217  0.2628
 8095TIP3    H145700   0.428   2.730   0.304 -0.4632  0.3350  0.9264
 8095TIP3    H245701   0.298   2.783   0.361 -1.6989 -1.1739 -0.4335
 8096TIP3   OH245702   0.431   6.162  17.008 -0.1018  0.0898  0.3657
 8096TIP3    H145703   0.395   6.238  17.053 -0.3942 -0.0255  0.3292
 8096TIP3    H245704   0.369   6.092  17.026 -0.2264  0.0420 -0.2210
 8097TIP3   OH245705   4.254   4.594   4.522  0.1908 -0.5096  0.0232
 8097TIP3    H145706   4.182   4.638   4.566 -1.4603 -0.7343 -2.3641
 8097TIP3    H245707   4.212   4.524   4.471  2.0832 -0.6780 -1.3525
 8098TIP3   OH245708   0.585   6.757  17.192 -0.5518 -0.3778 -0.1313
 8098TIP3    H145709   0.636   6.808  17.254 -0.3666  0.9257 -1.3450
 8098TIP3    H245710   0.646   6.691  17.158  0.0972  0.6515 -0.9693
 8099TIP3   OH245711   2.033   2.293  12.140  0.3789  0.0692  0.4988
 8099TIP3    H145712   2.066   2.291  12.050 -3.1393 -2.0191 -0.8396
 8099TIP3    H245713   2.020   2.200  12.162 -2.7693  0.7325  1.6050
 8100TIP3   OH245714   3.326   1.947   5.381 -0.4447 -0.3157 -0.1620
 8100TIP3    H145715   3.395   1.951   5.315  0.5741  0.3853  0.9250
 8100TIP3    H245716   3.316   1.853   5.399  1.8434 -0.3172  1.3162
 8101TIP3   OH245717   2.245   1.389  15.623 -0.0363 -0.4530  0.3803
 8101TIP3    H145718   2.205   1.315  15.578 -2.8583  1.1501  0.1272
 8101TIP3    H245719   2.275   1.353  15.706  0.4063 -2.2756 -0.5327
 8102TIP3   OH245720   1.894   0.669  16.044  0.3077 -0.3119 -0.4778
 8102TIP3    H145721   1.973   0.720  16.029 -0.1683  0.1085 -1.5489
 8102TIP3    H245722   1.830   0.704  15.982 -0.6759 -0.7529  0.2672
 8103TIP3   OH245723   2.799   0.067   4.846 -0.4863 -0.1502 -0.2236
 8103TIP3    H145724   2.709   0.079   4.816 -0.1676 -1.9640 -2.0461
 8103TIP3    H245725   2.853   0.111   4.780  0.0444 -0.7126 -0.1714
 8104TIP3   OH245726   2.691   4.382   4.367  0.3235  0.2551  0.0331
 8104TIP3    H145727   2.660   4.407   4.280 -0.9580 -2.2484 -0.2972
 8104TIP3    H245728   2.625   4.416   4.427  1.4192  2.3410  0.0977
 8105TIP3   OH245729   1.569   2.308  16.801 -0.5633 -0.1909 -0.0488
 8105TIP3    H145730   1.631   2.270  16.738  0.3755  1.5893 -0.2404
 8105TIP3    H245731   1.525   2.232  16.840 -0.1048 -1.3873 -1.7715
 8106TIP3   OH245732   2.976   3.993   3.573  0.1583  0.0217 -0.2566
 8106TIP3    H145733   3.027   4.029   3.500 -3.2975  0.8530 -2.4006
 8106TIP3    H245734   2.959   4.068   3.630 -0.3723  0.1855 -0.6227
 8107TIP3   OH245735   3.011   6.249   5.803 -0.1930 -0.3443  0.1724
 8107TIP3    H145736   2.916   6.241   5.797 -0.1062 -1.9418  0.7629
 8107TIP3    H245737   3.035   6.199   5.881  1.0464  0.8433  0.5863
 8108TIP3   OH245738   5.517   6.456  13.841 -0.2792 -0.6375 -0.4029
 8108TIP3    H145739   5.496   6.363  13.842 -0.7839 -0.5386 -1.3002
 8108TIP3    H245740   5.435   6.499  13.818 -0.0825  0.0436  0.1409
 8109TIP3   OH245741   5.379   0.130  14.752  0.5990 -0.2684 -0.2997
 8109TIP3    H145742   5.316   0.076  14.704 -0.3130  0.5869 -0.0724
 8109TIP3    H245743   5.409   0.195  14.688 -0.0527  0.4036  0.0722
 8110TIP3   OH245744   5.886   4.467   1.869  0.5161 -0.3551 -0.2075
 8110TIP3    H145745   5.943   4.488   1.795  1.6855 -1.0765  0.4772
 8110TIP3    H245746   5.938   4.408   1.923 -1.1729 -1.6683  0.0269
 8111TIP3   OH245747   3.713   3.533   4.958 -0.5558 -0.3478  0.2375
 8111TIP3    H145748   3.650   3.596   4.993 -0.7146 -0.7075  0.5987
 8111TIP3    H245749   3.688   3.450   4.998  0.1442 -0.4920  0.3736
 8112TIP3   OH245750   2.813   1.132   4.379 -0.1590  0.3104  0.6871
 8112TIP3    H145751   2.869   1.081   4.321  1.0712  0.5799  1.6242
 8112TIP3    H245752   2.733   1.146   4.328  0.0852 -1.2340 -0.1435
 8113TIP3   OH245753   5.598   6.569   6.063  0.2299  0.6898 -0.6594
 8113TIP3    H145754   5.545   6.620   6.124  0.9115  1.4398 -0.6731
 8113TIP3    H245755   5.539   6.550   5.990 -0.8724 -1.0728  0.6640
 8114TIP3   OH245756   0.773   1.192   5.037  0.0624  0.2924 -0.1513
 8114TIP3    H145757   0.763   1.161   5.127 -3.1108 -1.4288 -0.9949
 8114TIP3    H245758   0.705   1.259   5.027 -1.2671 -1.2665 -1.9311
 8115TIP3   OH245759   2.535   0.106   4.729 -0.7521 -1.1110  0.1566
 8115TIP3    H145760   2.525   0.175   4.663 -1.0008 -0.1904  1.1430
 8115TIP3    H245761   2.473   0.129   4.798  1.2717 -0.6711  1.8720
 8116TIP3   OH245762   0.072   5.643   3.397 -0.2712  0.1880 -0.4138
 8116TIP3    H145763   0.109   5.635   3.485  2.6728 -1.6812 -1.7291
 8116TIP3    H245764   0.074   5.736   3.377  3.3948  0.2096 -0.2116
 8117TIP3   OH245765   3.084   5.843   4.192  0.2082 -0.3054  0.4468
 8117TIP3    H145766   3.025   5.856   4.118  1.7657 -0.8592 -0.9432
 8117TIP3    H245767   3.050   5.766   4.237 -0.9377  0.2196  0.4982
 8118TIP3   OH245768   1.275   3.768  13.109  0.1765  0.0056  0.1385
 8118TIP3    H145769   1.355   3.762  13.057  0.1791 -0.3897  0.1841
 8118TIP3    H245770   1.208   3.799  13.048  0.1025 -0.7869 -0.1898
 8119TIP3   OH245771   3.044   4.412  13.575  0.3086 -0.0774 -0.1575
 8119TIP3    H145772   3.043   4.321  13.546 -0.8217  0.0233 -0.4470
 8119TIP3    H245773   3.029   4.463  13.496  0.0918  0.3314  0.1457
 8120TIP3   OH245774   6.010   4.525  12.649 -0.6074  0.1142  0.2865
 8120TIP3    H145775   6.104   4.526  12.663 -0.3753 -0.3317 -1.1659
 8120TIP3    H245776   5.972   4.529  12.737  0.7677 -1.0998  0.9548
 8121TIP3   OH245777   4.910   0.318   3.740  0.2442  0.4161 -0.2808
 8121TIP3    H145778   4.969   0.249   3.771 -0.3599  0.5003  1.0734
 8121TIP3    H245779   4.912   0.384   3.809 -1.5982  0.3206 -0.1077
 8122TIP3   OH245780   0.373   4.824  17.043 -0.5475  0.0155 -0.4370
 8122TIP3    H145781   0.384   4.855  17.133 -0.5608  0.6616 -0.6581
 8122TIP3    H245782   0.370   4.728  17.051  1.5722 -0.0273  0.0162
 8123TIP3   OH245783   1.819   2.531   2.454 -0.6063 -0.1653 -0.1621
 8123TIP3    H145784   1.799   2.621   2.479 -1.3159 -0.5898  0.8620
 8123TIP3    H245785   1.894   2.507   2.509 -1.0484 -0.5170  0.2966
 8124TIP3   OH245786   6.025   1.854  15.102  0.2240  0.1248  0.0270
 8124TIP3    H145787   6.102   1.896  15.065 -0.2402  1.0454  0.0795
 8124TIP3    H245788   5.967   1.927  15.126  0.0836 -0.4949  1.6254
 8125TIP3   OH245789   4.434   2.457   4.253  0.2964  0.3945  0.6392
 8125TIP3    H145790   4.509   2.462   4.195 -0.3391  0.5581 -0.1762
 8125TIP3    H245791   4.358   2.448   4.195 -0.1841 -1.4592  1.5032
 8126TIP3   OH245792   3.635   5.151   0.953 -0.0331 -0.0664  0.1718
 8126TIP3    H145793   3.550   5.118   0.926 -0.0545 -0.7380  1.0358
 8126TIP3    H245794   3.645   5.234   0.906 -1.0275 -0.1288 -0.1597
 8127TIP3   OH245795   1.196   2.182   2.853 -0.4254  0.5703  0.4087
 8127TIP3    H145796   1.169   2.154   2.941 -2.1310  0.2421 -0.1931
 8127TIP3    H245797   1.134   2.139   2.794  0.7542  0.7222 -0.9720
 8128TIP3   OH245798   4.580   1.398  13.862 -0.2244 -0.2325 -0.9213
 8128TIP3    H145799   4.617   1.480  13.896 -0.3030 -0.6425  0.1888
 8128TIP3    H245800   4.610   1.394  13.772 -1.1926  1.6085 -1.3694
 8129TIP3   OH245801   0.284   5.035   4.143  0.5941 -0.2600 -0.2996
 8129TIP3    H145802   0.281   5.060   4.051 -2.1422 -0.0336 -0.1825
 8129TIP3    H245803   0.234   5.103   4.188  0.2690 -1.4052  1.1076
 8130TIP3   OH245804   0.467   2.436   4.694  0.0852  0.2490  0.1338
 8130TIP3    H145805   0.380   2.471   4.675  0.1858  0.9074  0.8505
 8130TIP3    H245806   0.457   2.341   4.687 -0.9894  0.2483  1.3692
 8131TIP3   OH245807   4.760   3.969   3.121 -0.0695 -0.4064 -0.0447
 8131TIP3    H145808   4.791   4.050   3.080  0.6871 -0.6395  0.0669
 8131TIP3    H245809   4.665   3.981   3.128  0.0098  0.3702 -0.2530
 8132TIP3   OH245810   1.874   3.559   5.641  0.2965  0.1176 -0.0887
 8132TIP3    H145811   1.827   3.623   5.588 -0.6446 -1.0648 -0.7328
 8132TIP3    H245812   1.835   3.566   5.728 -2.7989 -2.4185 -1.1329
 8133TIP3   OH245813   3.253   6.646  16.135 -0.9177 -0.0681 -0.5565
 8133TIP3    H145814   3.333   6.698  16.134 -0.7944 -0.2653 -0.8833
 8133TIP3    H245815   3.273   6.569  16.083 -0.6809 -1.0516  0.9485
 8134TIP3   OH245816   1.784   6.780  12.847  0.1157  0.1147 -0.5271
 8134TIP3    H145817   1.760   6.749  12.935 -1.4297 -0.9696 -1.3031
 8134TIP3    H245818   1.811   6.871  12.860  1.1271 -0.4109  1.2523
 8135TIP3   OH245819   0.463   0.198   4.096 -0.0341 -0.1440 -0.0218
 8135TIP3    H145820   0.530   0.262   4.120  2.3358 -2.2868 -0.7967
 8135TIP3    H245821   0.489   0.166   4.010 -3.2709  0.5448 -1.3331
 8136TIP3   OH245822   5.451   4.861  12.050  0.3264  0.5157  0.6390
 8136TIP3    H145823   5.462   4.845  11.956  1.1410  1.1221  0.6228
 8136TIP3    H245824   5.424   4.776  12.086 -1.3132  0.6072 -0.3401
 8137TIP3   OH245825   1.617   1.199  16.034 -0.6476  0.5041  0.1583
 8137TIP3    H145826   1.613   1.163  16.122  0.4784  0.2711  0.1168
 8137TIP3    H245827   1.611   1.293  16.046  0.3913  0.5243  0.5527
 8138TIP3   OH245828   6.496   0.661  14.178  0.1579  0.5323  0.0352
 8138TIP3    H145829   6.476   0.611  14.256 -0.2130  0.0948 -0.3380
 8138TIP3    H245830   6.572   0.714  14.202 -0.1577  0.6387  0.7888
 8139TIP3   OH245831   6.044   6.199   4.221 -0.0110 -0.2630 -0.0549
 8139TIP3    H145832   5.949   6.214   4.221  0.0486  0.1818 -1.5444
 8139TIP3    H245833   6.068   6.200   4.313 -1.7264 -2.1126  0.4351
 8140TIP3   OH245834   6.410   0.013  11.951 -0.4512 -0.0710 -0.4703
 8140TIP3    H145835   6.393   0.043  11.862  0.8449  1.7244 -0.1545
 8140TIP3    H245836   6.432   0.092  11.999 -0.1590 -1.1454  1.2207
 8141TIP3   OH245837   0.988   0.781  12.822 -0.2417 -0.0283 -0.2894
 8141TIP3    H145838   1.023   0.847  12.882  2.5699  0.1521 -2.0756
 8141TIP3    H245839   1.060   0.719  12.809 -2.3974 -2.7474  0.3046
 8142TIP3   OH245840   3.967   2.084   3.724 -0.4470  0.0624  0.5307
 8142TIP3    H145841   4.025   2.026   3.675  0.2327  0.3991  0.9338
 8142TIP3    H245842   3.939   2.033   3.800 -0.6550 -0.0891  0.3520
 8143TIP3   OH245843   1.100   2.558   0.008 -0.6543 -0.0604  0.2309
 8143TIP3    H145844   1.145   2.477   0.034  0.2129 -0.2680 -1.7662
 8143TIP3    H245845   1.159   2.628   0.037 -0.2006 -0.2465 -0.2287
 8144TIP3   OH245846   4.568   2.317  15.685  0.2006 -0.2320  0.0917
 8144TIP3    H145847   4.646   2.364  15.716 -0.6774  0.8830  0.6436
 8144TIP3    H245848   4.579   2.229  15.719  1.2140 -0.0808  0.1900
 8145TIP3   OH245849   5.127   3.380   2.686 -0.0735 -0.3560 -0.4450
 8145TIP3    H145850   5.128   3.308   2.750  1.3086 -0.1196 -0.1965
 8145TIP3    H245851   5.077   3.345   2.612 -1.8458 -0.5650  0.8229
 8146TIP3   OH245852   3.995   5.108   3.429  0.0291  0.7657  0.8136
 8146TIP3    H145853   3.977   5.180   3.369 -0.7880  0.3854  0.5908
 8146TIP3    H245854   3.930   5.118   3.499 -0.2129  0.1408  0.6854
 8147TIP3   OH245855   2.859   3.655  14.018  0.1764 -0.1364  0.1504
 8147TIP3    H145856   2.777   3.618  13.984 -0.3352  0.1638  1.0295
 8147TIP3    H245857   2.923   3.638  13.950 -0.1854 -2.0974  0.2545
 8148TIP3   OH245858   5.018   2.132  11.428  0.5299 -0.0661 -0.1223
 8148TIP3    H145859   4.988   2.043  11.412  1.8247 -0.3907 -0.8431
 8148TIP3    H245860   5.075   2.151  11.353 -0.1627  1.5607 -0.2559
 8149TIP3   OH245861   1.640   1.223   1.248 -0.2500 -0.0551  0.1383
 8149TIP3    H145862   1.650   1.317   1.262  2.3791 -0.1265 -0.9673
 8149TIP3    H245863   1.690   1.205   1.168 -0.2361 -2.4903  0.6511
 8150TIP3   OH245864   1.160   1.437  16.295 -0.1155 -0.1745 -0.2735
 8150TIP3    H145865   1.113   1.366  16.251 -0.0645 -1.0766  1.0941
 8150TIP3    H245866   1.236   1.395  16.334 -1.1065  0.2602  2.2006
 8151TIP3   OH245867   5.514   0.814   1.301 -0.1198 -0.0462  0.0294
 8151TIP3    H145868   5.559   0.899   1.308  1.1061 -0.6074 -0.8294
 8151TIP3    H245869   5.524   0.775   1.388 -0.2638  0.4845  0.2839
 8152TIP3   OH245870   2.643   6.780  10.295 -0.2948 -0.3901 -0.4435
 8152TIP3    H145871   2.704   6.852  10.306  0.0003 -0.2696 -2.6002
 8152TIP3    H245872   2.562   6.810  10.336  0.2406  0.6116 -0.1227
 8153TIP3   OH245873   4.313   3.291  13.701  0.3908 -0.3582  0.6353
 8153TIP3    H145874   4.288   3.306  13.792  0.9004  0.7621  0.6045
 8153TIP3    H245875   4.407   3.275  13.705  0.4815  0.0628  0.2753
 8154TIP3   OH245876   3.593   0.383   1.132  0.8905  0.5472  0.6931
 8154TIP3    H145877   3.567   0.321   1.064  2.0211  0.8983 -0.0755
 8154TIP3    H245878   3.592   0.468   1.087  2.4590  0.6725  0.8914
 8155TIP3   OH245879   6.114   2.090  13.264  0.6386 -0.0888 -0.0406
 8155TIP3    H145880   6.151   2.002  13.274  0.5653 -0.1551 -0.3394
 8155TIP3    H245881   6.023   2.075  13.239  0.7856  0.0728 -0.6690
 8156TIP3   OH245882   4.078   1.418   6.594  0.2959  0.0889 -0.3874
 8156TIP3    H145883   4.151   1.477   6.610  0.4307 -0.2270  0.2110
 8156TIP3    H245884   4.001   1.475   6.590  0.4715  0.3406 -0.1839
 8157TIP3   OH245885   2.795   5.891   1.494  0.2564 -0.2313  0.6136
 8157TIP3    H145886   2.742   5.970   1.499 -1.5215 -1.3680  0.2064
 8157TIP3    H245887   2.831   5.891   1.405 -1.9072 -1.2082 -0.3018
 8158TIP3   OH245888   1.751   4.540   4.567 -0.2274 -0.6863 -0.2092
 8158TIP3    H145889   1.814   4.490   4.516 -1.3016 -1.3092 -0.9395
 8158TIP3    H245890   1.671   4.486   4.567 -1.3344  0.9058 -0.8131
 8159TIP3   OH245891   4.343   6.364  11.784  0.1448 -0.3205  0.2674
 8159TIP3    H145892   4.275   6.326  11.839 -0.6649 -3.3033 -2.6339
 8159TIP3    H245893   4.297   6.430  11.732  0.2889  0.3389  0.9624
 8160TIP3   OH245894   1.423   1.404   0.391  0.7416  0.1558 -0.2930
 8160TIP3    H145895   1.461   1.490   0.408  1.4238 -0.2804  0.4022
 8160TIP3    H245896   1.461   1.347   0.457  0.9815 -0.8771 -1.2941
 8161TIP3   OH245897   3.796   5.645  14.153 -0.2030  0.3363 -0.5126
 8161TIP3    H145898   3.846   5.705  14.207  0.8284 -1.0116  0.0674
 8161TIP3    H245899   3.834   5.653  14.066  1.5239 -1.1815  0.0692
 8162TIP3   OH245900   6.262   3.848  17.114  0.1266  0.0808 -0.3781
 8162TIP3    H145901   6.263   3.942  17.097  0.1912  0.4762  1.7037
 8162TIP3    H245902   6.169   3.824  17.112  0.1063  0.1867 -0.8490
 8163TIP3   OH245903   0.321   4.766   3.214 -0.3475 -0.2515 -0.1444
 8163TIP3    H145904   0.286   4.855   3.208 -1.1382 -0.5924 -0.6084
 8163TIP3    H245905   0.262   4.720   3.272 -0.4864 -0.7359 -0.6668
 8164TIP3   OH245906   6.373   2.928  16.520  0.1203 -0.3813 -0.2124
 8164TIP3    H145907   6.464   2.910  16.544  0.0811 -0.0378  0.1819
 8164TIP3    H245908   6.372   2.921  16.424  0.2136 -1.9701 -0.1150
 8165TIP3   OH245909   6.287   4.025   4.698 -0.5848 -0.4868 -0.2810
 8165TIP3    H145910   6.202   3.981   4.685 -1.1144  0.7193 -0.9545
 8165TIP3    H245911   6.297   4.029   4.793 -2.3492  1.3373 -0.1379
 8166TIP3   OH245912   5.637   5.304   3.826 -0.3495 -0.4759 -0.3648
 8166TIP3    H145913   5.702   5.244   3.790  1.1842  0.9442 -0.0328
 8166TIP3    H245914   5.608   5.263   3.907 -0.8290 -1.7414 -1.1651
 8167TIP3   OH245915   6.193   4.738  11.790  0.0730  0.1267  0.8521
 8167TIP3    H145916   6.195   4.644  11.806  0.2090  0.1415  0.9201
 8167TIP3    H245917   6.133   4.772  11.856 -0.9000 -0.0599  0.0754
 8168TIP3   OH245918   4.741   6.251  15.250 -0.2612  0.3962 -0.6696
 8168TIP3    H145919   4.722   6.158  15.264 -0.2725  0.8178  2.4943
 8168TIP3    H245920   4.735   6.262  15.155  0.4433 -2.9709 -1.1918
 8169TIP3   OH245921   4.325   6.706   2.711  0.6016  0.1209 -0.3420
 8169TIP3    H145922   4.406   6.666   2.681 -0.9397 -3.1314 -0.3358
 8169TIP3    H245923   4.274   6.719   2.631 -0.3529 -1.2833  0.0280
 8170TIP3   OH245924   4.368   1.368   2.576  0.9607  0.0414 -0.0272
 8170TIP3    H145925   4.445   1.425   2.577  1.1231 -0.1547 -0.7512
 8170TIP3    H245926   4.307   1.412   2.517 -0.0973  0.9778  1.7238
 8171TIP3   OH245927   6.267   2.524  11.391 -0.4160 -0.3023  0.4551
 8171TIP3    H145928   6.185   2.573  11.391 -0.4955 -0.4317  0.0029
 8171TIP3    H245929   6.282   2.502  11.299  0.6636  0.6028  0.4097
 8172TIP3   OH245930   2.660   1.462  11.092 -0.5783  0.2722 -0.0285
 8172TIP3    H145931   2.614   1.499  11.017 -2.1948  0.7574  1.1953
 8172TIP3    H245932   2.679   1.537  11.149  0.7746 -0.0711 -0.0028
 8173TIP3   OH245933   1.490   1.463   1.738  0.4277  0.1358  0.0822
 8173TIP3    H145934   1.552   1.484   1.668  0.1022  1.3372  0.1376
 8173TIP3    H245935   1.507   1.530   1.805  0.7442 -1.0110  1.1587
 8174TIP3   OH245936   2.040   3.775   2.103  0.1760 -0.0743 -0.6553
 8174TIP3    H145937   2.028   3.820   2.020  1.8712  0.2615 -0.7430
 8174TIP3    H245938   2.133   3.784   2.122 -0.2443  0.1588  1.4600
 8175TIP3   OH245939   5.969   3.481  16.060 -0.2315  0.4869  0.6601
 8175TIP3    H145940   6.036   3.416  16.042 -2.1842 -1.4872  0.3364
 8175TIP3    H245941   5.998   3.559  16.012  0.6696 -1.0450 -1.3584
 8176TIP3   OH245942   2.004   4.895  12.270 -0.0833  0.3514  0.1545
 8176TIP3    H145943   2.020   4.989  12.257 -0.3386  0.5009  0.8828
 8176TIP3    H245944   1.947   4.891  12.347 -0.3981 -0.3837 -0.1161
 8177TIP3   OH245945   1.007   5.455   0.012 -0.2305 -0.0170  0.5798
 8177TIP3    H145946   1.087   5.425  -0.031 -0.8488 -1.6387  0.5137
 8177TIP3    H245947   0.988   5.387   0.077 -2.6886 -0.7268 -0.8215
 8178TIP3   OH245948   1.126   5.667   1.441 -0.1317  0.1117 -0.0357
 8178TIP3    H145949   1.179   5.588   1.430 -1.4403 -0.7584 -0.2124
 8178TIP3    H245950   1.151   5.701   1.527  2.2619  0.9135 -1.0185
 8179TIP3   OH245951   2.483   2.974  16.885 -0.3288  0.2320  0.0363
 8179TIP3    H145952   2.455   2.885  16.906 -0.2403  0.0043 -0.7774
 8179TIP3    H245953   2.574   2.964  16.858 -0.1185  0.6631  0.5930
 8180TIP3   OH245954   5.150   5.069   5.775  0.4081 -0.2209  0.2676
 8180TIP3    H145955   5.224   5.034   5.824  0.7465 -0.4213 -0.3827
 8180TIP3    H245956   5.147   5.018   5.694 -0.8158 -0.6329  0.5539
 8181TIP3   OH245957   1.032   6.318  16.519 -0.0280 -0.1303 -0.2938
 8181TIP3    H145958   0.997   6.377  16.587  0.6025 -1.3090  1.0704
 8181TIP3    H245959   1.105   6.366  16.480 -0.8071  0.8209 -0.5966
 8182TIP3   OH245960   2.226   5.567  17.092 -0.3197  0.0082 -0.0305
 8182TIP3    H145961   2.211   5.620  17.013  0.0858 -0.9630 -0.7593
 8182TIP3    H245962   2.142   5.570  17.138  0.4925  3.6121  1.3736
 8183TIP3   OH245963   2.415   1.979   6.227  0.2027 -0.3691  0.3058
 8183TIP3    H145964   2.463   1.897   6.235 -0.1626 -0.4299  2.2024
 8183TIP3    H245965   2.408   2.012   6.317  0.4464  1.7983 -0.4224
 8184TIP3   OH245966   5.109   5.933  11.221  0.0786 -0.0783 -0.4454
 8184TIP3    H145967   5.057   5.860  11.188 -0.1476 -0.5366  0.8801
 8184TIP3    H245968   5.122   5.913  11.314 -1.2359  2.3146  0.3086
 8185TIP3   OH245969   5.414   0.056   0.240  0.0106  0.1248 -0.6378
 8185TIP3    H145970   5.471   0.102   0.301 -0.5340 -1.1185  0.8233
 8185TIP3    H245971   5.426  -0.037   0.260 -1.7776 -0.2003 -0.9788
 8186TIP3   OH245972   3.828   2.456   6.639  0.2306 -0.0313  0.3770
 8186TIP3    H145973   3.740   2.435   6.608 -0.0198 -0.2131  1.2082
 8186TIP3    H245974   3.842   2.546   6.609  0.4070 -0.5612 -1.1743
 8187TIP3   OH245975   4.851   1.381   0.430  0.3814 -0.2514  0.0095
 8187TIP3    H145976   4.888   1.294   0.416 -1.1823 -1.2977  2.0404
 8187TIP3    H245977   4.803   1.401   0.350 -2.0356 -2.7453  0.7592
 8188TIP3   OH245978   3.035   3.739  16.654  0.5754 -0.5130 -0.2597
 8188TIP3    H145979   2.962   3.683  16.626  1.2167 -0.6695 -1.6519
 8188TIP3    H245980   2.993   3.807  16.707 -0.4590 -1.1835 -0.1954
 8189TIP3   OH245981   3.857   2.980  15.018  0.4640  0.2844  0.1305
 8189TIP3    H145982   3.834   3.015  15.104 -1.1126 -1.1006  0.2877
 8189TIP3    H245983   3.856   2.885  15.029  2.3612  0.1223 -0.9025
 8190TIP3   OH245984   1.184   1.784  16.934  0.1039 -0.0630 -0.1211
 8190TIP3    H145985   1.258   1.778  16.874 -0.4684  3.1287 -1.2674
 8190TIP3    H245986   1.223   1.778  17.022  1.1601 -2.8009 -0.7228
 8191TIP3   OH245987   6.636   0.181   6.633 -0.3618  0.5282  0.4855
 8191TIP3    H145988   6.624   0.207   6.541  2.5438  1.3710  0.2857
 8191TIP3    H245989   6.568   0.228   6.680 -1.3065  0.8184 -1.1304
 8192TIP3   OH245990   0.939   1.597  16.512 -0.4401  0.6080 -0.3412
 8192TIP3    H145991   0.876   1.634  16.573 -0.8137  1.2054 -1.0741
 8192TIP3    H245992   1.013   1.658  16.512 -0.0011  0.0951  0.2501
 8193TIP3   OH245993   2.847   0.981   5.573 -0.4437 -0.3740  0.0082
 8193TIP3    H145994   2.882   0.988   5.662  0.8837  2.9947 -0.7389
 8193TIP3    H245995   2.911   0.928   5.526 -0.8056 -1.5789  0.8188
 8194TIP3   OH245996   3.104   1.387  12.347 -0.1977 -0.6606  0.6202
 8194TIP3    H145997   3.068   1.417  12.431  0.6407  0.1303  0.7043
 8194TIP3    H245998   3.193   1.422  12.345  0.0509 -1.3167 -0.2691
 8195TIP3   OH245999   0.787   5.839  13.030  0.1546 -0.6958  0.4302
 8195TIP3    H146000   0.698   5.859  13.004  0.6995  0.5446 -0.5111
 8195TIP3    H246001   0.837   5.839  12.948  1.2505 -0.1484  1.0847
 8196TIP3   OH246002   1.205   2.808   1.654  0.1932 -0.1007 -0.1872
 8196TIP3    H146003   1.209   2.896   1.692 -0.4622  0.4271 -1.3025
 8196TIP3    H246004   1.115   2.800   1.622  0.5919 -0.7300 -1.1616
 8197TIP3   OH246005   0.578   4.095  15.162  0.6290  0.4701 -0.4534
 8197TIP3    H146006   0.587   4.170  15.104  1.1750  0.4874 -0.3483
 8197TIP3    H246007   0.619   4.023  15.114 -0.7836 -0.0001 -0.9932
 8198TIP3   OH246008   6.043   2.671   0.706 -0.5931  0.3317  0.8489
 8198TIP3    H146009   6.056   2.764   0.723 -1.5446  0.9200 -1.4718
 8198TIP3    H246010   5.957   2.652   0.743 -0.8630  0.6238  0.3731
 8199TIP3   OH246011   4.704   1.357  16.412 -0.2549 -0.4703 -0.0173
 8199TIP3    H146012   4.659   1.398  16.486  0.3228  0.0138  0.0721
 8199TIP3    H246013   4.766   1.296  16.452  0.0040 -0.2637 -0.0997
 8200TIP3   OH246014   4.826   4.409  12.364 -0.0112 -0.2252  0.2302
 8200TIP3    H146015   4.737   4.434  12.339 -0.0075  0.8643  1.2342
 8200TIP3    H246016   4.821   4.394  12.459  1.5557  3.2020  0.9516
 8201TIP3   OH246017   0.200   6.227   2.829 -0.1144 -0.5720 -0.0760
 8201TIP3    H146018   0.203   6.135   2.856  0.7760 -0.5787 -0.1854
 8201TIP3    H246019   0.291   6.249   2.809 -0.4418  0.0943 -0.8528
 8202TIP3   OH246020   2.875   4.677  10.885  0.6006 -0.0485 -0.7710
 8202TIP3    H146021   2.902   4.734  10.957  0.9107 -2.8186  1.3821
 8202TIP3    H246022   2.795   4.719  10.851  0.7322  1.5857  0.8322
 8203TIP3   OH246023   4.574   4.759   3.874 -0.0242 -0.4356  0.4085
 8203TIP3    H146024   4.616   4.683   3.913 -2.0075 -1.8437 -0.1024
 8203TIP3    H246025   4.487   4.762   3.914 -0.6822  0.3798 -1.0180
 8204TIP3   OH246026   3.795   6.319   4.518 -0.6895 -0.3012  0.5219
 8204TIP3    H146027   3.836   6.296   4.435  1.6797 -0.9174  1.8147
 8204TIP3    H246028   3.753   6.404   4.502 -1.0157 -0.8180 -1.5158
 8205TIP3   OH246029   6.762   5.286   2.485 -0.2245  0.1458  0.2655
 8205TIP3    H146030   6.790   5.215   2.427 -0.6708  0.2845 -0.1158
 8205TIP3    H246031   6.715   5.347   2.429 -0.9291  0.1277  0.8196
 8206TIP3   OH246032   1.219   1.923  14.240  0.5532 -0.4995 -0.3210
 8206TIP3    H146033   1.256   1.995  14.188 -0.2085  0.5628  0.6151
 8206TIP3    H246034   1.136   1.902  14.196 -0.2688  0.6455  0.6784
 8207TIP3   OH246035   0.974   0.914  11.651  0.2101  0.5709  0.0335
 8207TIP3    H146036   0.935   0.839  11.696 -1.8540  1.2318 -0.6108
 8207TIP3    H246037   1.061   0.923  11.691 -0.4345 -0.6781  1.7894
 8208TIP3   OH246038   4.257   0.678  13.180 -0.5237 -0.1501 -0.1242
 8208TIP3    H146039   4.258   0.688  13.084  0.8215 -0.2097 -0.1229
 8208TIP3    H246040   4.337   0.721  13.209 -1.5289  0.9276  1.1013
 8209TIP3   OH246041   2.887   5.931   0.494 -0.4096 -0.3945 -0.1481
 8209TIP3    H146042   2.846   6.017   0.497  0.0858 -0.1770  0.7136
 8209TIP3    H246043   2.816   5.869   0.511 -1.2929 -0.3648 -3.3677
 8210TIP3   OH246044   4.566   0.955  13.877  0.1234  0.0436  0.3645
 8210TIP3    H146045   4.598   1.030  13.927  2.5093 -0.7327  0.0759
 8210TIP3    H246046   4.476   0.944  13.905  0.6691  1.1483  2.6859
 8211TIP3   OH246047   5.913   2.822   5.409 -0.4652  0.2314  0.4493
 8211TIP3    H146048   5.988   2.879   5.425  0.9781 -1.0432 -1.6032
 8211TIP3    H246049   5.928   2.747   5.467 -1.0358  0.7396  1.2648
 8212TIP3   OH246050   5.293   2.189   6.030  0.3201 -0.0211  0.2071
 8212TIP3    H146051   5.223   2.129   6.004  1.2643 -0.1424 -2.2200
 8212TIP3    H246052   5.364   2.131   6.059 -0.0994  0.0599  1.4148
 8213TIP3   OH246053   1.575   0.138   3.000 -0.6287 -0.1418 -0.0439
 8213TIP3    H146054   1.582   0.226   2.963 -1.3393  0.5421  1.4284
 8213TIP3    H246055   1.646   0.090   2.958  1.9469  2.0472  1.6129
 8214TIP3   OH246056   4.416   4.865   5.060 -0.3577 -0.4487 -0.4838
 8214TIP3    H146057   4.498   4.914   5.055 -0.3831 -0.3081  0.4817
 8214TIP3    H246058   4.363   4.902   4.989 -0.1839  0.5567 -0.1068
 8215TIP3   OH246059   0.527   1.723  13.439  0.2197 -0.1571  0.2350
 8215TIP3    H146060   0.542   1.651  13.500  0.6440 -0.0810  0.2204
 8215TIP3    H246061   0.491   1.681  13.361  1.2256 -0.4498 -0.0760
 8216TIP3   OH246062   4.054   5.015  11.978 -0.0582 -0.2806 -0.5069
 8216TIP3    H146063   3.981   5.005  12.040  0.1209  0.8382 -0.1174
 8216TIP3    H246064   4.021   4.976  11.897  0.2005 -3.0176  0.6492
 8217TIP3   OH246065   3.471   1.412  11.979  0.1558 -0.9455  0.3044
 8217TIP3    H146066   3.449   1.322  12.004 -0.0579 -0.6127  1.3283
 8217TIP3    H246067   3.539   1.438  12.042  2.0516 -1.2526 -1.5389
 8218TIP3   OH246068   5.062   3.788   0.770 -0.2443 -0.2300 -0.0400
 8218TIP3    H146069   5.065   3.798   0.675 -1.6197 -1.8479 -0.2578
 8218TIP3    H246070   5.148   3.818   0.799 -0.2998  1.5983 -1.6521
 8219TIP3   OH246071   0.646   6.774  12.514  0.3493 -0.3784  0.4472
 8219TIP3    H146072   0.713   6.789  12.447  0.2218 -0.7997  0.2266
 8219TIP3    H246073   0.692   6.726  12.583  0.7786  1.0591  1.1920
 8220TIP3   OH246074   5.006   2.816   4.687  0.6516  0.0167 -0.1068
 8220TIP3    H146075   4.976   2.726   4.700 -1.7049  0.9326  1.1398
 8220TIP3    H246076   4.949   2.868   4.743  1.5639  2.3591 -1.3058
 8221TIP3   OH246077   0.937   2.916  13.225  0.0021  0.0036 -0.0400
 8221TIP3    H146078   0.898   2.912  13.312 -1.0935 -0.5631 -0.5379
 8221TIP3    H246079   0.888   2.851  13.174  0.8579  0.0863 -0.9854
 8222TIP3   OH246080   0.069   5.805  10.778 -0.5413 -0.3540  0.6816
 8222TIP3    H146081   0.110   5.857  10.709  0.0559  0.3405  1.5355
 8222TIP3    H246082  -0.019   5.786  10.746  0.1750 -1.1673 -0.8303
 8223TIP3   OH246083   3.953   2.629   5.672  0.1313  0.2803  0.5025
 8223TIP3    H146084   3.929   2.719   5.651  2.1929  0.4381 -1.4367
 8223TIP3    H246085   3.870   2.582   5.677 -0.9421  2.1991  1.1911
 8224TIP3   OH246086   3.576   0.016   2.439  0.1835  0.5045 -0.0030
 8224TIP3    H146087   3.549   0.018   2.347  0.4917  2.1685 -0.0623
 8224TIP3    H246088   3.508   0.065   2.485 -0.0662 -0.4792  0.6944
 8225TIP3   OH246089   0.964   2.641  14.451  0.1449  0.4548 -0.3065
 8225TIP3    H146090   0.948   2.640  14.356 -0.5343  2.1469 -0.2267
 8225TIP3    H246091   1.024   2.714  14.464  1.2200 -0.5467  0.4312
 8226TIP3   OH246092   0.039   1.969  14.843  0.2845 -0.4154 -0.5528
 8226TIP3    H146093   0.045   2.030  14.917  0.6445 -1.4026  0.2308
 8226TIP3    H246094   0.128   1.963  14.809  0.9064 -3.0367  1.4254
 8227TIP3   OH246095   4.408   3.257   5.333  0.4024 -0.6403 -0.4877
 8227TIP3    H146096   4.439   3.172   5.301  1.6932 -0.7893  1.0966
 8227TIP3    H246097   4.376   3.238   5.422  0.8481  0.5691 -0.0681
 8228TIP3   OH246098   1.584   4.201  13.459  0.4674  0.1182  0.4244
 8228TIP3    H146099   1.636   4.270  13.500  1.8976  0.3688 -1.7349
 8228TIP3    H246100   1.568   4.232  13.370 -1.0102 -1.2210  0.1922
 8229TIP3   OH246101   4.585   5.637  15.588 -0.2184  0.1992  0.2717
 8229TIP3    H146102   4.641   5.711  15.612  0.3865  0.4547 -1.8178
 8229TIP3    H246103   4.569   5.648  15.494 -1.4549 -1.4256  0.2651
 8230TIP3   OH246104   1.957   0.090   3.577 -0.0539 -0.1601 -0.5835
 8230TIP3    H146105   1.869   0.065   3.606 -0.2694  1.3300  0.1143
 8230TIP3    H246106   1.943   0.160   3.513  0.6584  1.4533  0.9751
 8231TIP3   OH246107   2.215   2.850  10.855 -0.3348  0.1784 -0.4887
 8231TIP3    H146108   2.221   2.941  10.882 -0.0404 -0.7227  2.7248
 8231TIP3    H246109   2.303   2.828  10.825  0.2720  0.2558  1.1974
 8232TIP3   OH246110   6.254   5.133   2.155  0.0863  0.7017  0.0245
 8232TIP3    H146111   6.259   5.078   2.077  1.8352 -0.3903  0.8724
 8232TIP3    H246112   6.160   5.153   2.164 -0.2174  0.2871 -1.9472
 8233TIP3   OH246113   6.000   1.161   2.779  0.3430 -0.2670  0.5370
 8233TIP3    H146114   5.982   1.071   2.806 -1.6932  0.5858  2.2372
 8233TIP3    H246115   5.933   1.180   2.713  1.1203 -0.1744 -0.2302
 8234TIP3   OH246116   1.951   0.754   0.765  0.7947 -0.5844 -0.4400
 8234TIP3    H146117   1.985   0.842   0.783 -2.0239  0.3030  0.7837
 8234TIP3    H246118   1.924   0.756   0.673  1.0991 -0.3081 -0.5228
 8235TIP3   OH246119   0.381   3.681   3.451 -0.3749  0.0277  0.0310
 8235TIP3    H146120   0.351   3.639   3.531  0.5571 -2.6188 -0.9407
 8235TIP3    H246121   0.320   3.754   3.437 -1.9544 -0.9024  1.8633
 8236TIP3   OH246122   2.239   3.554   1.511 -0.3697 -0.0810  0.0958
 8236TIP3    H146123   2.207   3.531   1.599  0.3120  1.1936  0.6981
 8236TIP3    H246124   2.333   3.568   1.522 -0.7675  3.3342 -0.0895
 8237TIP3   OH246125   3.407   5.123  16.651  0.0201 -0.3138 -0.3207
 8237TIP3    H146126   3.366   5.120  16.738  1.4213  2.0022  0.4840
 8237TIP3    H246127   3.497   5.096  16.666 -0.0692 -1.1455 -1.2890
 8238TIP3   OH246128   3.482   5.583   2.421 -0.3294  0.1722  0.0544
 8238TIP3    H146129   3.388   5.587   2.407 -0.6729 -2.0552  1.4832
 8238TIP3    H246130   3.504   5.668   2.459 -1.8952  0.4003  0.4799
 8239TIP3   OH246131   0.209   3.642  13.766 -0.3716 -0.0554  0.9069
 8239TIP3    H146132   0.120   3.668  13.790 -0.1964  0.8948  0.5804
 8239TIP3    H246133   0.252   3.725  13.743  0.2640 -0.6269 -0.0075
 8240TIP3   OH246134   3.339   5.568  15.430  0.5427  0.6712 -0.1577
 8240TIP3    H146135   3.320   5.601  15.342  0.1815  0.2434 -0.2453
 8240TIP3    H246136   3.381   5.483  15.415  0.3740  0.5444  0.0807
 8241TIP3   OH246137   4.644   4.648  12.242 -0.3600  0.3165  0.4644
 8241TIP3    H146138   4.582   4.601  12.185 -0.3019 -0.2530  0.8636
 8241TIP3    H246139   4.688   4.710  12.184 -0.1740 -0.3847 -0.1554
 8242TIP3   OH246140   1.654   1.720   4.349 -0.8984 -0.1685 -0.1855
 8242TIP3    H146141   1.743   1.701   4.380 -0.7636  0.0102 -0.4606
 8242TIP3    H246142   1.648   1.675   4.265 -1.6050 -1.4855  0.5475
 8243TIP3   OH246143   0.179   1.739  13.520  0.0257  0.4061  0.3942
 8243TIP3    H146144   0.169   1.650  13.485  1.6033  0.6411 -0.6830
 8243TIP3    H246145   0.270   1.744  13.548 -0.0169  1.7325  0.3242
 8244TIP3   OH246146   1.950   6.286   4.611 -0.0215 -0.2259 -0.2432
 8244TIP3    H146147   2.016   6.266   4.545 -1.3549  1.1264 -2.0469
 8244TIP3    H246148   1.957   6.380   4.625 -0.0457 -0.4283  1.2668
 8245TIP3   OH246149   1.391   6.134  14.235 -0.8354  0.3746 -0.3499
 8245TIP3    H146150   1.305   6.140  14.192 -0.7148  0.5979 -0.5621
 8245TIP3    H246151   1.410   6.041  14.238 -1.9258  0.1781  1.3546
 8246TIP3   OH246152   0.915   1.145  11.813  0.3798  0.4099  0.6305
 8246TIP3    H146153   0.933   1.061  11.773  0.8187  0.4900  0.6608
 8246TIP3    H246154   0.844   1.183  11.760  0.8521  0.4530  0.0272
 8247TIP3   OH246155   4.151   3.758   1.383  0.1476  0.4089 -0.1920
 8247TIP3    H146156   4.126   3.850   1.382  2.0314  0.9743  1.6520
 8247TIP3    H246157   4.247   3.758   1.374  0.2358 -1.3169  0.3747
 8248TIP3   OH246158   5.707   5.936   2.435  0.0748 -0.0016 -0.1187
 8248TIP3    H146159   5.757   5.963   2.512  1.3307 -1.1549 -0.5178
 8248TIP3    H246160   5.679   6.018   2.394 -0.2065  0.6196  1.3031
 8249TIP3   OH246161   3.117   1.793   2.954 -0.2735 -0.0870 -0.4861
 8249TIP3    H146162   3.059   1.853   3.000 -1.4619 -0.2508 -1.7182
 8249TIP3    H246163   3.140   1.727   3.020  3.0632  2.9969  1.5882
 8250TIP3   OH246164   2.830   4.652  13.998 -0.2986  0.3168  0.7609
 8250TIP3    H146165   2.749   4.671  13.951 -0.7689 -0.9756  1.0150
 8250TIP3    H246166   2.866   4.574  13.955 -0.4818 -0.5882  2.1872
 8251TIP3   OH246167   5.428   6.506   3.851  0.3330  0.3424 -0.0161
 8251TIP3    H146168   5.501   6.555   3.812  0.0139  0.8126 -0.0196
 8251TIP3    H246169   5.467   6.460   3.925  0.6549  0.5181 -0.0765
 8252TIP3   OH246170   5.879   4.146   3.151  0.4718  0.0471 -0.4867
 8252TIP3    H146171   5.913   4.186   3.071  2.0043  0.5792  0.3952
 8252TIP3    H246172   5.950   4.089   3.181  0.5070  0.9577  1.2530
 8253TIP3   OH246173   1.759   5.324  11.587 -0.1066 -0.2941  0.2180
 8253TIP3    H146174   1.805   5.329  11.671 -0.9305  0.0001  0.6586
 8253TIP3    H246175   1.828   5.334  11.521  0.5346 -0.4349  0.8570
 8254TIP3   OH246176   0.344   2.554  15.700 -0.1794  0.0027 -0.4876
 8254TIP3    H146177   0.317   2.645  15.710 -0.8711 -0.3984  1.5376
 8254TIP3    H246178   0.272   2.512  15.652 -1.0419 -0.0294  0.8147
 8255TIP3   OH246179   3.037   3.770   5.863  0.5474  0.4697 -0.3333
 8255TIP3    H146180   2.983   3.722   5.801  1.1016  1.4262 -1.5858
 8255TIP3    H246181   3.031   3.720   5.944  0.1834 -1.0595 -1.2797
 8256TIP3   OH246182   5.349   0.839  13.244  0.3365 -0.2907 -0.1732
 8256TIP3    H146183   5.375   0.781  13.316  0.4109  0.6957  0.6051
 8256TIP3    H246184   5.407   0.915  13.253 -1.8480  1.3094  0.7294
 8257TIP3   OH246185   4.227   4.863   0.976  0.1469  0.2058  0.0512
 8257TIP3    H146186   4.184   4.935   0.929  0.4553  0.4342  0.1150
 8257TIP3    H246187   4.212   4.882   1.069 -0.5188 -0.2807  0.0485
 8258TIP3   OH246188   0.629   1.906  13.230  0.0800  0.1823  0.2798
 8258TIP3    H146189   0.683   1.849  13.175  0.1930  0.8904 -0.3524
 8258TIP3    H246190   0.662   1.892  13.319 -0.2165 -1.1022  0.2040
 8259TIP3   OH246191   5.001   2.144   1.696 -0.4187 -0.0812 -0.4282
 8259TIP3    H146192   4.910   2.149   1.726 -0.8366  1.2208 -1.8391
 8259TIP3    H246193   5.016   2.051   1.678 -2.0303 -0.0798 -1.8442
 8260TIP3   OH246194   2.228   4.058   5.715 -0.3034 -0.0795  0.1387
 8260TIP3    H146195   2.184   4.113   5.779 -1.3982 -0.4216 -0.3072
 8260TIP3    H246196   2.176   4.067   5.635 -0.6793 -1.9754  0.1420
 8261TIP3   OH246197   6.198   4.569  16.021 -0.4086 -0.5993 -0.0947
 8261TIP3    H146198   6.221   4.660  16.039 -1.9096 -0.0023 -1.0388
 8261TIP3    H246199   6.272   4.518  16.054  0.0287  0.8917  1.2972
 8262TIP3   OH246200   0.899   1.312   3.372 -0.3016 -0.3424  0.1214
 8262TIP3    H146201   0.849   1.268   3.303 -0.8203  0.2850  0.0890
 8262TIP3    H246202   0.832   1.339   3.436  0.2849 -1.9795  1.4814
 8263TIP3   OH246203   3.514   4.392   5.446  0.2465  0.2214  0.2561
 8263TIP3    H146204   3.441   4.329   5.446 -1.0568  1.6896 -1.9078
 8263TIP3    H246205   3.533   4.405   5.539 -0.9218 -1.6805  0.8074
 8264TIP3   OH246206   6.427   1.960  13.440 -0.0502 -0.1087 -0.5991
 8264TIP3    H146207   6.449   2.041  13.393  0.7287  1.9077  3.0328
 8264TIP3    H246208   6.505   1.942  13.492 -1.6221 -1.1145  1.4448
 8265TIP3   OH246209   0.394   3.251   1.984 -0.0583 -0.6256 -0.2691
 8265TIP3    H146210   0.298   3.247   1.990 -0.0178 -0.2193  0.9730
 8265TIP3    H246211   0.423   3.255   2.076  0.8683  4.3620 -0.6329
 8266TIP3   OH246212   5.104   3.811  10.546 -0.0534 -0.5400 -0.2368
 8266TIP3    H146213   5.051   3.776  10.475 -0.7182  1.3490 -0.7187
 8266TIP3    H246214   5.041   3.854  10.605  0.9001  1.9051 -0.9177
 8267TIP3   OH246215   4.775   1.052  15.624  0.2181  0.4231  0.3292
 8267TIP3    H146216   4.835   1.011  15.686  1.5800  2.0853  0.1176
 8267TIP3    H246217   4.818   1.133  15.598 -0.1660 -0.4018 -3.0764
 8268TIP3   OH246218   1.057   6.165   0.008  0.5274 -0.2386  0.7674
 8268TIP3    H146219   1.121   6.127   0.069 -0.0262 -1.5304  0.5508
 8268TIP3    H246220   1.019   6.090  -0.037  0.9123  0.7145 -1.1781
 8269TIP3   OH246221   2.961   6.429  17.128  0.0770  0.0395  0.2162
 8269TIP3    H146222   2.915   6.513  17.132 -0.3517 -0.2838  2.7349
 8269TIP3    H246223   3.039   6.448  17.075  0.1021  2.0856  0.9401
 8270TIP3   OH246224   3.727   1.361   3.261 -0.5241 -0.0874 -0.5531
 8270TIP3    H146225   3.820   1.342   3.252 -0.4110  0.1982 -0.0079
 8270TIP3    H246226   3.718   1.453   3.237 -0.7037 -0.1838 -0.8543
 8271TIP3   OH246227   6.153   0.891   3.125 -0.8076 -0.1794  0.4417
 8271TIP3    H146228   6.195   0.882   3.039 -2.0222 -2.1893  0.0419
 8271TIP3    H246229   6.102   0.972   3.118 -0.0814  0.2166 -0.3731
 8272TIP3   OH246230   3.232   4.151  10.799  0.1960  0.0096  0.5425
 8272TIP3    H146231   3.205   4.065  10.769 -0.2514  0.3873 -0.1516
 8272TIP3    H246232   3.327   4.143  10.811  0.4139 -0.1084 -1.1501
 8273TIP3   OH246233   0.631   6.705   0.773 -0.0907 -0.3689 -0.2297
 8273TIP3    H146234   0.657   6.730   0.685 -0.8595 -0.2355 -0.4253
 8273TIP3    H246235   0.668   6.773   0.830  1.1413 -0.9319 -0.3555
 8274TIP3   OH246236   2.930   5.389   2.873 -0.2131 -0.2486 -0.3005
 8274TIP3    H146237   2.923   5.482   2.851  0.0131 -0.1404  0.0887
 8274TIP3    H246238   2.874   5.379   2.950  0.5996 -0.2270  0.2919
 8275TIP3   OH246239   0.490   2.365  11.234 -0.0010  1.0119  0.0191
 8275TIP3    H146240   0.524   2.389  11.320 -0.6616 -0.9859  0.8649
 8275TIP3    H246241   0.396   2.384  11.239 -0.3181 -0.5780  0.2961
 8276TIP3   OH246242   3.402   4.582  14.135 -0.3300 -0.3885  0.2327
 8276TIP3    H146243   3.457   4.511  14.169  0.4337  0.7901  1.5071
 8276TIP3    H246244   3.319   4.540  14.113 -0.9381 -1.1630  3.8091
 8277TIP3   OH246245   2.054   2.127   2.108  0.0130 -0.0722 -0.2737
 8277TIP3    H146246   2.148   2.137   2.124  0.2078  0.7841 -1.7529
 8277TIP3    H246247   2.012   2.186   2.171  0.5111  0.1263 -0.1272
 8278TIP3   OH246248   2.824   6.206  13.188  0.1483 -0.2333  0.1556
 8278TIP3    H146249   2.736   6.222  13.221  0.1847  0.5919 -0.1229
 8278TIP3    H246250   2.816   6.127  13.134 -0.4493 -0.0660 -0.0024
 8279TIP3   OH246251   5.290   5.722   3.155  0.1212 -0.4763 -0.3328
 8279TIP3    H146252   5.212   5.675   3.124 -0.3688 -0.8580  1.4263
 8279TIP3    H246253   5.270   5.743   3.246  2.7765 -2.0845  0.6693
 8280TIP3   OH246254   0.661   6.320   1.400 -0.2884 -0.2541  0.2820
 8280TIP3    H146255   0.650   6.352   1.310  0.6316 -1.2375 -0.1951
 8280TIP3    H246256   0.575   6.330   1.440 -0.5993  0.6033 -0.5797
 8281TIP3   OH246257   3.822   6.768   0.442 -0.6335 -0.3885 -0.2316
 8281TIP3    H146258   3.837   6.688   0.491 -0.2592 -0.0332  0.2315
 8281TIP3    H246259   3.742   6.751   0.392 -0.4458 -1.1179 -0.2815
 8282TIP3   OH246260   6.597   3.230   5.472 -0.3473  0.3548 -0.2062
 8282TIP3    H146261   6.505   3.234   5.498 -0.7773  0.7499 -1.7455
 8282TIP3    H246262   6.624   3.141   5.495 -0.9302  0.4390  0.8292
 8283TIP3   OH246263   1.290   0.392   2.968 -0.5539  0.2595 -0.2284
 8283TIP3    H146264   1.249   0.330   3.028  2.4249 -1.1591  0.4399
 8283TIP3    H246265   1.301   0.472   3.020 -1.4712  0.2983 -0.0898
 8284TIP3   OH246266   6.140   6.115  15.456  0.3961 -0.1358  0.2189
 8284TIP3    H146267   6.114   6.060  15.530  1.7374 -0.2774  0.6041
 8284TIP3    H246268   6.193   6.184  15.495 -0.4534  0.8826 -0.3879
 8285TIP3   OH246269   4.690   1.313   2.069 -0.2607 -0.2547  0.3994
 8285TIP3    H146270   4.746   1.319   2.146  2.4952 -0.4067 -1.4820
 8285TIP3    H246271   4.643   1.396   2.066 -0.1067 -0.1004  2.0376
 8286TIP3   OH246272   1.142   4.967   3.939  0.5156  0.2880  0.4514
 8286TIP3    H146273   1.107   4.878   3.945  2.4435 -0.4801  0.5045
 8286TIP3    H246274   1.200   4.965   3.863  0.6717  1.4649  0.5311
 8287TIP3   OH246275   3.442   4.080   5.770  0.1962  0.9579  0.4452
 8287TIP3    H146276   3.517   4.075   5.830 -0.3324 -0.4303  1.0234
 8287TIP3    H246277   3.391   4.001   5.789 -0.1392  0.6475 -1.6272
 8288TIP3   OH246278   4.470   4.986   0.991 -0.0658  0.5872 -0.2867
 8288TIP3    H146279   4.534   4.946   0.932  1.0831  1.2180  0.5162
 8288TIP3    H246280   4.399   4.922   0.997  1.1834 -0.7846 -0.0014
 8289TIP3   OH246281   0.540   2.252  13.474 -0.1279  0.2710 -0.8951
 8289TIP3    H146282   0.593   2.248  13.395  1.5246 -0.7684  0.2331
 8289TIP3    H246283   0.474   2.319  13.456 -0.7520 -1.0765 -3.7343
 8290TIP3   OH246284   2.466   3.249  13.148  0.7957  0.6243  0.2257
 8290TIP3    H146285   2.424   3.163  13.149  2.0670 -0.0113  0.2110
 8290TIP3    H246286   2.555   3.231  13.118  0.9351  2.0145 -0.1842
 8291TIP3   OH246287   5.021   4.685   4.248 -0.1680  0.0087  0.6427
 8291TIP3    H146288   4.933   4.722   4.250 -0.8095 -1.5652  1.2522
 8291TIP3    H246289   5.020   4.614   4.312  1.5801  0.0581  0.7530
 8292TIP3   OH246290   4.497   4.051   4.962 -0.4231  0.4103  0.1353
 8292TIP3    H146291   4.423   4.035   5.019 -0.7178 -1.0586 -0.6431
 8292TIP3    H246292   4.493   3.981   4.897  1.9074  0.0324  0.3538
 8293TIP3   OH246293   2.145   1.004  12.359 -0.2631  0.4559  0.4674
 8293TIP3    H146294   2.118   1.058  12.433  1.1222 -1.0295  2.1270
 8293TIP3    H246295   2.238   1.025  12.348 -0.5290  0.8509 -1.0179
 8294TIP3   OH246296   4.483   2.589  12.212 -0.0934  0.2332  0.1758
 8294TIP3    H146297   4.404   2.534  12.214  0.4493 -0.7040 -2.5018
 8294TIP3    H246298   4.467   2.653  12.144  1.0577  0.6767  0.3052
 8295TIP3   OH246299   3.101   3.363   2.064  0.5243 -0.1824  0.3848
 8295TIP3    H146300   3.017   3.409   2.074  1.5118  1.9701 -0.7750
 8295TIP3    H246301   3.167   3.431   2.078  2.0342 -1.0628 -2.1462
 8296TIP3   OH246302   5.020   4.630   3.935 -0.1322 -0.3167 -0.1599
 8296TIP3    H146303   5.038   4.702   3.995 -1.3243 -0.1998  0.0659
 8296TIP3    H246304   4.992   4.558   3.992 -0.6327 -0.4118 -0.5262
 8297TIP3   OH246305   5.549   0.128  13.793 -0.2711 -0.4646  0.4156
 8297TIP3    H146306   5.607   0.147  13.720  1.9058  0.9123  2.4441
 8297TIP3    H246307   5.479   0.193  13.786 -1.0332 -1.4391 -1.4032
 8298TIP3   OH246308   4.575   2.112  10.942 -0.1818  0.0610 -0.1326
 8298TIP3    H146309   4.550   2.020  10.953 -0.6830 -0.0240 -1.7976
 8298TIP3    H246310   4.664   2.117  10.975  0.0092 -1.1267 -0.4392
 8299TIP3   OH246311   3.626   6.045   3.024 -0.1234 -0.1669 -0.4831
 8299TIP3    H146312   3.688   6.056   3.097  1.4121 -0.6698 -1.6877
 8299TIP3    H246313   3.658   5.968   2.977 -2.0053 -0.7705 -0.8088
 8300TIP3   OH246314   6.507   1.795  14.213 -0.1091 -0.8439  0.3493
 8300TIP3    H146315   6.474   1.706  14.223  1.2758 -0.9986  4.2456
 8300TIP3    H246316   6.463   1.845  14.281  1.1680  0.8542 -0.0339
 8301TIP3   OH246317   0.537   4.447  11.650 -0.1562  0.6471  0.0621
 8301TIP3    H146318   0.470   4.513  11.629  0.5677  1.0894 -0.9118
 8301TIP3    H246319   0.578   4.427  11.565 -0.5611 -1.2794  0.2811
 8302TIP3   OH246320   4.030   5.930   0.347  0.2557 -0.3119  0.2960
 8302TIP3    H146321   4.071   6.005   0.305 -1.0074  1.2166  1.7238
 8302TIP3    H246322   4.095   5.860   0.340  2.4528  1.5844  1.0715
 8303TIP3   OH246323   5.612   3.835  11.019  0.4048 -0.7530  0.2946
 8303TIP3    H146324   5.561   3.915  11.029  0.5048 -0.5929 -0.5059
 8303TIP3    H246325   5.556   3.766  11.056  0.4248 -0.2861  1.2146
 8304TIP3   OH246326   0.541   3.491   2.139 -0.0624  0.5501 -1.0658
 8304TIP3    H146327   0.581   3.428   2.199  1.6052  2.6439  0.1028
 8304TIP3    H246328   0.447   3.479   2.151  0.2405  0.4544  1.5080
 8305TIP3   OH246329   2.700   5.333   4.186 -0.0664 -0.0558 -0.3206
 8305TIP3    H146330   2.652   5.397   4.132 -1.0540 -0.6100 -0.1137
 8305TIP3    H246331   2.644   5.256   4.187  1.3150 -1.0853 -0.8982
 8306TIP3   OH246332   4.251   5.130   2.674 -0.5167 -0.3234 -0.3763
 8306TIP3    H146333   4.235   5.207   2.619  2.3024  0.4950 -0.1211
 8306TIP3    H246334   4.254   5.164   2.763  0.5125 -0.7379 -0.2423
 8307TIP3   OH246335   5.821   2.443   2.838 -0.6464  0.6245  0.1169
 8307TIP3    H146336   5.877   2.381   2.791 -1.2830 -1.2531  1.7719
 8307TIP3    H246337   5.743   2.452   2.783  1.0024  2.9429 -2.0057
 8308TIP3   OH246338   1.296   1.304   3.609  0.0386 -0.0691  0.3938
 8308TIP3    H146339   1.307   1.269   3.697 -0.3631 -0.5167  0.2666
 8308TIP3    H246340   1.319   1.232   3.550  0.6934  0.3490  0.1276
 8309TIP3   OH246341   4.225   2.914   0.556 -0.2468 -0.1223 -0.5716
 8309TIP3    H146342   4.151   2.900   0.496 -3.5829  1.4010  2.9202
 8309TIP3    H246343   4.226   3.008   0.571  1.8251 -0.2440  0.1759
 8310TIP3   OH246344   3.853   0.765  15.463  0.0389  0.4132 -0.5942
 8310TIP3    H146345   3.762   0.734  15.458  0.4048 -0.5984 -1.2356
 8310TIP3    H246346   3.846   0.860  15.459 -1.0114  0.3562 -0.3963
 8311TIP3   OH246347   3.244   2.766   2.862  0.5166  0.0604 -0.2656
 8311TIP3    H146348   3.297   2.742   2.786  0.3583  1.7379 -0.9470
 8311TIP3    H246349   3.277   2.852   2.887  0.5876 -0.5027  1.6109
 8312TIP3   OH246350   6.396   3.967   3.353  0.5992 -0.0958 -0.1972
 8312TIP3    H146351   6.325   3.979   3.416  0.5205  0.6633 -0.4286
 8312TIP3    H246352   6.391   4.044   3.296  1.8854  0.1947  0.0640
 8313TIP3   OH246353   5.678   2.782  13.201  0.2489 -0.6026 -0.3660
 8313TIP3    H146354   5.762   2.785  13.154 -1.0532  0.3648 -2.7282
 8313TIP3    H246355   5.642   2.696  13.180  0.2169 -0.6385 -0.1585
 8314TIP3   OH246356   1.620   1.105  13.713 -0.4459 -0.2106 -0.2441
 8314TIP3    H146357   1.692   1.057  13.673 -1.0549 -0.8666 -0.5697
 8314TIP3    H246358   1.621   1.076  13.805  0.5649  0.8296  0.0780
 8315TIP3   OH246359   3.077   3.712  12.848  0.2236  0.6469  0.1715
 8315TIP3    H146360   3.082   3.789  12.791 -0.9835 -0.0533 -0.9146
 8315TIP3    H246361   3.029   3.743  12.925 -2.0987  0.5034 -1.1567
 8316TIP3   OH246362   0.682   1.766  12.516  0.1840 -0.6786 -0.1127
 8316TIP3    H146363   0.588   1.772  12.499  0.6007  1.6248 -1.8458
 8316TIP3    H246364   0.698   1.672  12.526 -1.9072 -1.3278 -2.2436
 8317TIP3   OH246365   1.181   4.776  16.552  0.7849 -0.0268  0.3350
 8317TIP3    H146366   1.224   4.834  16.615  0.9623  0.1674  0.0359
 8317TIP3    H246367   1.089   4.801  16.556  1.1383  1.5487 -1.1412
 8318TIP3   OH246368   3.573   1.670   0.882  0.6325 -0.1278  0.4321
 8318TIP3    H146369   3.633   1.738   0.851 -0.2844  0.0190 -1.0639
 8318TIP3    H246370   3.547   1.700   0.969  2.5891 -0.1136  1.0433
 8319TIP3   OH246371   5.127   0.926   4.170  0.1228 -0.2560 -0.1395
 8319TIP3    H146372   5.190   0.986   4.210  0.9683 -0.9388 -0.4213
 8319TIP3    H246373   5.114   0.961   4.082  2.9418 -2.1320 -1.3774
 8320TIP3   OH246374   1.945   3.295   1.537 -0.4308  0.3599 -0.1407
 8320TIP3    H146375   1.960   3.357   1.465  0.2363  0.9211  0.4743
 8320TIP3    H246376   2.025   3.299   1.589 -0.8922 -0.0836  0.6091
 8321TIP3   OH246377   1.418   1.828  16.448  0.1052 -0.2735 -0.1608
 8321TIP3    H146378   1.451   1.786  16.368 -0.8517  0.1248 -0.7776
 8321TIP3    H246379   1.414   1.921  16.425 -0.3301 -0.1796  0.3021
 8322TIP3   OH246380   0.814   2.920  16.266 -0.0755 -0.6277 -0.1884
 8322TIP3    H146381   0.727   2.926  16.306  1.1632  0.4677  2.4887
 8322TIP3    H246382   0.808   2.972  16.186 -1.4154  0.8893  0.8724
 8323TIP3   OH246383   4.315   0.003  16.890 -0.0783  0.4568 -0.0118
 8323TIP3    H146384   4.248  -0.043  16.840 -1.1115  1.8806  0.0627
 8323TIP3    H246385   4.369   0.046  16.823 -1.3499  2.2077  0.0617
 8324TIP3   OH246386   4.320   2.532   1.895 -0.2472  0.0768 -0.5360
 8324TIP3    H146387   4.234   2.528   1.936  0.1004  0.4718  0.2450
 8324TIP3    H246388   4.303   2.565   1.807 -0.8294  0.8081 -0.1633
 8325TIP3   OH246389   2.317   2.927   3.894 -0.0232  0.4995  0.4460
 8325TIP3    H146390   2.397   2.905   3.845 -1.0888  0.8406 -1.5008
 8325TIP3    H246391   2.259   2.965   3.829 -2.1192 -0.5353  1.6661
 8326TIP3   OH246392   0.524   0.394  13.399 -0.2711 -0.4935 -0.0075
 8326TIP3    H146393   0.557   0.484  13.399  0.7984 -0.8772  0.0771
 8326TIP3    H246394   0.432   0.402  13.375 -0.5401  0.7522  1.3508
 8327TIP3   OH246395   3.860   6.700   1.500 -0.7297 -0.1998 -0.2785
 8327TIP3    H146396   3.877   6.713   1.407  1.0641  0.8002  0.1807
 8327TIP3    H246397   3.910   6.621   1.522 -0.1215  0.3068  0.1354
 8328TIP3   OH246398   1.930   0.596   4.842  0.3954 -0.0714 -0.5544
 8328TIP3    H146399   1.908   0.651   4.917 -0.9862 -1.3354 -0.0254
 8328TIP3    H246400   2.025   0.600   4.837  0.5662 -0.6281  1.7683
 8329TIP3   OH246401   1.483   5.089  12.235  0.2208  0.1303  0.2496
 8329TIP3    H146402   1.416   5.022  12.245 -0.2184  0.7060  1.2327
 8329TIP3    H246403   1.561   5.041  12.208 -0.3402 -0.6594  0.0129
 8330TIP3   OH246404   5.020   0.637  14.888  0.3976  0.6405 -0.0409
 8330TIP3    H146405   5.002   0.703  14.821  0.2385  0.8328  0.1912
 8330TIP3    H246406   5.073   0.682  14.954 -0.7188  0.8743  0.7095
 8331TIP3   OH246407   2.730   0.054  12.789  0.3800 -0.2733 -0.2968
 8331TIP3    H146408   2.793   0.022  12.725  1.7125  0.4489  0.6213
 8331TIP3    H246409   2.693   0.133  12.749  1.6844  0.5467  0.0718
 8332TIP3   OH246410   2.475   4.138  13.705 -0.5549  0.6577 -0.4425
 8332TIP3    H146411   2.419   4.089  13.766 -2.6523  1.8785 -1.3348
 8332TIP3    H246412   2.542   4.075  13.678 -1.3829 -0.7834  0.7991
 8333TIP3   OH246413   6.684   3.631  13.180 -0.3008 -0.0572  0.3231
 8333TIP3    H146414   6.767   3.623  13.226 -0.5719 -2.7202  0.4329
 8333TIP3    H246415   6.622   3.584  13.235 -1.7696  1.3162 -0.1029
 8334TIP3   OH246416   5.451   5.625  15.777  0.2615 -0.8127 -0.2718
 8334TIP3    H146417   5.403   5.602  15.697 -0.6707  0.3060 -0.0469
 8334TIP3    H246418   5.534   5.659  15.745 -0.5744  0.7528 -0.8393
 8335TIP3   OH246419   1.871   2.343   0.977  0.2502 -0.0610  0.2524
 8335TIP3    H146420   1.955   2.363   0.937  0.0567  1.2805  0.4896
 8335TIP3    H246421   1.812   2.327   0.904  0.1136  1.4941  0.0109
 8336TIP3   OH246422   4.073   2.879   1.309  0.4885  0.2072 -0.4112
 8336TIP3    H146423   4.022   2.858   1.387  1.9312 -0.8526  0.2558
 8336TIP3    H246424   4.154   2.916   1.343  0.8880  0.2604 -1.4260
 8337TIP3   OH246425   6.508   4.492   5.844 -0.0289 -0.5796  0.2470
 8337TIP3    H146426   6.415   4.517   5.843  0.4155  1.1681  1.1203
 8337TIP3    H246427   6.527   4.474   5.936  0.4676 -1.0433  0.0545
 8338TIP3   OH246428   0.503   5.576  13.141  0.1283 -0.9884  0.0535
 8338TIP3    H146429   0.582   5.560  13.193 -0.1926  1.2819  1.2557
 8338TIP3    H246430   0.441   5.510  13.171  0.0863  0.0234  2.2879
 8339TIP3   OH246431   5.380   0.152  13.297 -0.1439  0.2115 -0.2919
 8339TIP3    H146432   5.309   0.202  13.336 -0.9233 -0.1707 -1.1774
 8339TIP3    H246433   5.336   0.083  13.247  0.8248  0.3637 -1.3981
 8340TIP3   OH246434   1.792   4.064  14.838  0.0051  0.4884  0.0959
 8340TIP3    H146435   1.844   4.022  14.906  2.0247  2.0568 -0.4354
 8340TIP3    H246436   1.724   4.000  14.817  2.4547 -2.1601 -0.0498
 8341TIP3   OH246437   0.264   0.704   1.426 -0.2669 -0.1077  0.0822
 8341TIP3    H146438   0.278   0.634   1.490 -0.7621 -0.2697  0.0166
 8341TIP3    H246439   0.323   0.774   1.453 -0.1595 -0.3462  0.4601
 8342TIP3   OH246440   3.635   1.232   5.174  0.3378  0.3565 -0.3187
 8342TIP3    H146441   3.609   1.322   5.154 -0.6180  0.2213  0.3425
 8342TIP3    H246442   3.554   1.187   5.195  1.1365  0.1102  2.4462
 8343TIP3   OH246443   1.415   4.928   2.814 -0.3572  0.2112  0.4111
 8343TIP3    H146444   1.501   4.940   2.773 -1.4582 -0.8237 -2.2860
 8343TIP3    H246445   1.354   4.977   2.758 -2.0395 -2.0582  0.1841
 8344TIP3   OH246446   0.610   4.664   4.495  0.4106 -1.0952 -0.1097
 8344TIP3    H146447   0.561   4.604   4.551  1.0676 -1.3949  0.1485
 8344TIP3    H246448   0.551   4.737   4.480  0.1017 -1.1823  0.6802
 8345TIP3   OH246449   6.295   2.129   5.457 -0.1494 -0.0595 -0.2452
 8345TIP3    H146450   6.303   2.067   5.530 -1.5450 -1.6002 -1.3870
 8345TIP3    H246451   6.386   2.145   5.430  0.2959 -0.5917  0.9069
 8346TIP3   OH246452   6.662   5.827  16.353  0.1400  0.0956  0.8668
 8346TIP3    H146453   6.724   5.878  16.300  0.0256  0.6212  1.2349
 8346TIP3    H246454   6.580   5.829  16.302  0.8670 -2.0226 -0.4459
 8347TIP3   OH246455   1.370   4.321   1.880 -0.1567 -0.3609  0.1030
 8347TIP3    H146456   1.311   4.394   1.894  0.0654 -0.0187 -0.6923
 8347TIP3    H246457   1.381   4.281   1.967  1.8304  2.1748  1.0802
 8348TIP3   OH246458   6.395   1.178  12.207 -0.6633  0.0092  0.4787
 8348TIP3    H146459   6.311   1.186  12.252 -0.5683  2.3205  0.3417
 8348TIP3    H246460   6.424   1.269  12.195  2.6756 -0.7980  2.0085
 8349TIP3   OH246461   1.982   2.280  11.147  0.1134  0.1537 -0.0187
 8349TIP3    H146462   1.964   2.292  11.240 -0.5666  1.1259 -0.2735
 8349TIP3    H246463   1.974   2.186  11.133 -2.2085  0.2687  0.3998
 8350TIP3   OH246464   2.321   4.993   0.841  0.2811 -0.2260  0.6055
 8350TIP3    H146465   2.362   5.041   0.770  0.4851 -0.0696  0.8308
 8350TIP3    H246466   2.264   5.056   0.884 -1.5126 -0.8803 -0.7699
 8351TIP3   OH246467   4.191   5.145  13.781  0.6453 -0.7521 -0.5730
 8351TIP3    H146468   4.201   5.079  13.712 -0.5767 -0.7780 -0.7473
 8351TIP3    H246469   4.116   5.114  13.832  0.0042  0.5388 -0.7106
 8352TIP3   OH246470   4.166   1.037   4.168  0.1211 -0.0129 -0.0997
 8352TIP3    H146471   4.171   1.096   4.092  0.2575 -1.3538 -1.1349
 8352TIP3    H246472   4.196   1.091   4.241 -0.7102  1.5244 -0.8610
 8353TIP3   OH246473   4.474   2.778   0.635  0.0333 -0.4417  0.5360
 8353TIP3    H146474   4.386   2.780   0.672 -0.0627  0.9447  0.2530
 8353TIP3    H246475   4.520   2.849   0.679  1.0284 -1.1977  0.7215
 8354TIP3   OH246476   5.348   4.775   4.781  0.0206  0.6436  0.1711
 8354TIP3    H146477   5.269   4.826   4.761  0.6815  0.8350 -2.0953
 8354TIP3    H246478   5.420   4.839   4.774  0.7429 -0.3180 -1.5508
 8355TIP3   OH246479   4.562   1.848  16.328 -0.2490 -0.4601 -0.1457
 8355TIP3    H146480   4.485   1.797  16.307 -0.5814 -0.6788  1.4997
 8355TIP3    H246481   4.585   1.821  16.417  1.1914  0.2471 -0.2896
 8356TIP3   OH246482   2.601   4.055  16.770 -0.0183  0.6300  0.3001
 8356TIP3    H146483   2.611   4.136  16.820  0.1004  1.5521 -1.1799
 8356TIP3    H246484   2.690   4.020  16.762  0.0111  0.6843  0.3929
 8357TIP3   OH246485   0.017   4.664   0.795 -0.2067  0.1433  0.3284
 8357TIP3    H146486   0.067   4.738   0.828  1.5737 -0.5431 -0.7398
 8357TIP3    H246487   0.060   4.587   0.832 -0.7139 -0.4569 -0.3016
 8358TIP3   OH246488   5.257   4.740  16.427  0.1714  0.4757  0.2258
 8358TIP3    H146489   5.241   4.684  16.351 -0.4651 -0.4883  1.0667
 8358TIP3    H246490   5.336   4.789  16.404  0.5582 -0.5312 -0.6454
 8359TIP3   OH246491   5.654   1.488  16.886 -0.7518 -0.3345 -0.4177
 8359TIP3    H146492   5.707   1.562  16.856 -1.2774 -0.0897 -0.7471
 8359TIP3    H246493   5.707   1.447  16.955 -0.9382  1.0342  0.5688
 8360TIP3   OH246494   4.529   2.524  16.025  0.0887  0.7170 -0.3467
 8360TIP3    H146495   4.445   2.497  16.063 -0.0219 -0.0995 -1.1527
 8360TIP3    H246496   4.569   2.579  16.093 -0.6453  0.2848  0.4580
 8361TIP3   OH246497   3.920   2.955  11.389 -0.1808  0.2288 -0.3117
 8361TIP3    H146498   3.908   2.930  11.297 -1.0245 -0.0566 -0.1288
 8361TIP3    H246499   3.853   3.021  11.405 -1.6521 -1.4804  0.7603
 8362TIP3   OH246500   3.361   5.088  11.409 -0.3477  0.0349  0.1044
 8362TIP3    H146501   3.322   5.142  11.340  2.7093  0.4166 -1.4153
 8362TIP3    H246502   3.455   5.106  11.403  0.1611 -1.2905  3.2182
 8363TIP3   OH246503   4.269   0.974  14.273  0.6135  0.0074 -0.4636
 8363TIP3    H146504   4.177   0.951  14.287  0.1521  1.9563 -0.1622
 8363TIP3    H246505   4.315   0.940  14.350 -0.2535  1.2410  0.6152
 8364TIP3   OH246506   4.425   3.449   5.105  0.0103  0.3962 -0.7270
 8364TIP3    H146507   4.350   3.503   5.080 -0.8108  0.1821  1.1036
 8364TIP3    H246508   4.390   3.390   5.172  1.8281  0.3050  0.1793
 8365TIP3   OH246509   2.183   3.689  16.067 -0.1879  0.4547 -0.0739
 8365TIP3    H146510   2.249   3.724  16.127  0.7707 -2.1062  0.4760
 8365TIP3    H246511   2.126   3.636  16.124 -0.4247 -0.4461 -1.1369
 8366TIP3   OH246512   3.866   5.856   1.876  0.2388 -0.0196 -0.0896
 8366TIP3    H146513   3.793   5.878   1.818 -0.4606 -2.2798 -0.0967
 8366TIP3    H246514   3.845   5.898   1.959 -0.4726  0.3356 -0.4533
 8367TIP3   OH246515   2.208   1.317  11.460  0.6852  0.0183 -0.1844
 8367TIP3    H146516   2.208   1.226  11.490 -0.5991 -0.3287 -1.1461
 8367TIP3    H246517   2.296   1.331  11.425  0.7948 -0.9767 -0.3226
 8368TIP3   OH246518   2.632   3.006  12.489 -0.3989  0.5146 -0.1560
 8368TIP3    H146519   2.559   3.015  12.428 -0.4627 -0.8810 -0.2970
 8368TIP3    H246520   2.603   3.053  12.568 -1.3280  0.1942 -0.3071
 8369TIP3   OH246521   0.041   1.958   4.550  0.5701 -0.4359 -0.0147
 8369TIP3    H146522   0.134   1.936   4.543  0.7649  0.3904 -0.0394
 8369TIP3    H246523   0.037   2.053   4.540 -0.1761 -0.3486  0.9646
 8370TIP3   OH246524   6.164   1.140  15.603 -0.4938 -0.0503 -0.9209
 8370TIP3    H146525   6.218   1.214  15.632 -0.6355 -0.0797 -0.5779
 8370TIP3    H246526   6.227   1.076  15.569 -0.2783 -0.2494 -0.1536
 8371TIP3   OH246527   1.692   0.371   0.564  0.0948 -0.4473 -0.2261
 8371TIP3    H146528   1.658   0.357   0.652 -0.1213 -0.0552 -0.2501
 8371TIP3    H246529   1.786   0.352   0.572  0.0411 -0.6056  0.0421
 8372TIP3   OH246530   0.136   2.518  12.920  0.0865  0.2085  0.2883
 8372TIP3    H146531   0.052   2.510  12.965 -0.7726  0.4642 -1.2330
 8372TIP3    H246532   0.115   2.510  12.827  1.9460 -1.2320 -0.0510
 8373TIP3   OH246533   6.742   3.588   2.836 -0.2084  0.0926  0.2577
 8373TIP3    H146534   6.781   3.514   2.789 -1.4112 -0.3509 -0.0488
 8373TIP3    H246535   6.816   3.646   2.854  0.6102 -0.7725 -0.2573
 8374TIP3   OH246536   2.815   1.017  13.811 -0.0537 -0.3546  0.4038
 8374TIP3    H146537   2.807   1.039  13.718  0.5082 -1.0269  0.1929
 8374TIP3    H246538   2.795   1.099  13.856  2.6316  0.8388 -0.4067
 8375TIP3   OH246539   2.225   2.403  15.793 -0.1466  0.8371 -0.5402
 8375TIP3    H146540   2.183   2.484  15.823 -1.0537  0.1136  0.1906
 8375TIP3    H246541   2.152   2.342  15.783  0.3686  0.4994 -2.4090
 8376TIP3   OH246542   3.824   3.109  15.555  0.0413 -0.1190 -0.1434
 8376TIP3    H146543   3.891   3.051  15.521  0.9423 -0.8266  2.7172
 8376TIP3    H246544   3.820   3.181  15.491  0.7486 -1.9717 -2.3382
 8377TIP3   OH246545   2.689   6.629  14.278  0.7706  0.3174  0.1092
 8377TIP3    H146546   2.600   6.598  14.262  1.5268 -1.1249 -1.4690
 8377TIP3    H246547   2.678   6.710  14.328 -1.3294 -1.1739  2.1700
 8378TIP3   OH246548   4.029   1.397  17.086 -0.1183  0.2813  0.1804
 8378TIP3    H146549   3.956   1.441  17.129 -1.2931 -0.0055 -1.4808
 8378TIP3    H246550   4.101   1.460  17.093 -0.9189  1.1772  0.5578
 8379TIP3   OH246551   4.954   6.112   6.098  0.2152 -0.9375 -0.6432
 8379TIP3    H146552   4.895   6.187   6.085  2.3456  0.4202 -2.8348
 8379TIP3    H246553   4.935   6.055   6.023 -0.0442 -1.6790 -0.0128
 8380TIP3   OH246554   2.051   1.993  16.888 -0.0685 -0.3695  0.0424
 8380TIP3    H146555   2.036   2.054  16.816 -0.8974 -1.3886 -0.6589
 8380TIP3    H246556   2.123   2.033  16.938 -0.0026  0.7316 -0.8969
 8381TIP3   OH246557   1.194   6.617  10.807 -0.3566  0.4580 -0.6220
 8381TIP3    H146558   1.123   6.597  10.746  0.4215 -0.1946 -1.3289
 8381TIP3    H246559   1.194   6.545  10.870  0.2550 -0.0165 -1.1578
 8382TIP3   OH246560   6.603   2.397  16.780  0.1822  0.7051  0.5002
 8382TIP3    H146561   6.556   2.480  16.790 -0.0221  0.6310  0.1839
 8382TIP3    H246562   6.542   2.341  16.731  0.8209  0.7883 -0.4056
 8383TIP3   OH246563   4.423   6.445   3.335  0.0861 -0.1388 -0.6912
 8383TIP3    H146564   4.450   6.355   3.317  0.6654  0.1908 -1.5197
 8383TIP3    H246565   4.442   6.458   3.428  0.4155 -0.7275 -0.6721
 8384TIP3   OH246566   5.597   6.464  16.299 -0.0292 -0.6128 -0.1053
 8384TIP3    H146567   5.519   6.413  16.277 -0.8666  0.1638  0.9637
 8384TIP3    H246568   5.623   6.432  16.386 -0.5656  0.7637  0.5743
 8385TIP3   OH246569   1.401   1.923   4.893  0.0095  0.6455 -0.0493
 8385TIP3    H146570   1.335   1.909   4.961 -0.7988  0.6906 -0.8073
 8385TIP3    H246571   1.449   1.840   4.889 -0.6677  0.2585 -0.1993
 8386TIP3   OH246572   3.236   1.517   4.849  0.1842 -0.1801 -0.3008
 8386TIP3    H146573   3.181   1.453   4.893  0.4404  0.2682  0.6954
 8386TIP3    H246574   3.175   1.580   4.810 -0.0258  0.3979  0.9211
 8387TIP3   OH246575   5.370   5.004  15.134 -0.2768  0.2643 -0.2630
 8387TIP3    H146576   5.370   4.922  15.183  0.1179 -0.5211 -1.5583
 8387TIP3    H246577   5.281   5.038  15.143 -0.6539 -0.6963 -0.3821
 8388TIP3   OH246578   4.822   5.611  11.005 -0.5170 -0.0965  0.5919
 8388TIP3    H146579   4.914   5.586  11.013 -0.5375 -0.7689 -1.0317
 8388TIP3    H246580   4.808   5.674  11.075  1.4119  0.6489  0.3346
 8389TIP3   OH246581   2.678   1.041  14.315 -0.1744  0.1783 -0.3185
 8389TIP3    H146582   2.616   1.103  14.277  0.8076  0.4346 -1.5304
 8389TIP3    H246583   2.756   1.092  14.333 -0.2933 -0.1507  1.1830
 8390TIP3   OH246584   5.082   1.143   2.316  0.0426  0.5438 -0.2062
 8390TIP3    H146585   4.990   1.164   2.335  0.0201  2.2483 -2.0264
 8390TIP3    H246586   5.117   1.113   2.400 -2.1251  0.0240  0.5646
 8391TIP3   OH246587   0.471   5.838   2.758  0.5784  0.0278  0.3169
 8391TIP3    H146588   0.381   5.819   2.732  1.0609 -2.7324  0.5074
 8391TIP3    H246589   0.521   5.761   2.731  2.6147  0.8323  1.6345
 8392TIP3   OH246590   2.897   5.612   2.535 -0.0573 -0.1227 -0.3989
 8392TIP3    H146591   2.867   5.696   2.500 -1.5316  0.2281  1.6391
 8392TIP3    H246592   2.817   5.563   2.553  0.7056 -0.8964  0.9630
 8393TIP3   OH246593   2.912   5.302  15.202  0.8088  0.0530 -0.3939
 8393TIP3    H146594   2.984   5.362  15.182 -0.9793  1.9072 -1.4843
 8393TIP3    H246595   2.884   5.327  15.290  1.9687 -1.2057  0.3619
 8394TIP3   OH246596   0.398   6.480  16.803  0.4968  1.0211  0.0743
 8394TIP3    H146597   0.374   6.476  16.711 -0.1848 -1.3471  0.3215
 8394TIP3    H246598   0.486   6.444  16.807  0.5863  1.2645  0.3315
 8395TIP3   OH246599   5.429   2.140   4.165 -0.5840  0.3597  0.0143
 8395TIP3    H146600   5.361   2.077   4.191 -1.0876 -0.0185 -2.1317
 8395TIP3    H246601   5.384   2.202   4.108  0.4505  1.2525  0.1629
 8396TIP3   OH246602   3.415   1.732   1.099  0.6290  0.7163 -0.3584
 8396TIP3    H146603   3.337   1.683   1.072  1.7084 -1.2441 -0.0394
 8396TIP3    H246604   3.381   1.810   1.142 -1.1852 -0.5787  0.6063
 8397TIP3   OH246605   6.024   4.867  12.957  0.2100  0.6226 -0.0542
 8397TIP3    H146606   6.011   4.794  13.017  0.3553 -0.2987 -1.1196
 8397TIP3    H246607   6.033   4.944  13.014 -0.2427 -0.1362  1.0668
 8398TIP3   OH246608   5.739   2.931   0.530  0.2516  0.1543  1.2981
 8398TIP3    H146609   5.659   2.913   0.481  1.2367 -0.3989 -0.1362
 8398TIP3    H246610   5.712   2.993   0.597 -1.3351  0.1539  0.6855
 8399TIP3   OH246611   0.485   0.163   5.112 -0.0096 -0.5199  0.3099
 8399TIP3    H146612   0.559   0.213   5.146 -0.7187  0.4877  0.4007
 8399TIP3    H246613   0.467   0.098   5.180 -1.1024  1.1605  1.6532
 8400TIP3   OH246614   2.771   3.933  17.145 -0.1519 -0.0373  0.0055
 8400TIP3    H146615   2.769   4.028  17.155 -0.6446 -0.2059  1.6463
 8400TIP3    H246616   2.836   3.903  17.208 -0.5718 -0.8482  0.0612
 8401TIP3   OH246617   0.098   1.395   2.324  0.0622  0.2716 -0.4599
 8401TIP3    H146618   0.071   1.311   2.287  2.0886 -0.5596 -0.1415
 8401TIP3    H246619   0.121   1.449   2.248  4.5296 -1.5385 -0.5227
 8402TIP3   OH246620   3.696   1.978  12.347 -0.3123 -0.2645 -0.5483
 8402TIP3    H146621   3.658   2.066  12.345  0.6732  0.1581 -1.1665
 8402TIP3    H246622   3.634   1.926  12.398 -0.8501  0.8139 -0.0928
 8403TIP3   OH246623   2.070   4.090  16.845 -0.1367 -0.7374 -0.4549
 8403TIP3    H146624   2.118   4.043  16.914  0.1290 -3.3185 -2.3415
 8403TIP3    H246625   2.136   4.109  16.779 -0.5456  1.1004 -0.3694
 8404TIP3   OH246626   6.604   2.084   4.762 -0.4485  0.1242  0.1354
 8404TIP3    H146627   6.592   2.170   4.721  1.0583  1.1200  1.7197
 8404TIP3    H246628   6.697   2.066   4.751 -0.4159 -0.4845  1.3949
 8405TIP3   OH246629   0.626   5.573   2.637 -0.1930  0.2215  0.3493
 8405TIP3    H146630   0.631   5.521   2.717 -1.6369 -0.6959 -0.1450
 8405TIP3    H246631   0.708   5.624   2.636  0.2017 -0.3697  1.9731
 8406TIP3   OH246632   5.415   0.353   5.200  0.2750 -0.1092 -0.7140
 8406TIP3    H146633   5.377   0.289   5.260 -1.1101 -0.5158 -2.0127
 8406TIP3    H246634   5.504   0.321   5.185  0.9688  0.4732  1.7848
 8407TIP3   OH246635   1.058   0.127   5.389  0.1359 -0.8300 -0.1052
 8407TIP3    H146636   1.052   0.033   5.402  0.3882 -1.0741 -1.6487
 8407TIP3    H246637   1.071   0.138   5.294  1.4411  0.6946  0.2279
 8408TIP3   OH246638   0.358   1.420  13.348 -0.5045 -0.2431  0.0601
 8408TIP3    H146639   0.282   1.435  13.403  0.4616  2.4772  0.7013
 8408TIP3    H246640   0.340   1.468  13.267  0.9585  1.2752  0.6193
 8409TIP3   OH246641   0.830   4.684   0.082  0.1673 -0.2432  0.0119
 8409TIP3    H146642   0.828   4.700  -0.012 -0.1542 -0.6454 -0.0485
 8409TIP3    H246643   0.810   4.770   0.120 -2.3505 -0.6096 -0.3469
 8410TIP3   OH246644   2.976   6.522  13.547 -0.8307 -0.0382  0.0251
 8410TIP3    H146645   3.047   6.460  13.530  0.3533  1.2196  0.2797
 8410TIP3    H246646   3.004   6.571  13.625 -1.7870  0.7543 -0.1075
 8411TIP3   OH246647   0.274   4.990   5.880  0.1189  0.1373  0.1254
 8411TIP3    H146648   0.289   5.016   5.971 -2.0063  2.3588 -0.1076
 8411TIP3    H246649   0.345   4.929   5.861  0.7635 -0.1649  3.1840
 8412TIP3   OH246650   2.522   4.151   4.275 -0.3024  0.1493 -0.6195
 8412TIP3    H146651   2.499   4.157   4.183  1.9275 -0.1594 -1.2377
 8412TIP3    H246652   2.461   4.209   4.320 -1.4264  0.2677 -2.2872
 8413TIP3   OH246653   6.105   2.007   2.824  0.9346  0.3437  0.0230
 8413TIP3    H146654   6.093   2.037   2.914  2.0446  3.3140 -0.7559
 8413TIP3    H246655   6.060   1.922   2.820  0.2028  0.5463  3.1347
 8414TIP3   OH246656   3.529   4.490  12.206 -0.1874 -0.2512  0.1786
 8414TIP3    H146657   3.490   4.577  12.218  0.3284 -0.0263  0.2385
 8414TIP3    H246658   3.454   4.432  12.191 -0.4464  0.4305 -1.2241
 8415TIP3   OH246659   3.435   5.651  13.227 -0.0388  0.0649  0.1413
 8415TIP3    H146660   3.482   5.678  13.148 -1.1323 -0.0369 -0.5697
 8415TIP3    H246661   3.362   5.598  13.193 -0.9890  0.6911  1.1654
 8416TIP3   OH246662   2.377   5.298   3.741  0.6683  0.1627  0.7036
 8416TIP3    H146663   2.352   5.347   3.662  0.2043  0.1500  0.8397
 8416TIP3    H246664   2.455   5.343   3.774 -0.1369  1.2243  1.2015
 8417TIP3   OH246665   3.029   0.851  12.599  0.5998  0.7106 -0.5088
 8417TIP3    H146666   2.964   0.891  12.541 -2.3377 -3.3830 -0.2843
 8417TIP3    H246667   2.990   0.858  12.686  1.2343 -0.3055 -0.1339
 8418TIP3   OH246668   1.034   2.935  16.434 -0.3645 -0.1800 -0.3513
 8418TIP3    H146669   1.003   2.876  16.503 -0.8820  0.3714 -0.1150
 8418TIP3    H246670   0.973   2.921  16.362  1.4468 -2.3800 -1.5253
 8419TIP3   OH246671   5.041   4.937  14.448 -0.3681 -0.4136 -0.2292
 8419TIP3    H146672   4.966   4.927  14.506  2.1413 -0.0565  3.2790
 8419TIP3    H246673   5.070   4.848  14.430 -1.0080 -0.5176 -0.7770
 8420TIP3   OH246674   4.037   3.301   5.088 -0.3480  0.5234 -0.5292
 8420TIP3    H146675   4.038   3.347   5.004 -2.0924  0.8790 -0.3874
 8420TIP3    H246676   3.955   3.328   5.129 -0.3186 -0.9465  0.5541
 8421TIP3   OH246677   6.168   6.525  10.700  0.0675  0.1179 -0.1257
 8421TIP3    H146678   6.127   6.576  10.629  0.8694  1.0059  0.0463
 8421TIP3    H246679   6.116   6.546  10.777 -0.2806 -0.1850 -0.2736
 8422TIP3   OH246680   4.338   6.532   2.318 -0.2233 -0.2351 -0.4990
 8422TIP3    H146681   4.373   6.453   2.360 -2.3262 -2.2403 -2.3611
 8422TIP3    H246682   4.410   6.562   2.262  1.0719 -0.0257  1.2271
 8423TIP3   OH246683   0.754   1.564  11.675  0.3604  0.4693  0.1379
 8423TIP3    H146684   0.787   1.588  11.761 -0.6122  0.2794  0.5685
 8423TIP3    H246685   0.741   1.648  11.630  2.8869  0.5158 -0.6189
 8424TIP3   OH246686   2.513   1.928   0.728  0.8864 -0.0344 -0.0683
 8424TIP3    H146687   2.527   1.853   0.670  1.3783 -0.1872  0.2470
 8424TIP3    H246688   2.443   1.978   0.686 -0.2584 -1.2947  0.3004
 8425TIP3   OH246689   4.292   4.323   5.216 -0.1400 -0.2220  0.2680
 8425TIP3    H146690   4.374   4.330   5.167  0.2083  2.1726  1.0712
 8425TIP3    H246691   4.223   4.331   5.150  0.3209  1.1400 -0.0836
 8426TIP3   OH246692   5.330   1.941   2.979  0.2838 -0.3584  0.3845
 8426TIP3    H146693   5.402   1.987   3.023  1.6541  0.0209 -2.1194
 8426TIP3    H246694   5.280   2.010   2.936 -0.2311 -0.8246  0.2339
 8427TIP3   OH246695   3.507   0.814  12.256  0.2856  0.3826  0.1551
 8427TIP3    H146696   3.516   0.739  12.197  0.7112  1.2288 -0.8938
 8427TIP3    H246697   3.418   0.846  12.241 -0.7073 -1.3094  2.3329
 8428TIP3   OH246698   0.683   6.727   1.987  0.0456  0.4362 -0.4438
 8428TIP3    H146699   0.606   6.670   1.995  0.3673 -0.3882 -2.8611
 8428TIP3    H246700   0.749   6.673   1.945  2.3489  0.8399  2.4745
 8429TIP3   OH246701   4.967   2.022   1.400  0.0997  0.1622  0.2050
 8429TIP3    H146702   5.029   2.058   1.463  0.0647  2.1073 -0.8388
 8429TIP3    H246703   5.015   1.954   1.354  0.7195  0.0582  1.0019
 8430TIP3   OH246704   1.548   6.135   4.370 -0.0163 -0.2597 -0.0310
 8430TIP3    H146705   1.608   6.157   4.441  1.3354 -0.2392 -1.1498
 8430TIP3    H246706   1.461   6.147   4.407  0.6694  2.2835  0.8454
 8431TIP3   OH246707   5.898   0.241   0.567  0.7237  0.1884 -0.3488
 8431TIP3    H146708   5.989   0.251   0.538  1.1693 -0.3145  0.8624
 8431TIP3    H246709   5.866   0.331   0.578  1.7263  0.3641  1.2288
 8432TIP3   OH246710   2.977   1.013   1.910 -0.0196 -0.2907  0.8336
 8432TIP3    H146711   2.976   1.098   1.955 -1.9159 -0.4131  1.0548
 8432TIP3    H246712   3.067   1.004   1.878 -0.0200  2.2127  0.0195
 8433TIP3   OH246713   3.685   6.379   1.911 -0.4152  0.5397  0.1063
 8433TIP3    H146714   3.742   6.412   1.841 -1.2414  1.2026 -0.2689
 8433TIP3    H246715   3.602   6.360   1.868 -0.1671 -1.3999  0.4641
 8434TIP3   OH246716   4.338   1.823  10.942  0.0409  0.1154 -0.3703
 8434TIP3    H146717   4.260   1.802  10.891  1.1650  1.9751 -2.9369
 8434TIP3    H246718   4.410   1.778  10.897  0.5059 -1.4672  1.8812
 8435TIP3   OH246719   2.571   6.033   2.397 -0.7746 -0.9265  0.2698
 8435TIP3    H146720   2.537   6.084   2.324  0.0352  0.0444  0.5500
 8435TIP3    H246721   2.663   6.061   2.405 -0.1336 -2.8630  0.0411
 8436TIP3   OH246722   3.802   1.140  14.680  0.2785 -0.7247  0.7944
 8436TIP3    H146723   3.874   1.180  14.728  0.5790  1.3453 -1.3043
 8436TIP3    H246724   3.726   1.196  14.700  0.3649  0.0319 -0.9255
 8437TIP3   OH246725   4.259   6.608  10.471  0.0081  0.5099 -0.1612
 8437TIP3    H146726   4.344   6.645  10.448 -0.0772  0.0388 -1.2794
 8437TIP3    H246727   4.242   6.543  10.403  0.2357 -1.7313  1.8611
 8438TIP3   OH246728   3.503   1.855  12.521 -0.8486  0.3244  0.1750
 8438TIP3    H146729   3.415   1.822  12.540 -0.4589  0.0603  1.5411
 8438TIP3    H246730   3.562   1.793  12.564 -0.0226  1.1771  0.2847
 8439TIP3   OH246731   5.607   4.233  15.415  0.7798 -0.6774  0.0650
 8439TIP3    H146732   5.595   4.306  15.475 -0.5689 -0.0172 -0.9768
 8439TIP3    H246733   5.648   4.272  15.337 -1.0000 -0.7895 -0.9583
 8440TIP3   OH246734   5.016   1.656   4.747 -0.3922  0.0443  0.2038
 8440TIP3    H146735   5.034   1.612   4.830 -1.4168 -0.9860 -0.1008
 8440TIP3    H246736   5.054   1.598   4.681  0.1027  0.6773 -0.0729
 8441TIP3   OH246737   1.766   5.440   0.576  0.4039 -0.4447 -0.0580
 8441TIP3    H146738   1.731   5.367   0.627 -2.2999  1.7711  1.3777
 8441TIP3    H246739   1.813   5.494   0.640  1.1454 -0.1414 -0.8438
 8442TIP3   OH246740   3.679   4.356   1.443  0.8669  0.0995  0.2314
 8442TIP3    H146741   3.711   4.443   1.418  1.5886 -0.1684  0.2029
 8442TIP3    H246742   3.740   4.296   1.400  0.1625 -0.4274 -0.0332
 8443TIP3   OH246743   2.702   5.517  15.443 -0.2899  0.4531 -0.1696
 8443TIP3    H146744   2.716   5.595  15.497 -0.1648  0.4801 -0.2400
 8443TIP3    H246745   2.607   5.505  15.442 -0.5726  2.6141 -2.9823
 8444TIP3   OH246746   0.982   0.831   2.311  0.1293 -0.3409  0.4901
 8444TIP3    H146747   1.017   0.896   2.372 -0.1436  0.0747  0.1960
 8444TIP3    H246748   0.930   0.772   2.367  1.3975 -1.0535  0.9591
 8445TIP3   OH246749   6.113   0.324   5.221  0.4557  0.1966 -0.4528
 8445TIP3    H146750   6.196   0.326   5.174  0.2503  1.6554 -0.7854
 8445TIP3    H246751   6.073   0.240   5.197  0.8002  0.4899 -2.0892
 8446TIP3   OH246752   5.198   1.441  14.217  0.1722  0.3328  0.2633
 8446TIP3    H146753   5.183   1.352  14.185 -1.4549  0.6863 -0.0076
 8446TIP3    H246754   5.268   1.433  14.281  0.6963 -1.0002 -0.4759
 8447TIP3   OH246755   2.366   3.632  10.732 -0.4598 -0.5039 -1.0339
 8447TIP3    H146756   2.304   3.623  10.805  0.3719  0.5755 -0.1702
 8447TIP3    H246757   2.326   3.697  10.674 -0.6718 -0.6524 -1.0554
 8448TIP3   OH246758   2.683   0.599  16.482 -0.3410 -0.7890 -0.0535
 8448TIP3    H146759   2.723   0.686  16.492 -0.8633 -0.2799 -2.2209
 8448TIP3    H246760   2.753   0.544  16.447 -0.3411 -0.9556  0.2071
 8449TIP3   OH246761   2.077   3.190  12.731  0.4119  0.7878 -0.0249
 8449TIP3    H146762   2.005   3.200  12.669 -0.3128 -2.4656  0.2419
 8449TIP3    H246763   2.046   3.236  12.810 -2.3099 -2.2766  0.7863
 8450TIP3   OH246764   3.970   3.946  10.267  0.3944  0.1422  0.7297
 8450TIP3    H146765   4.021   4.026  10.278  0.0911  0.4558 -0.1406
 8450TIP3    H246766   3.953   3.941  10.173  1.0458 -1.3376  0.6710
 8451TIP3   OH246767   3.526   0.001  11.133  0.2013  0.3578  0.0369
 8451TIP3    H146768   3.546   0.080  11.081 -0.4098  0.9973  0.7690
 8451TIP3    H246769   3.612  -0.031  11.161  0.4343  0.9912  0.0670
 8452TIP3   OH246770   5.071   1.206  13.510 -0.1023 -0.0663  0.2975
 8452TIP3    H146771   5.151   1.255  13.529 -0.8818  0.9228  1.1089
 8452TIP3    H246772   5.039   1.243  13.429 -0.0094 -0.1157  0.2375
 8453TIP3   OH246773   1.638   2.351   2.072  0.2793  0.7225  0.4019
 8453TIP3    H146774   1.632   2.258   2.095 -0.5800  0.6767 -0.0078
 8453TIP3    H246775   1.634   2.396   2.157 -0.2282  0.4261  0.5405
 8454TIP3   OH246776   5.536   5.559  10.947 -0.0041 -0.2061 -0.3118
 8454TIP3    H146777   5.480   5.482  10.933  2.1993 -1.9011 -0.0365
 8454TIP3    H246778   5.522   5.582  11.039  1.2086 -1.8346  0.3020
 8455TIP3   OH246779   2.388   5.023   0.262 -0.1876 -0.0294 -0.0397
 8455TIP3    H146780   2.340   4.945   0.232 -1.0972  0.2538  0.6606
 8455TIP3    H246781   2.460   5.032   0.199  0.7346 -2.2253  0.6345
 8456TIP3   OH246782   2.308   1.516  14.409  0.3879 -0.3372  0.5074
 8456TIP3    H146783   2.300   1.463  14.329 -1.0053 -0.2987  0.6197
 8456TIP3    H246784   2.396   1.496  14.441  0.1079 -2.1622  0.2340
 8457TIP3   OH246785   5.132   3.681   0.109  0.3249  0.0169  0.1140
 8457TIP3    H146786   5.160   3.769   0.082  1.5040  0.0452  1.4242
 8457TIP3    H246787   5.113   3.636   0.027  2.9313  0.4190 -0.7521
 8458TIP3   OH246788   3.452   6.479   1.140  0.2224  0.3897 -0.2672
 8458TIP3    H146789   3.411   6.550   1.189  0.6898  1.5265 -1.4974
 8458TIP3    H246790   3.414   6.484   1.052  2.5985  1.1841 -1.3017
 8459TIP3   OH246791   1.502   4.482   3.894 -0.1525 -0.5385 -0.0413
 8459TIP3    H146792   1.554   4.558   3.921  1.3169 -2.2924  2.1926
 8459TIP3    H246793   1.448   4.462   3.970 -0.2532 -1.9715 -0.4884
 8460TIP3   OH246794   1.972   0.149  13.713  0.6309 -0.0437 -0.2060
 8460TIP3    H146795   1.963   0.105  13.798  2.2634  2.5630  1.3898
 8460TIP3    H246796   2.063   0.134  13.688  0.0572 -1.1186 -1.7325
 8461TIP3   OH246797   1.394   5.465   5.688 -0.2152 -0.0057 -0.3406
 8461TIP3    H146798   1.460   5.465   5.619  1.1792 -0.5785  0.9539
 8461TIP3    H246799   1.444   5.474   5.769 -1.4811 -2.8470  0.8390
 8462TIP3   OH246800   4.708   5.222   1.378  0.0328  0.2197  0.2225
 8462TIP3    H146801   4.708   5.227   1.282  1.7998 -2.0022  0.0732
 8462TIP3    H246802   4.780   5.279   1.405 -0.5270  0.9231  0.2660
 8463TIP3   OH246803   0.754   3.419   0.940 -0.0487 -0.1128 -0.1523
 8463TIP3    H146804   0.784   3.417   0.849  0.0641  0.0515 -0.1205
 8463TIP3    H246805   0.796   3.497   0.977  0.0660 -0.2886  0.0943
 8464TIP3   OH246806   3.409   0.678  15.855  0.1922  0.3379 -0.3567
 8464TIP3    H146807   3.442   0.589  15.856  1.7883  0.8875 -1.6852
 8464TIP3    H246808   3.369   0.688  15.768  1.2600  1.3401 -0.7458
 8465TIP3   OH246809   3.588   4.647  10.687 -0.3090 -0.0075 -0.4497
 8465TIP3    H146810   3.514   4.663  10.745 -0.5886  0.6977 -1.0007
 8465TIP3    H246811   3.597   4.727  10.636 -0.1466 -0.6621 -1.4706
 8466TIP3   OH246812   5.712   0.333   5.177 -0.0789 -0.2703  1.2111
 8466TIP3    H146813   5.785   0.384   5.142  1.1239 -1.9250  1.2477
 8466TIP3    H246814   5.716   0.250   5.130 -3.0140  0.2228 -0.0315
 8467TIP3   OH246815   6.593   4.774   2.703  0.2401  0.4619 -0.1517
 8467TIP3    H146816   6.581   4.701   2.764 -1.3399  0.6128 -0.2763
 8467TIP3    H246817   6.590   4.852   2.757 -1.6058  0.6202 -0.4678
 8468TIP3   OH246818   3.655   4.828   2.764  0.0604  0.1666  0.2639
 8468TIP3    H146819   3.728   4.767   2.757 -1.1837 -1.4544  1.1025
 8468TIP3    H246820   3.577   4.773   2.760 -1.1312  1.8527 -0.4788
 8469TIP3   OH246821   2.577   1.257  15.366  0.1408  0.3611  0.0665
 8469TIP3    H146822   2.639   1.325  15.339 -1.9677  1.7108 -1.4813
 8469TIP3    H246823   2.561   1.206  15.287 -1.6787  0.8022  0.1243
 8470TIP3   OH246824   6.465   4.460   2.240  0.6336  0.3966 -0.2508
 8470TIP3    H146825   6.403   4.517   2.286 -0.4386 -1.5051  0.7253
 8470TIP3    H246826   6.482   4.506   2.157 -0.6612  1.8319  0.2377
 8471TIP3   OH246827   6.019   2.273  15.084  0.1876 -0.4223  0.3118
 8471TIP3    H146828   6.061   2.341  15.031 -0.6250  0.0265  0.2459
 8471TIP3    H246829   5.969   2.322  15.149  1.8538 -0.9526  2.0532
 8472TIP3   OH246830   5.231   0.354  13.916  0.1017  0.2373  0.0471
 8472TIP3    H146831   5.144   0.327  13.884 -1.2324  2.3458  1.7966
 8472TIP3    H246832   5.283   0.365  13.837 -1.7990  0.8255 -1.1629
 8473TIP3   OH246833   3.668   4.681  17.189  0.0798  0.6229  0.8313
 8473TIP3    H146834   3.739   4.701  17.249  0.0195  2.4975  0.3201
 8473TIP3    H246835   3.710   4.630  17.119  1.1144  2.4829  0.0757
 8474TIP3   OH246836   1.236   6.586   4.619 -0.1387 -0.7021  0.1953
 8474TIP3    H146837   1.269   6.634   4.543 -3.1700  0.3215 -0.5638
 8474TIP3    H246838   1.278   6.628   4.694  0.7057  0.1572 -0.7382
 8475TIP3   OH246839   3.974   4.043  13.432  0.5306 -0.1947  0.1320
 8475TIP3    H146840   3.939   3.976  13.373 -1.0813 -0.2071  1.0838
 8475TIP3    H246841   3.993   3.997  13.513 -0.0819  0.4023  0.6154
 8476TIP3   OH246842   4.111   4.148  15.371 -0.2250 -0.3053  0.0766
 8476TIP3    H146843   4.179   4.169  15.306 -0.5472  1.1730  0.2094
 8476TIP3    H246844   4.140   4.191  15.451 -0.7923 -0.5588  0.4207
 8477TIP3   OH246845   6.462   4.776  13.394  0.0922  0.6418 -0.6001
 8477TIP3    H146846   6.474   4.701  13.336  0.3216  0.7588 -0.7045
 8477TIP3    H246847   6.421   4.843  13.338  1.6870  1.2821 -1.0305
 8478TIP3   OH246848   1.850   5.552   4.077  0.4747 -0.2963  0.0408
 8478TIP3    H146849   1.802   5.474   4.048  1.0770 -0.1582 -1.3437
 8478TIP3    H246850   1.801   5.582   4.154 -1.1408 -0.6833 -0.8075
 8479TIP3   OH246851   0.850   1.655   0.766 -0.3250 -0.1826  0.1137
 8479TIP3    H146852   0.857   1.665   0.861 -0.0266  0.8329 -0.0017
 8479TIP3    H246853   0.912   1.719   0.731 -1.0541  0.0465 -0.7716
 8480TIP3   OH246854   3.592   1.777  15.205  0.0295  0.5498 -0.0836
 8480TIP3    H146855   3.661   1.735  15.154  0.8970  0.7090  0.9395
 8480TIP3    H246856   3.514   1.724  15.188  0.5505 -0.0257 -0.7289
 8481TIP3   OH246857   4.095   2.695  13.697  0.3840 -0.0097  0.0262
 8481TIP3    H146858   4.046   2.762  13.746 -2.2537 -1.3408 -0.7426
 8481TIP3    H246859   4.045   2.682  13.617  0.2431 -3.6787  0.6292
 8482TIP3   OH246860   2.300   0.740  13.287 -0.2703  0.8261  0.2848
 8482TIP3    H146861   2.283   0.648  13.264 -0.8840  1.1124 -0.4229
 8482TIP3    H246862   2.335   0.736  13.376  0.4881 -0.1610 -0.0491
 8483TIP3   OH246863   3.944   3.940   0.909 -0.0150 -0.0095  0.4134
 8483TIP3    H146864   4.017   3.881   0.890 -0.4547 -0.5433  0.3786
 8483TIP3    H246865   3.873   3.909   0.853 -0.5377 -0.0401  1.0874
 8484TIP3   OH246866   4.076   5.158   1.239 -0.1663 -0.1188  0.4809
 8484TIP3    H146867   4.126   5.200   1.309 -0.8294 -0.8897  1.4303
 8484TIP3    H246868   4.044   5.231   1.185  0.8038  0.4457  0.6519
 8485TIP3   OH246869   3.329   1.897  13.732  0.6431 -0.1574 -0.9254
 8485TIP3    H146870   3.263   1.961  13.761  0.8294 -0.6720  0.7126
 8485TIP3    H246871   3.335   1.910  13.638  0.2362  1.8347 -0.7103
 8486TIP3   OH246872   2.101   4.531  16.518 -0.0329 -0.3120 -0.4469
 8486TIP3    H146873   2.181   4.527  16.570  0.2575  0.0385 -0.8609
 8486TIP3    H246874   2.050   4.455  16.546  0.2051 -0.2299  0.2020
 8487TIP3   OH246875   5.108   0.563   2.686  0.5257  0.4730 -0.1623
 8487TIP3    H146876   5.015   0.580   2.703  0.0766  1.5889 -3.3040
 8487TIP3    H246877   5.154   0.617   2.749 -1.0006  3.2168 -1.2953
 8488TIP3   OH246878   4.189   1.935   3.640 -0.1428 -0.1609  0.1750
 8488TIP3    H146879   4.283   1.925   3.655 -0.2391 -1.7505 -0.1694
 8488TIP3    H246880   4.151   1.853   3.672 -1.2755 -0.0336 -0.8178
 8489TIP3   OH246881   2.918   6.011   1.717 -0.1021  0.2904  0.0533
 8489TIP3    H146882   2.890   5.938   1.661  1.7349 -1.0525  0.8209
 8489TIP3    H246883   2.916   6.088   1.660  0.8704 -0.8839 -1.6296
 8490TIP3   OH246884   4.477   3.825  11.020 -0.1418 -0.3653  0.1273
 8490TIP3    H146885   4.434   3.832  10.935  0.7763  2.0646 -0.1772
 8490TIP3    H246886   4.427   3.883  11.077 -0.7375 -1.9629  1.2684
 8491TIP3   OH246887   4.583   2.958   5.978 -0.4335  0.4942  0.2088
 8491TIP3    H146888   4.657   3.005   6.017  0.1114  2.1028 -2.5794
 8491TIP3    H246889   4.507   3.011   6.000 -0.4801 -0.0196  1.2926
 8492TIP3   OH246890   3.929   6.516   4.119 -0.3218 -0.0083 -0.4315
 8492TIP3    H146891   3.885   6.500   4.035  0.4438 -0.1079 -0.8192
 8492TIP3    H246892   3.879   6.465   4.182 -0.9286  0.0981 -0.8258
 8493TIP3   OH246893   4.659   3.469   0.549  0.0384  0.0599 -0.1905
 8493TIP3    H146894   4.720   3.395   0.542  0.1965  0.0796  0.9160
 8493TIP3    H246895   4.576   3.429   0.578  0.4693  0.4669  1.6513
 8494TIP3   OH246896   3.159   2.679  12.556  0.0061 -0.4219  0.6223
 8494TIP3    H146897   3.240   2.718  12.586  0.5865  0.4989 -2.0829
 8494TIP3    H246898   3.090   2.726  12.603  0.8973  0.7359  0.7624
 8495TIP3   OH246899   5.527   4.764  12.641 -0.6656 -0.0070  0.8203
 8495TIP3    H146900   5.593   4.748  12.708 -0.8302 -0.0404  0.9783
 8495TIP3    H246901   5.479   4.681  12.635 -1.9044  0.5913  2.0624
 8496TIP3   OH246902   4.852   6.713   0.587  0.0941 -0.2941 -0.3203
 8496TIP3    H146903   4.849   6.693   0.680  2.2423 -0.0581 -0.1934
 8496TIP3    H246904   4.773   6.766   0.572  0.2414  0.4911  1.5522
 8497TIP3   OH246905   4.643   6.137   3.600 -0.3380  0.8649 -0.1557
 8497TIP3    H146906   4.733   6.168   3.607  0.7389 -0.9831 -4.4164
 8497TIP3    H246907   4.640   6.058   3.654  0.9756  0.2800 -0.9153
 8498TIP3   OH246908   6.462   0.365  14.582 -0.6318 -0.2455  0.2871
 8498TIP3    H146909   6.557   0.356  14.579 -0.8667 -3.3980  1.1443
 8498TIP3    H246910   6.445   0.412  14.664  0.1381 -0.0454  0.3371
 8499TIP3   OH246911   4.929   3.578  11.281  0.0129 -0.1612  0.2579
 8499TIP3    H146912   4.984   3.539  11.213 -0.9631 -0.1432 -0.5561
 8499TIP3    H246913   4.990   3.625  11.338  1.0878 -1.8777  0.5867
 8500TIP3   OH246914   0.654   4.056   0.667 -0.5107 -0.1733 -0.1739
 8500TIP3    H146915   0.676   4.148   0.654 -0.1166 -0.1902  0.3295
 8500TIP3    H246916   0.728   4.020   0.716 -0.9417 -0.6097  0.1692
 8501TIP3   OH246917   2.514   4.545  16.085  0.0591  0.4201  0.3126
 8501TIP3    H146918   2.478   4.558  15.998 -0.5791 -2.3286  0.1343
 8501TIP3    H246919   2.608   4.565  16.075 -0.0548  0.3583 -0.9297
 8502TIP3   OH246920   0.750   5.879  15.060 -0.3270  0.4993 -0.5436
 8502TIP3    H146921   0.742   5.812  14.992  1.7166 -0.6939  0.3435
 8502TIP3    H246922   0.746   5.830  15.142  0.9117  1.4813  0.1172
 8503TIP3   OH246923   4.045   3.513   4.513  0.0330  0.5912 -0.0750
 8503TIP3    H146924   3.990   3.442   4.544  0.2459 -1.1721 -3.4749
 8503TIP3    H246925   4.132   3.492   4.547  0.0483 -0.7016 -0.8632
 8504TIP3   OH246926   6.380   6.263  15.966 -0.4490 -0.0088  0.1451
 8504TIP3    H146927   6.382   6.167  15.972 -0.0875 -0.0998 -1.2498
 8504TIP3    H246928   6.287   6.286  15.966 -0.5549 -0.4314 -0.5176
 8505TIP3   OH246929   4.926   1.349  14.769 -0.5140 -0.2069 -0.3412
 8505TIP3    H146930   4.868   1.277  14.794 -0.3280 -0.4692 -0.6647
 8505TIP3    H246931   5.012   1.323  14.802 -0.8603  0.8918  1.5153
 8506TIP3   OH246932   0.779   0.508   6.069 -0.9373 -0.5636 -0.4299
 8506TIP3    H146933   0.798   0.588   6.117 -1.2027  0.3391 -1.7872
 8506TIP3    H246934   0.826   0.439   6.116 -0.4220  0.4513  0.5423
 8507TIP3   OH246935   4.132   2.139  11.280  0.2559 -0.2846 -0.0658
 8507TIP3    H146936   4.195   2.091  11.227 -0.1805 -1.5248  0.5154
 8507TIP3    H246937   4.048   2.126  11.236 -0.1249 -1.4087  0.9806
 8508TIP3   OH246938   5.730   1.131  12.038  0.5622  0.2517 -0.6618
 8508TIP3    H146939   5.738   1.155  11.946 -0.7446 -0.1141 -0.8840
 8508TIP3    H246940   5.636   1.120  12.052  0.6598  1.3634  0.9946
 8509TIP3   OH246941   0.960   4.019  16.301  0.1796 -0.6522 -0.6886
 8509TIP3    H146942   0.899   3.951  16.273  0.4905 -2.8035  3.4676
 8509TIP3    H246943   1.044   3.994  16.263 -0.6613  0.1574 -3.1722
 8510TIP3   OH246944   2.756   0.365   4.544  0.4846  0.4858  0.6526
 8510TIP3    H146945   2.803   0.448   4.544  0.6898  0.3733  0.1074
 8510TIP3    H246946   2.664   0.389   4.552  0.3099  0.9099 -2.1957
 8511TIP3   OH246947   3.137   0.493   1.795  0.5040 -0.1512  0.0947
 8511TIP3    H146948   3.202   0.562   1.788  0.8342 -0.3748  0.8067
 8511TIP3    H246949   3.184   0.421   1.839 -0.2345 -0.2889  0.6675
 8512TIP3   OH246950   6.298   2.531  11.763  0.5104  0.3253  0.1040
 8512TIP3    H146951   6.215   2.539  11.718  1.7599  0.5834 -2.2325
 8512TIP3    H246952   6.301   2.606  11.822 -1.2223 -0.1019  0.7594
 8513TIP3   OH246953   3.305   1.551  14.322  0.5858 -0.1018 -0.2128
 8513TIP3    H146954   3.275   1.572  14.410  0.8078 -0.4049 -0.0637
 8513TIP3    H246955   3.287   1.630  14.271  1.3877  0.4341  0.3320
 8514TIP3   OH246956   5.327   6.108  11.311 -0.1311 -0.2546 -0.1303
 8514TIP3    H146957   5.326   6.200  11.286 -1.1693  0.0079  0.8194
 8514TIP3    H246958   5.241   6.075  11.284  0.8109 -1.3713 -1.9190
 8515TIP3   OH246959   0.144   3.885   5.210  0.1775 -0.1049 -0.0695
 8515TIP3    H146960   0.123   3.978   5.219 -1.6086 -0.5763  0.8256
 8515TIP3    H246961   0.154   3.854   5.300  0.3737 -0.8661 -0.3514
 8516TIP3   OH246962   1.612   2.423  10.791 -0.5475  0.2776 -0.4282
 8516TIP3    H146963   1.641   2.375  10.869  0.0429 -1.5167 -1.7371
 8516TIP3    H246964   1.689   2.470  10.761 -0.4046 -0.2092 -0.8060
 8517TIP3   OH246965   6.717   1.816   6.536  0.2660 -0.1731  0.0377
 8517TIP3    H146966   6.678   1.731   6.517  2.1263 -0.8527 -0.8266
 8517TIP3    H246967   6.761   1.804   6.621  1.4024 -0.3853 -0.5747
 8518TIP3   OH246968   4.514   6.170  11.980  0.0700 -0.6373  0.0408
 8518TIP3    H146969   4.548   6.135  12.063  0.5662 -0.4867 -0.1006
 8518TIP3    H246970   4.446   6.232  12.007  0.5731 -0.2199  0.3518
 8519TIP3   OH246971   3.900   5.099  13.746 -0.1161  0.0213 -0.2153
 8519TIP3    H146972   3.844   5.125  13.674  1.1312 -0.1477 -1.2668
 8519TIP3    H246973   3.892   5.004  13.751  0.7047 -0.0854 -0.8981
 8520TIP3   OH246974   1.839   6.347   1.917  0.3911 -0.1192 -0.4451
 8520TIP3    H146975   1.909   6.391   1.868 -1.7903  0.4967 -3.1182
 8520TIP3    H246976   1.885   6.300   1.987  3.2597  2.1329 -0.7073
 8521TIP3   OH246977   3.734   4.919  10.992 -0.7987 -0.1801  0.1135
 8521TIP3    H146978   3.768   4.862  10.924 -1.0725  1.1314 -1.1522
 8521TIP3    H246979   3.738   5.007  10.954 -2.2521  0.4094  1.2596
 8522TIP3   OH246980   3.647   6.269  11.675  0.2480  0.1019  0.1685
 8522TIP3    H146981   3.627   6.326  11.600  2.6760 -0.3160 -0.8189
 8522TIP3    H246982   3.630   6.180  11.643  1.2923 -0.0766  0.0882
 8523TIP3   OH246983   3.670   6.098   3.636  0.2333 -0.0898  0.1572
 8523TIP3    H146984   3.704   6.162   3.698 -0.0888 -1.0658  1.3576
 8523TIP3    H246985   3.729   6.104   3.561  0.0128  1.8231  0.1205
 8524TIP3   OH246986   6.584   6.732   5.473  0.0969 -0.0907 -0.1520
 8524TIP3    H146987   6.526   6.699   5.405  0.5423  0.0644 -0.6141
 8524TIP3    H246988   6.669   6.741   5.429  0.9807 -2.2742  1.0417
 8525TIP3   OH246989   3.032   4.266   4.060  0.1062  0.3757  0.4478
 8525TIP3    H146990   3.095   4.211   4.106 -1.0045  0.6743  2.3612
 8525TIP3    H246991   2.947   4.227   4.079 -0.3997  0.5825 -1.2708
 8526TIP3   OH246992   2.562   4.126  14.037 -0.1688 -0.1874 -0.2039
 8526TIP3    H146993   2.507   4.048  14.037  1.3464 -1.2827 -0.2167
 8526TIP3    H246994   2.506   4.195  14.073 -1.9173 -0.9828 -1.3502
 8527TIP3   OH246995   5.906   3.692  16.262  0.2487 -0.4674 -0.7313
 8527TIP3    H146996   5.820   3.703  16.220  0.5193 -0.4243 -1.2779
 8527TIP3    H246997   5.946   3.619  16.215  1.6885  1.3437 -2.4109
 8528TIP3   OH246998   2.565   3.359  11.217 -0.2882  0.5771  0.1039
 8528TIP3    H146999   2.640   3.416  11.233  1.3614 -0.9802 -1.8402
 8528TIP3    H247000   2.596   3.271  11.238 -1.2550 -0.2032 -1.5899
 8529TIP3   OH247001   6.271   6.392   4.431  0.5231 -0.3547  0.3534
 8529TIP3    H147002   6.230   6.472   4.397  0.3064 -0.7362 -0.2897
 8529TIP3    H247003   6.357   6.420   4.462  0.2392  0.2295  0.6159
 8530TIP3   OH247004   0.925   1.091   4.288 -0.4423  0.1243 -0.2422
 8530TIP3    H147005   0.949   1.000   4.273  0.3435  0.4920 -1.2742
 8530TIP3    H247006   0.841   1.087   4.333 -0.3656 -1.1084 -0.2076
 8531TIP3   OH247007   1.099   6.617  12.136  0.3081 -0.3760 -0.2389
 8531TIP3    H147008   1.049   6.587  12.061 -0.5662 -0.1811  0.2556
 8531TIP3    H247009   1.033   6.649  12.198  0.9686 -1.0654  0.8485
 8532TIP3   OH247010   5.068   2.001  11.690  0.1548 -0.9726 -0.6516
 8532TIP3    H147011   4.994   1.961  11.736  0.1779  0.2476  0.5066
 8532TIP3    H247012   5.034   2.020  11.602 -1.9148  2.2428  0.7243
 8533TIP3   OH247013   3.978   5.779   2.933  0.4145 -0.0855  0.3125
 8533TIP3    H147014   3.887   5.782   2.964  1.7497  0.0029  4.4178
 8533TIP3    H247015   3.995   5.686   2.918 -0.0722 -0.1828  0.3352
 8534TIP3   OH247016   1.000   2.697  12.991  0.5964  0.2713  0.2324
 8534TIP3    H147017   0.929   2.756  12.967  1.0094  0.8874  0.5204
 8534TIP3    H247018   0.978   2.614  12.948 -0.5627  0.3072  0.7468
 8535TIP3   OH247019   6.189   3.470   1.008 -0.0439 -0.4709  0.3044
 8535TIP3    H147020   6.223   3.538   0.950  0.0558 -0.0718  0.8221
 8535TIP3    H247021   6.267   3.433   1.049 -0.3013  2.3169  3.5847
 8536TIP3   OH247022   4.346   0.880   6.046  0.0663  0.3015 -0.2207
 8536TIP3    H147023   4.403   0.956   6.060 -1.2781  1.2183  0.4171
 8536TIP3    H247024   4.310   0.861   6.132 -0.3496 -0.4726 -0.5638
 8537TIP3   OH247025   2.663   3.808  12.493  0.2316  0.6805 -0.2793
 8537TIP3    H147026   2.748   3.783  12.530 -0.4129 -0.5199  0.4076
 8537TIP3    H247027   2.630   3.729  12.453 -0.3820  1.2608 -0.9233
 8538TIP3   OH247028   3.868   0.406   2.570 -0.1082 -0.0909  0.5796
 8538TIP3    H147029   3.881   0.501   2.569  0.5754 -0.1842  0.2257
 8538TIP3    H247030   3.957   0.370   2.568 -0.3560 -0.7386  0.9670
 8539TIP3   OH247031   4.120   0.166   0.827  0.2955  0.3083  0.3901
 8539TIP3    H147032   4.035   0.171   0.870  0.0213  0.9513 -0.2239
 8539TIP3    H247033   4.099   0.161   0.734  0.9431  0.7751  0.2210
 8540TIP3   OH247034   1.945   4.976  14.710 -0.5428  0.5751  0.0722
 8540TIP3    H147035   1.972   5.032  14.638 -2.2151 -1.3656 -2.1803
 8540TIP3    H247036   1.855   5.004  14.730 -1.0590 -0.6576 -0.4582
 8541TIP3   OH247037   1.911   4.490  11.851  0.0554  0.1856  0.0118
 8541TIP3    H147038   1.960   4.510  11.772 -0.8071  0.8316 -0.3650
 8541TIP3    H247039   1.905   4.573  11.898  0.2226 -0.1123  0.5684
 8542TIP3   OH247040   0.674   0.845  11.773  0.5117  0.6066 -0.5435
 8542TIP3    H147041   0.652   0.916  11.712  1.2040  0.2841 -1.1767
 8542TIP3    H247042   0.666   0.885  11.859  1.5096  1.6654 -0.9142
 8543TIP3   OH247043   3.207   4.389  17.103  0.4501 -0.0123  0.3984
 8543TIP3    H147044   3.175   4.415  17.189  1.5820 -0.4274  0.9590
 8543TIP3    H247045   3.262   4.312  17.120  0.2526 -0.4193 -0.7591
 8544TIP3   OH247046   3.419   2.467   3.301 -0.3282  0.4406 -0.0340
 8544TIP3    H147047   3.435   2.373   3.293  0.4346  0.4601  1.1852
 8544TIP3    H247048   3.423   2.500   3.211 -0.1217 -0.6126 -0.4166
 8545TIP3   OH247049   3.658   2.581  12.842  0.3480 -0.4314 -0.4852
 8545TIP3    H147050   3.604   2.533  12.904 -0.1819  0.2251 -0.4285
 8545TIP3    H247051   3.710   2.514  12.798 -0.2518 -1.0324 -0.2809
 8546TIP3   OH247052   6.699   3.286  11.339  0.2327  0.2522 -0.1416
 8546TIP3    H147053   6.711   3.262  11.431 -0.6498 -1.1838 -0.3894
 8546TIP3    H247054   6.727   3.377  11.335 -0.3445  0.5468  1.7048
 8547TIP3   OH247055   4.449   1.761  15.725 -0.4381 -0.1002 -0.0964
 8547TIP3    H147056   4.479   1.692  15.785 -0.0079  0.4074  0.2813
 8547TIP3    H247057   4.354   1.756  15.729 -0.4514  1.2493  2.2033
 8548TIP3   OH247058   5.364   2.989   2.890  0.5926  0.1227 -0.3671
 8548TIP3    H147059   5.372   3.028   2.977 -1.9446  2.2675 -1.0220
 8548TIP3    H247060   5.281   3.022   2.856  1.1524 -1.2810 -3.3145
 8549TIP3   OH247061   4.167   1.964   6.643  0.0737  0.3053  0.6912
 8549TIP3    H147062   4.262   1.979   6.652  0.6990 -3.3764  0.8678
 8549TIP3    H247063   4.129   2.001   6.722  1.4905  0.6623  1.2189
 8550TIP3   OH247064   3.567   6.753  16.399 -0.2418  0.6532 -0.2382
 8550TIP3    H147065   3.548   6.844  16.374  0.8076  0.6690 -1.0661
 8550TIP3    H247066   3.625   6.722  16.329 -0.5681 -0.6436  0.0677
 8551TIP3   OH247067   2.653   4.249   5.670  0.0143  0.6223  0.2114
 8551TIP3    H147068   2.610   4.166   5.648 -1.4876  1.3957  0.1056
 8551TIP3    H247069   2.604   4.315   5.621  0.2152  1.7437  1.4650
 8552TIP3   OH247070   6.322   2.030  15.860 -0.1024 -0.0474  0.7151
 8552TIP3    H147071   6.411   2.003  15.884 -0.3069 -1.5727 -0.2054
 8552TIP3    H247072   6.272   2.022  15.942 -0.0758 -2.1412  0.5461
 8553TIP3   OH247073   4.985   0.704   0.354  0.2397 -0.1524 -0.2584
 8553TIP3    H147074   4.936   0.712   0.272  0.0823  0.0587 -0.1438
 8553TIP3    H247075   4.922   0.671   0.417  0.4653 -0.7028 -0.3224
 8554TIP3   OH247076   0.172   3.156  15.490 -0.4558 -0.3920 -0.6598
 8554TIP3    H147077   0.184   3.064  15.466  0.5480 -1.5030  3.6799
 8554TIP3    H247078   0.259   3.186  15.517 -0.9875  1.5660 -1.0012
 8555TIP3   OH247079   3.216   4.773  12.465 -0.1024 -0.1987 -0.0550
 8555TIP3    H147080   3.145   4.830  12.435  1.1407  0.7246 -1.2965
 8555TIP3    H247081   3.254   4.820  12.539 -0.2964 -0.3395  0.1356
 8556TIP3   OH247082   3.980   3.871  11.449 -0.5202  0.0865  0.7357
 8556TIP3    H147083   4.038   3.823  11.391 -1.4789  1.2493 -1.2522
 8556TIP3    H247084   4.036   3.933  11.494 -0.3183  2.0699 -2.0940
 8557TIP3   OH247085   4.226   2.789  16.268 -0.1302  0.6060 -0.0865
 8557TIP3    H147086   4.263   2.704  16.243 -0.9334  0.9196 -2.4597
 8557TIP3    H247087   4.262   2.806  16.355  1.6053 -1.2456 -0.4024
 8558TIP3   OH247088   2.858   5.827  15.984 -0.1961  0.3689  0.1466
 8558TIP3    H147089   2.833   5.735  15.974 -2.0040  0.5689  2.5175
 8558TIP3    H247090   2.942   5.824  16.031  0.2823 -0.0722 -0.7162
 8559TIP3   OH247091   0.631   5.497  11.724  0.3107  0.4561  0.1056
 8559TIP3    H147092   0.706   5.440  11.741  1.6960  1.6533 -1.7916
 8559TIP3    H247093   0.562   5.437  11.694  0.7229 -0.5742  1.1673
 8560TIP3   OH247094   2.069   0.017  16.565  0.5611  0.4745 -0.4710
 8560TIP3    H147095   2.030  -0.020  16.645  0.8513  0.7844 -0.1804
 8560TIP3    H247096   2.000   0.009  16.499  0.4650 -0.1747 -0.2984
 8561TIP3   OH247097   5.291   2.808  14.335  0.3195 -0.3561 -0.3425
 8561TIP3    H147098   5.333   2.758  14.405  0.3974 -0.8666 -0.7492
 8561TIP3    H247099   5.284   2.897  14.370  2.8476  0.0293 -0.6914
 8562TIP3   OH247100   1.217   5.818   0.008  0.4287 -0.1963 -0.4887
 8562TIP3    H147101   1.307   5.801   0.034  0.4842  0.6956 -0.0938
 8562TIP3    H247102   1.224   5.887  -0.057 -0.1605  1.7940  1.5066
 8563TIP3   OH247103   1.633   6.433   0.916 -0.2539 -0.7311  0.1125
 8563TIP3    H147104   1.590   6.498   0.972  0.6910 -0.1244  0.1390
 8563TIP3    H247105   1.588   6.440   0.832  1.4062  1.6537 -0.6291
 8564TIP3   OH247106   0.751   6.329  13.308 -1.1173  0.1972  0.3008
 8564TIP3    H147107   0.778   6.303  13.220 -1.3580  2.2373 -0.4148
 8564TIP3    H247108   0.819   6.295  13.366 -1.7380 -2.4767 -0.4769
 8565TIP3   OH247109   4.552   5.449  11.559 -0.0430 -0.0630  0.1935
 8565TIP3    H147110   4.458   5.464  11.568 -0.3390  0.2153 -2.8228
 8565TIP3    H247111   4.582   5.521  11.504  2.0215  0.0642  1.4576
 8566TIP3   OH247112   2.195   5.874   3.773  0.1985 -0.4354 -0.0687
 8566TIP3    H147113   2.287   5.880   3.799  0.5317 -0.3819 -1.2118
 8566TIP3    H247114   2.158   5.807   3.830  1.2314 -1.2591 -0.3478
 8567TIP3   OH247115   3.573   6.726   0.005 -0.6332 -0.6380  0.0493
 8567TIP3    H147116   3.494   6.779  -0.007 -0.1927 -0.0731 -0.4198
 8567TIP3    H247117   3.610   6.718  -0.083  0.5154  0.1846  0.4440
 8568TIP3   OH247118   6.320   2.453   3.230  0.6924  0.2606  0.3434
 8568TIP3    H147119   6.314   2.359   3.245  1.5878  0.1311 -0.0809
 8568TIP3    H247120   6.375   2.486   3.301  1.2904  0.2904 -0.1209
 8569TIP3   OH247121   4.302   6.088   5.510  0.2084  0.1050  0.0043
 8569TIP3    H147122   4.296   6.021   5.578  2.4542  0.0786  0.2268
 8569TIP3    H247123   4.239   6.060   5.444 -0.8343 -0.7553  1.3342
 8570TIP3   OH247124   4.054   3.466  14.070  0.7043  0.3197 -0.1722
 8570TIP3    H147125   4.049   3.442  14.162 -0.8891 -2.1488 -0.8398
 8570TIP3    H247126   4.127   3.415  14.035  1.7231  1.7359 -0.1812
 8571TIP3   OH247127   5.331   5.821   3.920 -0.0299 -0.2381 -0.2885
 8571TIP3    H147128   5.366   5.781   3.840  0.3724 -1.3508  0.4298
 8571TIP3    H247129   5.409   5.837   3.974 -0.6472 -3.7826  1.7993
 8572TIP3   OH247130   3.476   2.725   0.811  0.0949  0.2509 -0.1523
 8572TIP3    H147131   3.393   2.687   0.838  1.3647 -2.5810 -0.1475
 8572TIP3    H247132   3.461   2.752   0.720 -0.3876 -1.5993 -0.6362
 8573TIP3   OH247133   6.503   5.503   2.528  0.0702  0.1102 -0.4602
 8573TIP3    H147134   6.517   5.485   2.435  1.6954 -0.7392 -0.0674
 8573TIP3    H247135   6.453   5.428   2.560  1.8843 -0.9355 -0.0614
 8574TIP3   OH247136   5.158   6.145   5.742 -0.3831 -0.2917  0.3863
 8574TIP3    H147137   5.192   6.058   5.722  0.3899  0.1203 -0.1286
 8574TIP3    H247138   5.213   6.177   5.814  0.4882  0.4607 -0.5902
 8575TIP3   OH247139   4.104   4.372  16.142  0.2950 -0.5000 -0.0827
 8575TIP3    H147140   4.018   4.360  16.182  0.5151 -2.3486 -0.1138
 8575TIP3    H247141   4.140   4.450  16.184 -0.9654 -0.3114  0.6702
 8576TIP3   OH247142   1.690   4.605   2.069 -0.5075 -0.0801  0.3565
 8576TIP3    H147143   1.707   4.520   2.027  0.6652  0.7634 -0.9391
 8576TIP3    H247144   1.680   4.666   1.996  1.5072  1.4128  1.2766
 8577TIP3   OH247145   3.215   6.188  12.246  0.2112  0.3759 -0.5390
 8577TIP3    H147146   3.161   6.253  12.201 -0.8504 -0.2386 -0.1596
 8577TIP3    H247147   3.207   6.109  12.194  0.6375  0.2383 -0.3999
 8578TIP3   OH247148   4.109   3.880  13.945  0.2387 -0.8977  0.1225
 8578TIP3    H147149   4.189   3.932  13.949  0.4328 -1.1994  0.1468
 8578TIP3    H247150   4.074   3.897  13.857  0.9999 -1.7576 -0.3527
 8579TIP3   OH247151   2.907   6.545   3.891  0.2527  0.1123 -0.0869
 8579TIP3    H147152   2.879   6.615   3.832 -4.7953 -1.9855 -0.4426
 8579TIP3    H247153   2.850   6.555   3.968  1.6066 -1.7200  1.1781
 8580TIP3   OH247154   3.940   1.647  10.764 -0.0558  0.7903  0.4307
 8580TIP3    H147155   3.891   1.666  10.685  0.6014  2.9161  0.5155
 8580TIP3    H247156   4.012   1.709  10.764 -0.2547  1.0812  2.8867
 8581TIP3   OH247157   6.100   3.315   0.721 -0.1700 -0.4763  0.4005
 8581TIP3    H147158   6.020   3.344   0.764 -0.3757  1.2782 -1.0678
 8581TIP3    H247159   6.134   3.394   0.679  1.0619 -1.6909 -0.9545
 8582TIP3   OH247160   1.950   1.645   5.412  0.1294 -0.2854  0.1164
 8582TIP3    H147161   1.928   1.577   5.349 -2.9901  0.0415  0.7734
 8582TIP3    H247162   2.038   1.673   5.387  0.1340 -2.2126 -2.2375
 8583TIP3   OH247163   4.070   0.753   1.235 -0.0866 -0.2070  0.2855
 8583TIP3    H147164   4.151   0.790   1.268  0.7608 -0.9630 -0.9303
 8583TIP3    H247165   4.040   0.695   1.306  1.3121 -1.2141  0.0738
 8584TIP3   OH247166   5.312   2.145   4.694  0.3503  0.2582  0.5400
 8584TIP3    H147167   5.350   2.064   4.726  2.9177  1.2108 -0.0180
 8584TIP3    H247168   5.386   2.204   4.683 -1.5123  2.8990  1.5261
 8585TIP3   OH247169   5.051   5.224   3.655 -0.1047 -0.0145  0.2307
 8585TIP3    H147170   5.041   5.145   3.708  0.8747  0.1381  0.6601
 8585TIP3    H247171   5.001   5.206   3.575  1.0431 -1.5465 -0.1767
 8586TIP3   OH247172   0.649   6.771  15.760  0.7433 -0.2662  0.5848
 8586TIP3    H147173   0.641   6.861  15.793 -2.0000 -0.0086 -0.6385
 8586TIP3    H247174   0.654   6.781  15.665 -1.3009 -1.4442  0.3245
 8587TIP3   OH247175   1.959   1.967  11.657  0.0428  0.0663 -0.2120
 8587TIP3    H147176   1.964   1.874  11.680 -0.6326 -0.1949 -1.1026
 8587TIP3    H247177   2.016   1.976  11.580  0.6511  0.5245  0.2923
 8588TIP3   OH247178   6.136   5.058  11.364  0.1523  0.3827  0.3949
 8588TIP3    H147179   6.099   4.981  11.321  1.8513 -0.8631  1.1123
 8588TIP3    H247180   6.060   5.112  11.385 -0.9766 -0.5628 -1.1172
 8589TIP3   OH247181   2.464   3.596  16.529 -0.1806 -0.1319 -0.2227
 8589TIP3    H147182   2.455   3.504  16.555 -0.7699  0.0888  0.3595
 8589TIP3    H247183   2.512   3.636  16.602  1.9103 -0.4081 -1.3987
 8590TIP3   OH247184   0.677   2.738  14.854 -0.0395  0.1120 -0.1643
 8590TIP3    H147185   0.680   2.774  14.766 -1.3728  0.8736  0.0902
 8590TIP3    H247186   0.595   2.688  14.857 -0.3158  0.6215  0.8443
 8591TIP3   OH247187   5.603   1.187  15.142 -0.2587  0.3400  0.1526
 8591TIP3    H147188   5.657   1.152  15.071 -2.3900  0.3919 -1.5288
 8591TIP3    H247189   5.630   1.278  15.150  0.5180  0.1380 -0.0341
 8592TIP3   OH247190   6.021   5.590  11.084 -0.0606 -0.2121  0.1530
 8592TIP3    H147191   5.981   5.677  11.089 -0.5182 -0.2389 -2.2173
 8592TIP3    H247192   6.099   5.603  11.031 -0.1243 -1.2388 -0.1970
 8593TIP3   OH247193   2.788   0.182   2.800 -0.0275 -0.4862 -0.0006
 8593TIP3    H147194   2.830   0.167   2.716  2.1007 -1.5361  1.2100
 8593TIP3    H247195   2.858   0.174   2.864 -1.1846  2.4033  1.7524
 8594TIP3   OH247196   3.415   4.866   6.176 -0.1992 -0.2466  0.0175
 8594TIP3    H147197   3.437   4.917   6.097  0.5420  0.6034  0.7637
 8594TIP3    H247198   3.500   4.837   6.210 -0.3055  1.5177  1.8943
 8595TIP3   OH247199   1.028   2.253  12.307  0.2906  0.3954  0.8415
 8595TIP3    H147200   1.116   2.241  12.341  1.3321  0.2048 -1.8268
 8595TIP3    H247201   1.040   2.305  12.228 -1.7729 -1.3879 -0.6920
 8596TIP3   OH247202   2.846   0.485   0.998 -0.8500 -0.1599  0.1843
 8596TIP3    H147203   2.862   0.446   0.912  1.0274 -2.9426  1.7322
 8596TIP3    H247204   2.921   0.544   1.012 -0.1520 -1.1668  0.7156
 8597TIP3   OH247205   4.476   3.547  15.065  0.2218 -0.3503 -0.1101
 8597TIP3    H147206   4.564   3.521  15.038  0.9239  0.8942  0.9168
 8597TIP3    H247207   4.488   3.583  15.153 -0.9577  1.9194 -0.8525
 8598TIP3   OH247208   1.943   5.757  13.889 -0.3110  0.2185 -0.3136
 8598TIP3    H147209   1.945   5.846  13.854 -0.3849  0.2347 -0.2792
 8598TIP3    H247210   1.911   5.767  13.979 -2.0435 -0.0284 -0.8882
 8599TIP3   OH247211   0.703   3.243   6.449  0.3687 -0.2674  0.0674
 8599TIP3    H147212   0.738   3.221   6.535  0.6839 -0.5986 -0.1401
 8599TIP3    H247213   0.781   3.250   6.393  0.1270 -0.7242 -0.3318
 8600TIP3   OH247214   6.072   6.200   4.513 -0.1064  0.0533 -0.4101
 8600TIP3    H147215   6.044   6.149   4.589 -0.0481 -2.3757 -1.9542
 8600TIP3    H247216   6.155   6.240   4.540 -0.2176 -0.5556  0.8861
 8601TIP3   OH247217   5.362   6.639   3.091  0.2204  0.0616 -0.4288
 8601TIP3    H147218   5.421   6.677   3.026 -1.1829 -0.4584 -2.0418
 8601TIP3    H247219   5.304   6.582   3.041 -1.8610  0.7903  1.0809
 8602TIP3   OH247220   1.656   3.483   1.502 -0.4694  0.2219 -0.0639
 8602TIP3    H147221   1.600   3.510   1.575  0.8555  1.7121  0.4425
 8602TIP3    H247222   1.745   3.491   1.536  0.2166  1.9300 -2.1198
 8603TIP3   OH247223   2.111   0.222   3.953 -0.0368 -0.1450 -0.2041
 8603TIP3    H147224   2.198   0.253   3.978 -0.3078 -0.8724  1.7626
 8603TIP3    H247225   2.127   0.134   3.918 -0.0025 -0.3709  0.3742
 8604TIP3   OH247226   0.102   4.869  11.954 -0.3281 -0.3358 -0.3340
 8604TIP3    H147227   0.144   4.892  12.037  2.0788  0.1734 -1.6690
 8604TIP3    H247228   0.173   4.868  11.890 -1.9572 -1.9456 -2.1744
 8605TIP3   OH247229   3.802   1.573   5.821  0.0535  0.0319 -0.0544
 8605TIP3    H147230   3.753   1.636   5.768  0.0294  1.3373  1.4838
 8605TIP3    H247231   3.893   1.603   5.814  0.3094 -0.9006 -0.8586
 8606TIP3   OH247232   4.742   3.502   1.548 -0.0175 -0.3621  0.1697
 8606TIP3    H147233   4.757   3.581   1.599  1.9686  0.1645 -1.1910
 8606TIP3    H247234   4.717   3.534   1.461 -1.3258 -1.2501  0.1919
 8607TIP3   OH247235   4.471   4.642   4.905  0.1877  0.4056  0.0674
 8607TIP3    H147236   4.486   4.690   4.823 -0.5481 -0.5555 -0.6346
 8607TIP3    H247237   4.457   4.711   4.970 -0.0690  1.1723 -0.7832
 8608TIP3   OH247238   6.450   3.016   4.293 -0.3635  0.1155 -0.4621
 8608TIP3    H147239   6.513   3.043   4.226  0.5463 -1.3876 -0.2484
 8608TIP3    H247240   6.495   3.029   4.376 -0.9708  0.6294 -0.2042
 8609TIP3   OH247241   4.330   5.047  15.250  0.0399  0.1644 -0.6676
 8609TIP3    H147242   4.384   5.066  15.173 -2.4845  1.0580 -2.3056
 8609TIP3    H247243   4.281   4.969  15.225  2.1093 -1.9463  1.6458
 8610TIP3   OH247244   1.694   2.552   2.820  0.4333  0.4134  0.2808
 8610TIP3    H147245   1.771   2.601   2.793  0.4676  0.1811 -0.0549
 8610TIP3    H247246   1.715   2.461   2.797  0.7432  0.1136  1.7199
 8611TIP3   OH247247   2.886   3.775  11.443 -0.0923  0.7011  0.8543
 8611TIP3    H147248   2.792   3.772  11.460 -0.2913  0.4130 -0.2375
 8611TIP3    H247249   2.919   3.690  11.471 -0.5156 -0.0002 -0.7189
 8612TIP3   OH247250   3.906   1.706   0.772 -0.1268  0.3306 -0.4389
 8612TIP3    H147251   3.892   1.630   0.830 -0.8527  0.8786  0.1029
 8612TIP3    H247252   3.833   1.704   0.711  1.1201 -0.7828 -1.9576
 8613TIP3   OH247253   2.680   3.249  11.959 -0.1716  0.1457 -0.0461
 8613TIP3    H147254   2.724   3.178  11.913 -1.3600 -0.5766 -0.0837
 8613TIP3    H247255   2.740   3.272  12.030 -0.0853 -1.3635  0.3839
 8614TIP3   OH247256   2.915   6.744  13.835 -0.3372  0.2647  0.3860
 8614TIP3    H147257   2.892   6.777  13.922 -0.8536 -0.3344  0.4801
 8614TIP3    H247258   2.946   6.655  13.850  2.9824  1.3300  0.3774
 8615TIP3   OH247259   2.462   4.405  13.158  0.4889 -0.5935  0.1901
 8615TIP3    H147260   2.465   4.346  13.082  1.8371 -0.1599 -0.0998
 8615TIP3    H247261   2.392   4.467  13.137  3.3136  1.8277 -2.4370
 8616TIP3   OH247262   3.852   3.910   5.793  0.5781 -0.2831  0.8723
 8616TIP3    H147263   3.788   3.971   5.757 -0.3146 -0.9311  1.3320
 8616TIP3    H247264   3.910   3.964   5.846  0.9480  0.4454 -0.2702
 8617TIP3   OH247265   3.286   5.454   4.418  0.3902 -0.8636  0.5996
 8617TIP3    H147266   3.345   5.385   4.388 -0.2864 -0.9421 -0.6185
 8617TIP3    H247267   3.291   5.521   4.349 -1.8427 -1.4134 -0.1285
 8618TIP3   OH247268   2.651   4.660  15.608 -0.5537 -0.2108  0.4994
 8618TIP3    H147269   2.569   4.610  15.598 -0.6520 -0.0747  0.6240
 8618TIP3    H247270   2.680   4.676  15.518 -0.0462 -1.2693  0.4773
 8619TIP3   OH247271   5.556   0.498   1.036  0.2812 -0.0364 -0.1419
 8619TIP3    H147272   5.486   0.562   1.022  0.4707  0.1036 -0.4324
 8619TIP3    H247273   5.570   0.499   1.131 -1.6296 -1.6460  0.1888
 8620TIP3   OH247274   0.666   4.468  14.585 -0.0976 -0.6147 -0.2727
 8620TIP3    H147275   0.615   4.443  14.661 -0.6818 -0.5157 -0.6274
 8620TIP3    H247276   0.681   4.562  14.595  1.0501 -0.8689  0.4387
 8621TIP3   OH247277   5.874   0.085  15.023 -0.2010 -0.0407  0.6366
 8621TIP3    H147278   5.877  -0.006  14.996  1.6494  0.9249 -2.7467
 8621TIP3    H247279   5.783   0.111  15.012 -0.2946 -0.8708 -0.6248
 8622TIP3   OH247280   5.845   3.470   0.777 -0.1371  0.0297  0.0950
 8622TIP3    H147281   5.792   3.425   0.711  0.2167 -0.5834  0.2272
 8622TIP3    H247282   5.915   3.513   0.727 -0.8286  0.9556 -0.0947
 8623TIP3   OH247283   0.014   2.658   2.516  0.5058  0.4292  0.4270
 8623TIP3    H147284   0.050   2.708   2.443  1.8600  1.5694  1.8403
 8623TIP3    H247285   0.075   2.674   2.588 -0.8935 -0.5414  1.8492
 8624TIP3   OH247286   1.963   0.738   0.205 -0.1749 -0.0785 -0.2341
 8624TIP3    H147287   1.940   0.652   0.168 -2.0355  0.3821 -0.2228
 8624TIP3    H247288   1.919   0.801   0.148 -0.2712  0.7808  0.7810
 8625TIP3   OH247289   1.904   3.945   3.884  0.0100 -0.1301  0.2180
 8625TIP3    H147290   1.830   3.887   3.865 -1.4169  1.5991  0.3746
 8625TIP3    H247291   1.945   3.907   3.961 -2.8873  0.8342  2.3249
 8626TIP3   OH247292   4.692   1.892   3.606  0.2283  0.5701  0.3941
 8626TIP3    H147293   4.697   1.948   3.528 -1.7161  0.3423  0.0825
 8626TIP3    H247294   4.742   1.939   3.673  0.5398  1.5587 -0.5277
 8627TIP3   OH247295   6.343   3.497   5.099  0.5874  0.0816  0.1863
 8627TIP3    H147296   6.331   3.559   5.171  0.7432  1.0300 -0.5968
 8627TIP3    H247297   6.256   3.457   5.088  0.8197 -0.8615  1.6006
 8628TIP3   OH247298   1.466   3.523  11.986  0.0987 -0.0129  0.5218
 8628TIP3    H147299   1.408   3.449  11.969 -0.8356  0.8725 -0.2638
 8628TIP3    H247300   1.520   3.529  11.907  0.4638 -0.1277  0.7651
 8629TIP3   OH247301   5.763   6.552   4.034  0.5958 -0.1243 -0.8625
 8629TIP3    H147302   5.768   6.619   4.103  0.3797 -0.3591 -0.6164
 8629TIP3    H247303   5.761   6.602   3.952  0.5131  0.1682 -0.6830
 8630TIP3   OH247304   4.537   5.425  16.039  0.1390 -0.0734 -0.5012
 8630TIP3    H147305   4.455   5.421  15.990 -0.3186  0.6890  0.1967
 8630TIP3    H247306   4.604   5.436  15.972 -0.4856  0.9575 -0.9800
 8631TIP3   OH247307   4.762   4.300  12.789 -0.3522 -0.2776  0.7330
 8631TIP3    H147308   4.818   4.310  12.711  0.4091  2.5303  1.5823
 8631TIP3    H247309   4.693   4.365  12.777 -0.8611 -0.5960  1.8829
 8632TIP3   OH247310   6.426   3.509  17.089  0.2795 -0.5167  0.6300
 8632TIP3    H147311   6.345   3.490  17.042  0.0884 -1.5091  1.3393
 8632TIP3    H247312   6.413   3.596  17.125  0.6021  0.4471 -1.5022
 8633TIP3   OH247313   6.472   3.252   1.353  0.0480 -0.0659 -0.4277
 8633TIP3    H147314   6.410   3.271   1.424  1.0782 -2.0023  1.0169
 8633TIP3    H247315   6.444   3.309   1.282 -1.8453  0.9350  1.0669
 8634TIP3   OH247316   5.706   2.621   1.764  0.3388 -0.1334  0.1218
 8634TIP3    H147317   5.696   2.715   1.779  1.2615 -0.1044  0.6229
 8634TIP3    H247318   5.733   2.615   1.672 -1.9170 -0.0734 -0.5635
 8635TIP3   OH247319   2.477   4.906  15.932 -0.4131 -0.2086  0.2281
 8635TIP3    H147320   2.544   4.878  15.995  0.3240  0.5564 -0.2081
 8635TIP3    H247321   2.421   4.966  15.981  0.4797  0.8122  0.0260
 8636TIP3   OH247322   5.821   0.844  17.237 -0.2337  0.5216  0.0267
 8636TIP3    H147323   5.891   0.820  17.299 -0.0480 -1.0012 -0.7585
 8636TIP3    H247324   5.758   0.772  17.243 -1.5180  1.6579  0.3785
 8637TIP3   OH247325   3.580   1.645  12.135 -0.1157 -0.0184 -0.0879
 8637TIP3    H147326   3.566   1.689  12.051 -2.1519  0.7853  0.6349
 8637TIP3    H247327   3.654   1.586  12.119  0.4774  1.1996 -2.0216
 8638TIP3   OH247328   4.741   4.516   4.694 -0.2735  0.2978 -0.8192
 8638TIP3    H147329   4.725   4.437   4.746  0.6475  0.5569 -0.1277
 8638TIP3    H247330   4.661   4.527   4.642 -2.0103  1.1696  1.9778
 8639TIP3   OH247331   2.239   2.550   3.696  0.4199  0.0223  0.1699
 8639TIP3    H147332   2.332   2.558   3.715  0.5292 -0.9399  0.0579
 8639TIP3    H247333   2.222   2.456   3.698  0.1037 -0.0349 -2.7735
 8640TIP3   OH247334   6.504   2.801   1.235 -0.5877  0.2615  0.3143
 8640TIP3    H147335   6.544   2.870   1.181 -0.6446 -0.4901 -0.7062
 8640TIP3    H247336   6.469   2.848   1.311 -1.4455  1.4833 -0.8093
 8641TIP3   OH247337   1.341   1.830   3.562  1.0336 -0.2465  0.6101
 8641TIP3    H147338   1.380   1.835   3.475 -0.3027 -1.8658 -0.0981
 8641TIP3    H247339   1.324   1.922   3.586 -1.3476  0.0929 -2.1075
 8642TIP3   OH247340   3.078   1.971  10.834  0.1490 -0.3615  0.3275
 8642TIP3    H147341   3.043   1.882  10.830  0.9534 -0.7458  1.4890
 8642TIP3    H247342   3.001   2.027  10.839 -0.3449 -1.0858  1.0204
 8643TIP3   OH247343   6.522   0.147   5.659  0.6776 -0.0880 -0.2861
 8643TIP3    H147344   6.473   0.213   5.610 -1.1029 -1.3747 -0.2906
 8643TIP3    H247345   6.566   0.095   5.592 -0.0336 -0.5263 -0.4125
 8644TIP3   OH247346   5.264   2.074  14.143  0.2830  0.0927 -0.0645
 8644TIP3    H147347   5.219   1.990  14.152  0.9452 -0.1904  0.6131
 8644TIP3    H247348   5.258   2.114  14.229 -1.4895  1.4944 -0.8160
 8645TIP3   OH247349   2.526   0.053  15.682 -0.0486  0.7077  0.1080
 8645TIP3    H147350   2.530  -0.017  15.618  0.3792  0.1613  0.7243
 8645TIP3    H247351   2.614   0.090  15.683  0.0041  0.5793  0.5224
 8646TIP3   OH247352   2.775   3.043  13.328 -0.0509 -0.1130 -0.5323
 8646TIP3    H147353   2.756   2.963  13.279 -1.2795  0.4411 -0.9948
 8646TIP3    H247354   2.769   3.017  13.420  0.4650 -0.7517 -0.6730
 8647TIP3   OH247355   1.798   2.577   0.592  0.0512  0.2487  0.7672
 8647TIP3    H147356   1.882   2.609   0.624  0.7854  0.7405 -1.6055
 8647TIP3    H247357   1.795   2.485   0.620  0.9078  0.5160  1.7454
 8648TIP3   OH247358   4.918   5.472   4.956  0.2341 -0.3022  0.4819
 8648TIP3    H147359   4.929   5.553   5.005 -2.0263  0.0771  0.4433
 8648TIP3    H247360   4.915   5.403   5.023 -1.9456  0.1211  0.8790
 8649TIP3   OH247361   0.029   1.351  15.429  0.5870  0.4540  0.0682
 8649TIP3    H147362  -0.052   1.390  15.461  0.8259  0.3705  0.7954
 8649TIP3    H247363   0.095   1.379  15.493  0.7097 -1.3850  0.7841
 8650TIP3   OH247364   0.155   5.175  15.263 -0.1480  0.2857  0.0482
 8650TIP3    H147365   0.187   5.236  15.197 -0.2485 -1.3794 -1.5670
 8650TIP3    H247366   0.103   5.112  15.215 -1.2311 -0.2748  1.8965
 8651TIP3   OH247367   4.180   4.557  14.927  0.5507  0.0253  0.1748
 8651TIP3    H147368   4.251   4.500  14.901  0.0186 -1.3241  1.6063
 8651TIP3    H247369   4.216   4.646  14.921  1.6838 -0.5254 -1.0954
 8652TIP3   OH247370   0.326   1.678  13.877  0.3822 -0.3666  0.1100
 8652TIP3    H147371   0.354   1.764  13.844  0.4221 -0.3304  0.2347
 8652TIP3    H247372   0.296   1.696  13.966 -0.8910 -0.2452 -0.3243
 8653TIP3   OH247373   1.391   4.413   0.683 -0.2422  0.0921 -0.1165
 8653TIP3    H147374   1.315   4.356   0.692 -0.4402  0.5291  1.0915
 8653TIP3    H247375   1.392   4.437   0.591  0.0403 -2.1203 -0.7214
 8654TIP3   OH247376   0.446   1.470   5.823  0.5523 -0.2090 -0.1094
 8654TIP3    H147377   0.525   1.487   5.773  0.8844  1.4012  0.9384
 8654TIP3    H247378   0.391   1.418   5.764  0.4555  2.5880 -2.6052
 8655TIP3   OH247379   1.756   0.618  12.483  0.7914  0.1844 -0.4185
 8655TIP3    H147380   1.699   0.571  12.423 -0.6069  0.6365  0.5394
 8655TIP3    H247381   1.843   0.581  12.467  0.0778 -1.1946 -1.2028
 8656TIP3   OH247382   1.440   3.324   2.294  0.1764 -0.3474  0.0166
 8656TIP3    H147383   1.520   3.376   2.305 -0.0511 -0.2772  1.4094
 8656TIP3    H247384   1.370   3.389   2.286 -0.1176 -0.4107  1.8286
 8657TIP3   OH247385   0.027   0.463  11.510 -0.0574 -0.0528  0.0491
 8657TIP3    H147386   0.077   0.471  11.591 -0.3520  0.3456  0.1959
 8657TIP3    H247387   0.020   0.369  11.495  1.1153 -0.0992 -0.2181
 8658TIP3   OH247388   6.597   2.942   6.237 -0.4732 -0.0686 -0.1671
 8658TIP3    H147389   6.651   2.894   6.174  1.1331  1.3926  0.0584
 8658TIP3    H247390   6.548   2.874   6.283  0.8880 -1.4106 -0.6513
 8659TIP3   OH247391   1.421   4.126  17.220  0.6509  0.3130  0.1108
 8659TIP3    H147392   1.354   4.058  17.222  2.6024 -1.6813  0.6711
 8659TIP3    H247393   1.468   4.110  17.138  1.8689  0.2026  0.8151
 8660TIP3   OH247394   0.671   5.090  15.650  0.8100  0.3397 -0.2449
 8660TIP3    H147395   0.604   5.025  15.672  0.3928  1.1578  0.9791
 8660TIP3    H247396   0.671   5.093  15.554  1.2310 -1.8504 -0.3439
 8661TIP3   OH247397   0.949   6.311   0.625  0.1864  0.0594  0.7251
 8661TIP3    H147398   0.954   6.234   0.568  1.5482  1.7124 -1.4605
 8661TIP3    H247399   0.856   6.328   0.634 -0.0608 -0.0044 -1.3533
 8662TIP3   OH247400   5.516   3.331   0.366 -0.2478 -0.2249 -0.1124
 8662TIP3    H147401   5.429   3.349   0.400 -0.7065 -2.3353 -0.1141
 8662TIP3    H247402   5.504   3.259   0.304  1.5400 -0.7773  0.1369
 8663TIP3   OH247403   4.488   6.007  14.470  0.9050  0.8060 -0.2491
 8663TIP3    H147404   4.526   5.925  14.504  1.5869  1.5380  0.8109
 8663TIP3    H247405   4.454   5.984  14.384 -0.5025 -1.0258  0.7624
 8664TIP3   OH247406   4.600   1.631   3.558  0.0831 -0.8653  0.0830
 8664TIP3    H147407   4.526   1.676   3.519  0.8817 -1.0279 -1.6786
 8664TIP3    H247408   4.659   1.701   3.586  0.7600 -0.7583 -1.5356
 8665TIP3   OH247409   5.714   3.676   5.865 -0.0758 -0.1675 -0.1818
 8665TIP3    H147410   5.723   3.769   5.845 -0.6009 -0.0739  0.0092
 8665TIP3    H247411   5.803   3.641   5.856  0.2730  0.5067  0.5763
 8666TIP3   OH247412   6.161   6.022  14.544 -0.1281  0.1878  0.4237
 8666TIP3    H147413   6.202   6.109  14.540 -1.0042  0.5784 -0.2932
 8666TIP3    H247414   6.232   5.961  14.524  0.5050  0.7293  0.9850
 8667TIP3   OH247415   6.545   6.645  14.331 -0.1494  0.2334  0.1400
 8667TIP3    H147416   6.623   6.608  14.290 -0.2857 -0.0297  0.1216
 8667TIP3    H247417   6.490   6.672  14.257 -0.9225 -1.3183  0.1161
 8668TIP3   OH247418   5.728   4.167  11.895 -0.0112  0.0412  0.4439
 8668TIP3    H147419   5.716   4.195  11.805  1.8570 -0.6793 -0.0555
 8668TIP3    H247420   5.653   4.203  11.942  0.4516  2.7834 -0.8560
 8669TIP3   OH247421   1.047   1.655  13.038  0.0445  0.3539  0.0451
 8669TIP3    H147422   1.094   1.730  13.074  0.6249 -0.0996  0.2441
 8669TIP3    H247423   1.107   1.581  13.048 -0.6969 -0.2356  0.2800
 8670TIP3   OH247424   2.457   0.416   4.584  0.7404  0.4119 -0.6879
 8670TIP3    H147425   2.440   0.489   4.643 -2.3316 -0.1394 -0.8241
 8670TIP3    H247426   2.435   0.450   4.497 -0.0697 -0.4495 -0.8268
 8671TIP3   OH247427   0.083   2.178   5.613  0.0797 -0.4987  0.0558
 8671TIP3    H147428   0.040   2.180   5.699  0.2820 -0.2262  0.1531
 8671TIP3    H247429   0.093   2.270   5.589 -0.2619 -0.5801 -0.4070
 8672TIP3   OH247430   5.048   1.399  15.941 -0.1510 -0.0151 -0.0954
 8672TIP3    H147431   5.024   1.307  15.946  1.0933 -0.3485 -0.0798
 8672TIP3    H247432   5.140   1.402  15.969 -0.3589  1.3054  0.4870
 8673TIP3   OH247433   5.426   5.118   2.578 -0.2767 -0.1507 -0.1511
 8673TIP3    H147434   5.450   5.210   2.567 -0.0910 -0.2534 -0.6195
 8673TIP3    H247435   5.454   5.096   2.668 -1.3938  0.5731  0.3787
 8674TIP3   OH247436   5.239   0.167   1.890 -0.4187  0.0891 -0.3100
 8674TIP3    H147437   5.247   0.114   1.969 -3.0055  0.3921  0.1933
 8674TIP3    H247438   5.287   0.247   1.910 -0.2587 -0.2275  0.5839
 8675TIP3   OH247439   5.159   3.519   0.701 -0.1328  0.5662  0.0428
 8675TIP3    H147440   5.064   3.509   0.711 -0.3334  2.7015  0.5567
 8675TIP3    H247441   5.181   3.592   0.759  1.8633 -0.0362  0.0661
 8676TIP3   OH247442   0.979   2.957   5.518  0.5589 -0.3353 -0.0571
 8676TIP3    H147443   0.917   3.030   5.514  1.1233  0.2620  1.8779
 8676TIP3    H247444   1.054   2.987   5.466  0.1716 -0.1559 -0.5176
 8677TIP3   OH247445   4.558   4.004   4.529  0.4410  0.1790 -0.3988
 8677TIP3    H147446   4.572   4.087   4.483  0.5900  0.4118  0.0618
 8677TIP3    H247447   4.464   3.987   4.521  0.1834  1.0728  0.6483
 8678TIP3   OH247448   4.586   0.319  10.502 -0.9860  0.2998  0.5869
 8678TIP3    H147449   4.678   0.298  10.486 -0.7578  0.8414  1.1398
 8678TIP3    H247450   4.538   0.267  10.438 -0.2900  0.0777  0.2355
 8679TIP3   OH247451   1.099   0.443  14.613 -0.2103  0.0617 -0.0416
 8679TIP3    H147452   1.036   0.510  14.585 -1.4054 -0.3300  1.6502
 8679TIP3    H247453   1.051   0.360  14.603  0.5450 -0.3710 -0.1084
 8680TIP3   OH247454   5.573   4.142  14.654 -0.1144  0.1291 -0.7848
 8680TIP3    H147455   5.611   4.158  14.741 -0.4380 -0.7295 -0.4754
 8680TIP3    H247456   5.481   4.164  14.664 -0.2577 -0.4730 -0.7632
 8681TIP3   OH247457   5.363   3.849   2.698 -0.2813  0.1951  0.2701
 8681TIP3    H147458   5.339   3.888   2.613 -2.9156  0.6842  1.1984
 8681TIP3    H247459   5.424   3.779   2.676 -0.4502  0.7248 -1.9949
 8682TIP3   OH247460   4.379   5.600  14.041  0.0804  0.3589 -0.0015
 8682TIP3    H147461   4.289   5.590  14.008  0.3838 -2.0219 -0.2312
 8682TIP3    H247462   4.434   5.558  13.975  1.5511  3.1411 -0.5977
 8683TIP3   OH247463   4.560   5.160   2.440 -0.1631  0.0745  0.8314
 8683TIP3    H147464   4.596   5.175   2.528 -2.4545  2.5892  1.4247
 8683TIP3    H247465   4.599   5.228   2.386 -0.4776 -0.0634  0.4308
 8684TIP3   OH247466   0.536   1.334   4.459  0.2229 -0.1783  0.6268
 8684TIP3    H147467   0.460   1.337   4.401  1.7823  0.1372 -1.4900
 8684TIP3    H247468   0.542   1.422   4.496  0.8889  0.5036 -1.0396
 8685TIP3   OH247469   3.306   2.887  14.837 -0.2017  0.1677  0.0102
 8685TIP3    H147470   3.321   2.877  14.931  0.2899  0.7250 -0.0088
 8685TIP3    H247471   3.296   2.981  14.823  0.6987  0.1728 -0.6339
 8686TIP3   OH247472   1.305   3.512  15.374 -0.3833 -0.1715 -0.2358
 8686TIP3    H147473   1.266   3.483  15.291  0.4896 -0.2763 -0.6162
 8686TIP3    H247474   1.308   3.432  15.427  0.5279 -0.4576 -0.6937
 8687TIP3   OH247475   1.495   6.452   2.745  0.3935  0.2148  0.1178
 8687TIP3    H147476   1.482   6.436   2.839  0.4946 -1.6387 -0.1581
 8687TIP3    H247477   1.487   6.547   2.736 -0.0432  0.3853  1.9353
 8688TIP3   OH247478   3.172   6.439   3.494 -0.3776  0.0002  0.1414
 8688TIP3    H147479   3.117   6.408   3.566  0.2676  1.6441  1.3603
 8688TIP3    H247480   3.242   6.374   3.489  0.3216  0.5818  1.8991
 8689TIP3   OH247481   4.417   4.445  14.852  0.3484 -0.3211  0.3194
 8689TIP3    H147482   4.397   4.404  14.768  0.0039  0.2893  0.1041
 8689TIP3    H247483   4.511   4.432  14.864  0.3115 -0.8292  0.0704
 8690TIP3   OH247484   0.664   5.110  15.094  0.3696 -0.2528  0.2464
 8690TIP3    H147485   0.644   5.122  15.186 -0.9172  0.3666 -0.1153
 8690TIP3    H247486   0.593   5.154  15.047  0.2874 -1.7044 -1.0395
 8691TIP3   OH247487   1.543   2.185   0.165  0.0120 -0.1897 -0.1365
 8691TIP3    H147488   1.581   2.261   0.209 -0.0715 -0.1423 -0.1464
 8691TIP3    H247489   1.593   2.110   0.199 -0.1791 -0.1732  0.1823
 8692TIP3   OH247490   3.194   6.204  14.888  0.1617 -0.1506  0.5178
 8692TIP3    H147491   3.162   6.197  14.798  1.2556 -0.2697  0.1331
 8692TIP3    H247492   3.137   6.145  14.938 -0.7102  0.2255 -0.0242
 8693TIP3   OH247493   2.418   5.926   1.582  0.5501 -0.1905 -0.1128
 8693TIP3    H147494   2.411   5.863   1.654  3.4904 -0.8619 -0.3311
 8693TIP3    H247495   2.371   5.886   1.510 -0.0741 -0.8016  0.6284
 8694TIP3   OH247496   3.464   3.864   3.824 -0.1260 -0.3534  0.2508
 8694TIP3    H147497   3.386   3.825   3.863 -0.1081 -0.7570 -0.1129
 8694TIP3    H247498   3.463   3.834   3.733  0.4098 -0.3004  0.2240
 8695TIP3   OH247499   3.705   2.599   3.382 -0.1298 -0.2082 -0.6259
 8695TIP3    H147500   3.648   2.532   3.344  0.4976 -2.0816  1.6278
 8695TIP3    H247501   3.790   2.555   3.394  0.5646  1.2603 -0.0016
 8696TIP3   OH247502   3.686   3.370   3.233 -0.3536  0.4496 -0.6529
 8696TIP3    H147503   3.636   3.351   3.154  1.1484  0.9092 -1.7475
 8696TIP3    H247504   3.778   3.359   3.207  0.1688  0.5713  1.0332
 8697TIP3   OH247505   0.732   0.997  16.454 -0.3093  0.1411  0.3441
 8697TIP3    H147506   0.707   1.060  16.522 -1.2923 -0.2954  0.4089
 8697TIP3    H247507   0.718   1.044  16.372  3.4350  1.5907  0.4602
 8698TIP3   OH247508   0.207   3.330   3.866  0.6278 -0.6497 -0.4767
 8698TIP3    H147509   0.158   3.411   3.855  0.0816 -0.8935  0.1473
 8698TIP3    H247510   0.252   3.340   3.950 -1.9974 -2.3009  1.1984
 8699TIP3   OH247511   1.131   0.062  15.402  0.2249  0.4625  0.1799
 8699TIP3    H147512   1.154  -0.006  15.465  3.0374 -0.2086 -1.4766
 8699TIP3    H247513   1.050   0.031  15.360  1.0006 -1.4565  0.0534
 8700TIP3   OH247514   1.536   1.627   4.636 -0.7854 -0.6768  0.1576
 8700TIP3    H147515   1.459   1.672   4.602 -0.9908 -0.1911  1.2449
 8700TIP3    H247516   1.609   1.682   4.611 -0.8509 -0.7723 -0.2530
 8701TIP3   OH247517   1.354   0.290   0.334  1.0610  0.5830 -0.0160
 8701TIP3    H147518   1.449   0.285   0.332  0.9568 -1.9906 -0.3349
 8701TIP3    H247519   1.326   0.268   0.245  0.2008  3.2720 -0.4562
 8702TIP3   OH247520   0.108   4.112  10.885 -0.4519 -0.1042  0.4009
 8702TIP3    H147521   0.030   4.092  10.937 -0.9643 -0.6851 -0.5720
 8702TIP3    H247522   0.077   4.108  10.794  1.0013 -1.6139 -0.0528
 8703TIP3   OH247523   2.917   4.629   4.482  0.4969 -0.0289 -0.1601
 8703TIP3    H147524   2.827   4.642   4.454 -0.2292 -1.9257  1.2046
 8703TIP3    H247525   2.955   4.717   4.482 -1.3697  0.8041 -0.6668
 8704TIP3   OH247526   4.815   1.754   1.150  0.5154  0.3564 -0.3267
 8704TIP3    H147527   4.779   1.784   1.234  0.0262 -1.3852  0.0986
 8704TIP3    H247528   4.756   1.685   1.122  1.1411  0.3876 -1.7270
 8705TIP3   OH247529   1.016   0.659  15.202  0.1690  0.1244 -0.5316
 8705TIP3    H147530   1.018   0.569  15.234  0.4993  0.6652  0.9786
 8705TIP3    H247531   0.943   0.660  15.139  0.2256 -1.2143 -0.6316
 8706TIP3   OH247532   6.199   5.230   4.803  0.1962 -0.1821 -0.2281
 8706TIP3    H147533   6.282   5.277   4.804 -0.3892  0.8486  0.6764
 8706TIP3    H247534   6.216   5.150   4.852  0.9246 -0.4611 -0.9266
 8707TIP3   OH247535   2.341   2.908  13.324 -0.1025  0.6656  0.8746
 8707TIP3    H147536   2.322   2.831  13.378  2.1233 -1.8600 -1.7446
 8707TIP3    H247537   2.280   2.902  13.251  1.7323 -0.0568 -0.6361
 8708TIP3   OH247538   4.434   3.477  13.967  0.1964 -0.7461 -0.4463
 8708TIP3    H147539   4.486   3.507  14.042  1.8072 -2.0447 -1.0146
 8708TIP3    H247540   4.443   3.547  13.903  1.2176 -0.9328 -0.5152
 8709TIP3   OH247541   1.414   5.891  15.470 -0.2423  0.1585  0.0815
 8709TIP3    H147542   1.472   5.950  15.520 -0.1975 -1.0393  1.4624
 8709TIP3    H247543   1.455   5.805  15.478 -1.1140 -0.3322 -0.6887
 8710TIP3   OH247544   1.342   0.231   4.973 -0.2647  0.3537 -0.3616
 8710TIP3    H147545   1.331   0.309   5.027  0.0138  0.1185  0.0489
 8710TIP3    H247546   1.303   0.253   4.889 -0.5908  0.7756 -0.1026
 8711TIP3   OH247547   3.318   6.463   3.078 -0.3054  0.7398  0.1518
 8711TIP3    H147548   3.370   6.403   3.024 -1.6747 -2.2250  2.0036
 8711TIP3    H247549   3.260   6.507   3.016  0.5060 -0.0817 -1.2157
 8712TIP3   OH247550   5.492   3.669  11.663 -0.3132 -0.2232  0.3306
 8712TIP3    H147551   5.464   3.757  11.639 -0.3031 -0.4074 -0.3568
 8712TIP3    H247552   5.550   3.642  11.592 -0.6875 -0.9633  0.3042
 8713TIP3   OH247553   5.756   2.818  16.860 -0.3416  0.3573 -0.2249
 8713TIP3    H147554   5.817   2.840  16.790 -0.1684 -0.6580 -0.4048
 8713TIP3    H247555   5.686   2.883  16.853  1.2530  2.2230  0.6854
 8714TIP3   OH247556   5.648   4.340  10.520 -0.0142 -0.3476  0.2508
 8714TIP3    H147557   5.683   4.342  10.431  0.7482  0.4647  0.5514
 8714TIP3    H247558   5.554   4.350  10.510  0.1504  0.5787 -0.4358
 8715TIP3   OH247559   2.188   6.177   2.084 -0.4117 -0.0165  0.5658
 8715TIP3    H147560   2.180   6.119   2.159 -0.6147 -0.5497  0.1365
 8715TIP3    H247561   2.206   6.119   2.010  2.4331  0.7094  0.6310
 8716TIP3   OH247562   1.154   5.887   3.901  0.5643  0.2823 -0.0376
 8716TIP3    H147563   1.180   5.864   3.990 -2.2211  0.8015  0.9560
 8716TIP3    H247564   1.123   5.804   3.863 -1.1854  0.6188  0.5787
 8717TIP3   OH247565   2.946   1.089  14.341  0.4621 -0.0751 -0.0344
 8717TIP3    H147566   2.987   1.051  14.264  0.7356 -1.5533  0.8139
 8717TIP3    H247567   3.017   1.135  14.386  0.1285  1.5057 -1.0667
 8718TIP3   OH247568   5.619   6.629   2.507 -0.2952 -0.6419  0.0349
 8718TIP3    H147569   5.646   6.560   2.447  1.1714  1.0913 -1.3683
 8718TIP3    H247570   5.693   6.640   2.567 -1.1942 -1.4088  1.3097
 8719TIP3   OH247571   4.007   4.947   2.842 -0.8930 -0.0956 -0.2083
 8719TIP3    H147572   4.100   4.926   2.854 -1.1250 -1.2664 -0.3276
 8719TIP3    H247573   3.962   4.865   2.863 -1.8019  0.0518 -1.5028
 8720TIP3   OH247574   1.785   2.802   2.509 -0.0262 -0.0128  0.0647
 8720TIP3    H147575   1.777   2.844   2.423 -0.1009 -0.0244  0.0661
 8720TIP3    H247576   1.828   2.867   2.564  0.9422 -0.3794 -0.2577
 8721TIP3   OH247577   5.775   3.376   5.513 -0.4626  0.2530 -0.3329
 8721TIP3    H147578   5.733   3.396   5.429  1.4132  1.6935 -0.9594
 8721TIP3    H247579   5.706   3.388   5.578 -2.2041 -1.7864 -1.7077
 8722TIP3   OH247580   2.548   1.061   3.153  0.2382 -0.3071  0.0749
 8722TIP3    H147581   2.566   0.976   3.112 -2.2907 -0.0429 -1.7220
 8722TIP3    H247582   2.534   1.121   3.079 -0.7177  1.0269  1.3117
 8723TIP3   OH247583   2.971   1.343  13.705  0.0125 -0.2399 -0.1590
 8723TIP3    H147584   2.937   1.341  13.615 -0.0778  2.0135 -0.2026
 8723TIP3    H247585   2.893   1.345  13.760  0.0684 -1.2211 -0.0419
 8724TIP3   OH247586   6.427   4.797   5.087 -0.4976  0.0577 -0.5698
 8724TIP3    H147587   6.433   4.711   5.045  0.8433 -1.1733  2.0516
 8724TIP3    H247588   6.515   4.834   5.081  0.0540 -0.6864  2.2015
 8725TIP3   OH247589   4.307   6.766  13.800  0.2141  0.1889 -0.0491
 8725TIP3    H147590   4.298   6.778  13.705  0.3286  1.1555  0.0556
 8725TIP3    H247591   4.217   6.758  13.832  0.0799  1.6680 -0.0216
 8726TIP3   OH247592   0.986   5.177  15.582 -0.2653  0.0619 -0.0663
 8726TIP3    H147593   0.962   5.234  15.655 -1.4826 -1.2366  0.5906
 8726TIP3    H247594   0.913   5.115  15.576  1.6860 -2.3304  0.1844
 8727TIP3   OH247595   4.266   5.172   4.468 -0.0390 -0.0918 -0.1652
 8727TIP3    H147596   4.211   5.219   4.531 -0.0797 -2.1019  1.3479
 8727TIP3    H247597   4.214   5.096   4.443  1.3244 -1.0897 -0.0399
 8728TIP3   OH247598   1.838   2.674   0.920 -0.3787  0.0909  0.0112
 8728TIP3    H147599   1.887   2.754   0.907  0.7522 -0.8791 -1.9706
 8728TIP3    H247600   1.761   2.683   0.863 -0.5158 -0.0182  0.1778
 8729TIP3   OH247601   5.504   2.208   0.731 -0.2498 -0.2997  0.2175
 8729TIP3    H147602   5.421   2.254   0.739  0.0669  0.3053  0.0514
 8729TIP3    H247603   5.500   2.167   0.644 -1.8338 -3.2091  1.5847
 8730TIP3   OH247604   0.077   1.196   6.057 -0.5536  0.0269 -0.5167
 8730TIP3    H147605  -0.000   1.214   6.003 -0.6380 -1.7594 -1.0452
 8730TIP3    H247606   0.045   1.196   6.147 -0.5723  2.2280 -0.4959
 8731TIP3   OH247607   5.625   0.057   5.088 -0.8065  0.1692  0.2930
 8731TIP3    H147608   5.684  -0.016   5.108  0.1052  1.1726  1.3342
 8731TIP3    H247609   5.628   0.065   4.993  2.6875  1.7715  0.4734
 8732TIP3   OH247610   0.048   6.664  16.742  1.0988  0.4225 -1.0621
 8732TIP3    H147611  -0.011   6.704  16.678 -0.5122  0.0509  0.1617
 8732TIP3    H247612   0.075   6.737  16.798 -2.0571 -0.1552  1.3398
 8733TIP3   OH247613   3.848   1.679   1.998  0.0014 -0.3019 -0.0219
 8733TIP3    H147614   3.915   1.711   2.058  0.3109  0.4734 -0.7687
 8733TIP3    H247615   3.766   1.685   2.048  0.4373 -0.9127  0.7657
 8734TIP3   OH247616   6.183   4.345   4.608 -0.5091 -0.5956 -0.3757
 8734TIP3    H147617   6.111   4.339   4.545 -0.3964 -1.1101 -0.4604
 8734TIP3    H247618   6.242   4.411   4.573  0.4378 -2.1161 -1.7185
 8735TIP3   OH247619   2.416   2.216   5.795 -0.2645 -0.2772  0.1897
 8735TIP3    H147620   2.406   2.298   5.844  1.5289  0.8639 -1.2954
 8735TIP3    H247621   2.359   2.227   5.719 -0.7788 -0.8268  0.4946
 8736TIP3   OH247622   5.760   1.559   4.720 -0.3576  0.2774 -0.6408
 8736TIP3    H147623   5.748   1.638   4.667  0.9572  1.1812  0.3748
 8736TIP3    H247624   5.781   1.592   4.808  1.0147 -1.2004 -0.3989
 8737TIP3   OH247625   1.894   6.585   2.187  0.1467  0.1756 -0.0166
 8737TIP3    H147626   1.977   6.569   2.142  0.4223  0.1956  0.4731
 8737TIP3    H247627   1.919   6.632   2.267 -0.2186 -0.7410  0.6513
 8738TIP3   OH247628   2.469   2.384   4.996  0.1296  0.1739  0.4425
 8738TIP3    H147629   2.521   2.318   5.042  1.1238  1.3283  0.9854
 8738TIP3    H247630   2.436   2.339   4.918 -0.1605 -1.3039  1.4008
 8739TIP3   OH247631   3.231   5.331   3.193  0.2971 -0.2954 -0.2012
 8739TIP3    H147632   3.277   5.346   3.110 -0.1512  0.4952 -0.3128
 8739TIP3    H247633   3.291   5.362   3.260  1.0728 -1.8576 -0.1557
 8740TIP3   OH247634   4.727   6.148  14.440 -0.2018  0.0181 -0.3576
 8740TIP3    H147635   4.760   6.102  14.364 -0.5067 -1.0037  0.1230
 8740TIP3    H247636   4.642   6.108  14.458 -0.6454  1.0161 -0.1609
 8741TIP3   OH247637   4.285   3.115  12.854  0.8574  0.6052  0.0670
 8741TIP3    H147638   4.198   3.138  12.821  1.0777 -0.5463 -1.3779
 8741TIP3    H247639   4.281   3.020  12.867  0.8175  0.9909  3.3215
 8742TIP3   OH247640   1.075   2.189   3.256  0.0400 -0.2285  0.7066
 8742TIP3    H147641   0.984   2.178   3.230  0.1888  2.0091 -0.9391
 8742TIP3    H247642   1.123   2.128   3.200 -0.3108 -0.4150  0.6089
 8743TIP3   OH247643   3.709   5.557  17.109  0.5534  0.4840  0.0472
 8743TIP3    H147644   3.782   5.579  17.052  0.8749  1.7717  0.9303
 8743TIP3    H247645   3.714   5.621  17.180 -0.2948 -0.6007  1.1095
 8744TIP3   OH247646   0.964   3.545   5.020  0.6347 -0.1517 -0.2175
 8744TIP3    H147647   1.026   3.480   5.052  2.4889  1.6129 -0.1185
 8744TIP3    H247648   0.963   3.533   4.925 -1.3897 -2.3305  0.0233
 8745TIP3   OH247649   2.302   2.577   0.601  0.0566 -0.2848  0.1227
 8745TIP3    H147650   2.373   2.580   0.665 -0.2299 -1.0731  0.4806
 8745TIP3    H247651   2.322   2.648   0.540  1.9820 -1.5005 -0.6866
 8746TIP3   OH247652   2.903   5.201  13.242  0.0636  0.1558 -0.0838
 8746TIP3    H147653   2.937   5.276  13.291 -1.4476  0.4735  0.5183
 8746TIP3    H247654   2.808   5.213  13.244 -0.2637 -2.2910  0.8432
 8747TIP3   OH247655   3.849   1.351   4.649  0.2028  0.1730 -0.2564
 8747TIP3    H147656   3.862   1.267   4.692 -0.0115 -0.0729 -0.6747
 8747TIP3    H247657   3.853   1.415   4.721  0.4959 -0.1773  0.0437
 8748TIP3   OH247658   2.795   4.882  17.002  1.0971  0.1012  0.3458
 8748TIP3    H147659   2.793   4.859  17.095  1.7484  0.9212  0.5618
 8748TIP3    H247660   2.739   4.959  16.995  1.7676  0.5756  0.2047
 8749TIP3   OH247661   6.357   1.579  15.463 -0.0447 -0.1159  0.1740
 8749TIP3    H147662   6.292   1.537  15.407 -0.0798  0.4473 -0.2032
 8749TIP3    H247663   6.340   1.673  15.456 -0.0132 -0.0330  1.0816
 8750TIP3   OH247664   4.759   1.197   3.384 -0.4094  0.1332 -0.2060
 8750TIP3    H147665   4.797   1.148   3.311 -1.1879  0.5205 -0.8872
 8750TIP3    H247666   4.664   1.192   3.369 -0.5696  0.3489  0.6969
 8751TIP3   OH247667   3.576   0.844  13.882 -0.4046  0.5923  0.8836
 8751TIP3    H147668   3.620   0.759  13.878 -1.9315 -0.2379  1.4099
 8751TIP3    H247669   3.633   0.898  13.937  1.0657  0.2233 -0.2332
 8752TIP3   OH247670   3.817   4.814   9.915  0.1445  0.0203  0.0125
 8752TIP3    H147671   3.874   4.826   9.992  1.2496 -1.2095 -0.5941
 8752TIP3    H247672   3.850   4.878   9.852 -0.4627  0.7073  0.3806
 8753TIP3   OH247673   3.486   1.290   0.189  0.3551 -0.4221 -0.5772
 8753TIP3    H147674   3.461   1.198   0.181  0.2488 -0.6145  1.6318
 8753TIP3    H247675   3.407   1.339   0.166 -0.3662 -0.9404  0.7502
 8754TIP3   OH247676   0.944   0.517   5.584 -0.0940 -0.6609  0.1511
 8754TIP3    H147677   0.935   0.611   5.602 -0.9367 -0.5301 -0.8557
 8754TIP3    H247678   0.973   0.479   5.667  1.1416  0.6087  0.3344
 8755TIP3   OH247679   5.762   0.168  13.626  0.0401  0.2384 -0.4614
 8755TIP3    H147680   5.807   0.114  13.561  0.1931  1.1380 -1.1288
 8755TIP3    H247681   5.833   0.215  13.670 -0.1280  0.3608 -0.3211
 8756TIP3   OH247682   3.863   0.738   4.834  0.0879  0.6246  0.0241
 8756TIP3    H147683   3.818   0.794   4.770  0.9508  0.5762 -0.6426
 8756TIP3    H247684   3.905   0.670   4.781  1.2195  0.8652  0.5989
 8757TIP3   OH247685   3.409   6.614  12.262 -0.0060 -0.3427 -0.2839
 8757TIP3    H147686   3.410   6.671  12.185 -0.6927  0.9519  0.6663
 8757TIP3    H247687   3.347   6.654  12.322  1.1055 -0.9178  1.2885
 8758TIP3   OH247688   5.981   0.515  14.416 -0.1851 -0.0277 -0.5923
 8758TIP3    H147689   6.040   0.453  14.459 -1.0484  0.1256  0.8762
 8758TIP3    H247690   6.036   0.591  14.397  0.3611 -0.3430 -0.3057
 8759TIP3   OH247691   6.437   2.505  12.253 -0.2687  0.1336  0.1310
 8759TIP3    H147692   6.408   2.559  12.180  0.6184  0.0651 -0.2858
 8759TIP3    H247693   6.530   2.489  12.235 -0.6529 -2.0227 -0.0787
 8760TIP3   OH247694   3.221   2.402  12.599  0.3844 -0.6157 -0.1999
 8760TIP3    H147695   3.211   2.493  12.627  0.2418 -0.5651 -0.4161
 8760TIP3    H247696   3.316   2.390  12.591  0.4955 -1.0339  1.6345
 8761TIP3   OH247697   1.501   5.430  17.017  0.3283 -0.4076  0.0535
 8761TIP3    H147698   1.553   5.389  16.947  0.7861 -0.5588  0.4827
 8761TIP3    H247699   1.411   5.403  16.999  0.6528 -1.7995  0.4646
 8762TIP3   OH247700   6.165   0.852   5.833  0.4003 -0.8769  0.0616
 8762TIP3    H147701   6.149   0.780   5.772 -0.9209 -1.2864  0.8746
 8762TIP3    H247702   6.081   0.898   5.839  1.3208  0.9353 -0.6997
 8763TIP3   OH247703   0.998   4.561   2.094  0.2662  0.3215  0.0101
 8763TIP3    H147704   0.909   4.541   2.123  0.2655 -0.1280 -0.3017
 8763TIP3    H247705   1.004   4.524   2.006  0.5669  0.8735 -0.2080
 8764TIP3   OH247706   1.033   6.073  16.007 -0.3011  0.1389  0.0869
 8764TIP3    H147707   1.113   6.065  15.956  0.2756 -0.0710  1.0153
 8764TIP3    H247708   0.962   6.064  15.943  0.4067  1.1203 -0.8561
 8765TIP3   OH247709   5.964   1.811  16.190 -0.3981  0.3241 -0.3370
 8765TIP3    H147710   5.885   1.776  16.147 -1.4840  1.7012  0.4882
 8765TIP3    H247711   6.036   1.761  16.152 -1.6568 -0.8396 -1.2417
 8766TIP3   OH247712   1.250   0.274  11.614 -0.0982 -0.4440 -0.2672
 8766TIP3    H147713   1.314   0.341  11.639 -0.7855  0.9621 -2.0856
 8766TIP3    H247714   1.217   0.304  11.529 -3.7846 -0.6702  0.9988
 8767TIP3   OH247715   2.198   0.900  14.682 -1.0117 -0.0785 -0.1156
 8767TIP3    H147716   2.270   0.955  14.713 -2.1394  0.5580  1.4683
 8767TIP3    H247717   2.192   0.830  14.747 -1.9826  0.0415 -0.0599
 8768TIP3   OH247718   2.590   3.169  17.122 -0.0245  0.1725 -0.4251
 8768TIP3    H147719   2.538   3.101  17.079 -0.5227  1.7587 -2.3978
 8768TIP3    H247720   2.656   3.194  17.058  0.2297  1.4661  0.3125
 8769TIP3   OH247721   1.460   1.581  13.082 -0.4805  0.4051 -0.4697
 8769TIP3    H147722   1.549   1.566  13.051  0.9105  0.7457  3.1480
 8769TIP3    H247723   1.446   1.675  13.070 -1.4569 -0.0510 -3.5670
 8770TIP3   OH247724   0.397   4.897   5.442 -0.2522 -0.0300  0.0765
 8770TIP3    H147725   0.425   4.987   5.428 -0.9102  0.7359  3.4376
 8770TIP3    H247726   0.410   4.855   5.357  2.5532  2.5449 -0.8660
 8771TIP3   OH247727   0.586   2.783   2.293 -0.1965  0.3274 -0.6654
 8771TIP3    H147728   0.577   2.715   2.359  1.2940  0.3909 -0.3732
 8771TIP3    H247729   0.588   2.736   2.210  1.4533 -0.0642 -0.4255
 8772TIP3   OH247730   2.380   1.124  12.311 -0.6201 -0.1306 -0.2911
 8772TIP3    H147731   2.328   1.149  12.235 -1.3621  0.8740  0.5444
 8772TIP3    H247732   2.427   1.203  12.336 -0.0424 -0.5694  0.0533
 8773TIP3   OH247733   0.976   5.141   5.279 -0.0463  0.4537  0.3014
 8773TIP3    H147734   0.982   5.133   5.183  1.4014 -0.9069  0.4817
 8773TIP3    H247735   0.886   5.169   5.295 -0.1127  1.3645 -1.5034
 8774TIP3   OH247736   6.252   3.807  10.857  0.2951  0.0743 -0.2618
 8774TIP3    H147737   6.225   3.715  10.861 -1.6826  0.6502  0.5901
 8774TIP3    H247738   6.287   3.818  10.769 -1.6529 -0.9351 -1.1975
 8775TIP3   OH247739   3.556   6.247  10.606  0.2180 -0.2667  0.2370
 8775TIP3    H147740   3.616   6.201  10.666  0.5670 -0.0384  0.0634
 8775TIP3    H247741   3.605   6.253  10.524 -0.3113 -0.6891 -0.1057
 8776TIP3   OH247742   1.865   3.960   5.018  0.1626 -0.3072  0.4715
 8776TIP3    H147743   1.891   4.040   4.971 -0.5429 -0.3977 -0.0789
 8776TIP3    H247744   1.772   3.972   5.035  0.2684 -0.5913  1.2434
 8777TIP3   OH247745   1.479   1.879  13.041  0.6182  0.6750 -0.2818
 8777TIP3    H147746   1.556   1.857  12.988  0.8375  1.7942 -0.4451
 8777TIP3    H247747   1.515   1.921  13.119  0.3682 -2.2317  1.4314
 8778TIP3   OH247748   4.523   6.238   4.811  0.0103  0.0000  0.6376
 8778TIP3    H147749   4.471   6.317   4.829 -1.9004 -1.3840  1.3465
 8778TIP3    H247750   4.514   6.186   4.891 -1.4192 -2.3732 -1.0130
 8779TIP3   OH247751   6.377   1.949   1.225 -0.3757  0.0911  0.0512
 8779TIP3    H147752   6.353   2.029   1.180  0.3925  0.2289 -0.1144
 8779TIP3    H247753   6.358   1.966   1.317 -1.4209  0.0032 -0.1402
 8780TIP3   OH247754   0.587   3.491  16.171  0.2791 -0.0939  0.0180
 8780TIP3    H147755   0.572   3.539  16.252  1.8259  1.8544 -0.7963
 8780TIP3    H247756   0.505   3.501  16.122  0.0029  0.3346  0.5600
 8781TIP3   OH247757   4.584   1.110  11.616 -0.0649  0.2184 -0.1211
 8781TIP3    H147758   4.621   1.185  11.569  0.3466  0.1451  0.0882
 8781TIP3    H247759   4.502   1.092  11.570  0.1021  0.4506 -0.5169
 8782TIP3   OH247760   6.726   3.245  15.666 -0.0545 -0.1928  0.0240
 8782TIP3    H147761   6.651   3.205  15.621 -0.6418  0.9831 -0.0599
 8782TIP3    H247762   6.800   3.228  15.609 -0.7086  0.8376 -1.1551
 8783TIP3   OH247763   5.171   2.766  11.048  0.0824 -0.3771  0.0128
 8783TIP3    H147764   5.237   2.817  11.095 -1.7643  0.2731  1.9637
 8783TIP3    H247765   5.181   2.793  10.957  0.2462  2.2538  0.7570
 8784TIP3   OH247766   0.803   1.147  15.799  0.3162 -0.3249 -0.0962
 8784TIP3    H147767   0.799   1.233  15.841 -1.1740 -0.6273  0.4226
 8784TIP3    H247768   0.715   1.134  15.764  0.9866 -0.9484 -1.5970
 8785TIP3   OH247769   2.442   0.651  10.521 -0.1501 -0.2158 -0.1239
 8785TIP3    H147770   2.351   0.673  10.504 -0.4241 -1.2379 -0.0069
 8785TIP3    H247771   2.477   0.626  10.436 -0.3976 -1.2979  0.0837
 8786TIP3   OH247772   3.413   0.818  12.860  0.6671 -0.0321  0.2368
 8786TIP3    H147773   3.449   0.889  12.807  0.9164  0.4571  1.0500
 8786TIP3    H247774   3.318   0.822  12.844  0.4910  1.5373  1.5291
 8787TIP3   OH247775   6.024   0.791   4.594 -0.1978 -0.2571  0.2340
 8787TIP3    H147776   6.012   0.696   4.595 -1.9597 -0.0565  1.0604
 8787TIP3    H247777   6.069   0.811   4.676  1.7249 -0.5378 -0.7303
 8788TIP3   OH247778   5.574   3.333   3.993  0.0704  0.2636 -0.4943
 8788TIP3    H147779   5.540   3.349   3.905 -1.0366  0.8920  0.0434
 8788TIP3    H247780   5.572   3.418   4.036 -2.8814 -0.6225  1.3333
 8789TIP3   OH247781   0.996   5.571  14.005  0.3244  0.2630 -0.4241
 8789TIP3    H147782   0.946   5.652  14.016 -0.4761 -0.2070 -0.6189
 8789TIP3    H247783   1.086   5.597  14.026 -0.2448  0.7426  1.5519
 8790TIP3   OH247784   4.202   5.941   1.886 -0.3957  0.1162  0.1148
 8790TIP3    H147785   4.167   5.856   1.909  0.4457  0.1107  1.4093
 8790TIP3    H247786   4.247   5.971   1.965 -0.2523  1.5331 -0.4883
 8791TIP3   OH247787   1.206   4.208   5.772  0.4803  0.1101 -0.1896
 8791TIP3    H147788   1.200   4.234   5.864  0.3575  1.6819 -0.6366
 8791TIP3    H247789   1.137   4.142   5.762  1.8102 -1.5709  1.3171
 8792TIP3   OH247790   1.057   4.214   1.774 -0.6635  0.0117 -0.0093
 8792TIP3    H147791   1.041   4.269   1.698 -1.5917  1.4839  1.2311
 8792TIP3    H247792   1.092   4.133   1.737 -0.7850  0.8153 -1.9730
 8793TIP3   OH247793   5.540   2.423  16.193 -0.8594  0.2309  0.1026
 8793TIP3    H147794   5.480   2.363  16.149 -1.3653  0.4697  0.4652
 8793TIP3    H247795   5.627   2.395  16.165 -1.1651  0.2542 -0.9066
 8794TIP3   OH247796   0.820   5.279  16.639  0.1085  0.3792 -0.0627
 8794TIP3    H147797   0.862   5.338  16.577  0.3060 -1.2258 -1.4868
 8794TIP3    H247798   0.891   5.249  16.696  0.1170  1.0392  0.2732
 8795TIP3   OH247799   3.775   5.239  14.354  1.3613 -0.3109 -0.3364
 8795TIP3    H147800   3.812   5.273  14.273  0.9931  0.9113 -0.0097
 8795TIP3    H247801   3.741   5.153  14.331 -1.1602  1.0919 -2.1840
 8796TIP3   OH247802   6.368   5.909   2.669 -0.0480  0.4946  0.3216
 8796TIP3    H147803   6.368   5.892   2.575 -3.2691 -0.6074  0.4816
 8796TIP3    H247804   6.393   6.001   2.677  0.0342  0.6473 -1.6308
 8797TIP3   OH247805   1.474   4.879  12.737  0.1210  0.2451 -0.3204
 8797TIP3    H147806   1.517   4.797  12.711  1.7972  0.3331  1.9744
 8797TIP3    H247807   1.493   4.940  12.665  2.1832 -0.3025 -0.2828
 8798TIP3   OH247808   0.018   0.651   4.296  0.1783 -0.0919  0.4148
 8798TIP3    H147809   0.065   0.678   4.375 -0.6841  2.2710  0.1806
 8798TIP3    H247810  -0.066   0.696   4.302 -0.1413 -0.4000 -1.5246
 8799TIP3   OH247811   0.682   4.664  15.975 -0.1642 -0.2582  0.1003
 8799TIP3    H147812   0.691   4.717  15.896 -1.8590  1.1207  0.7888
 8799TIP3    H247813   0.725   4.581  15.954  2.6095  1.3887 -0.9984
 8800TIP3   OH247814   5.265   1.551  15.646  0.5595  0.0191  0.2805
 8800TIP3    H147815   5.318   1.615  15.599  2.4224 -0.0094  2.2465
 8800TIP3    H247816   5.176   1.586  15.642  1.3032  1.9432  0.0051
 8801TIP3   OH247817   4.953   3.622  10.923  0.8082 -0.1118  0.1708
 8801TIP3    H147818   5.022   3.677  10.960  1.2637  1.0437 -2.2778
 8801TIP3    H247819   4.881   3.628  10.987  0.2361  4.6605 -0.6849
 8802TIP3   OH247820   3.632   4.086  14.965  0.4941  0.0970  0.3478
 8802TIP3    H147821   3.629   4.003  15.012  2.0686  0.4494  1.1202
 8802TIP3    H247822   3.692   4.140  15.017  0.3774  1.3232 -0.7698
 8803TIP3   OH247823   4.934   2.763  13.557  0.2524 -0.1097 -0.0564
 8803TIP3    H147824   5.002   2.830  13.559  0.8198 -0.6991  0.4901
 8803TIP3    H247825   4.873   2.787  13.627  0.2632  0.0303 -0.0962
 8804TIP3   OH247826   0.485   1.974  10.757 -0.0114  0.2667  0.0747
 8804TIP3    H147827   0.460   1.940  10.843 -0.7074 -0.0877 -0.2624
 8804TIP3    H247828   0.534   1.903  10.716  1.5187  0.9291  0.6992
 8805TIP3   OH247829   2.135   2.759  16.785 -0.2950 -0.0340  0.6319
 8805TIP3    H147830   2.196   2.819  16.743  1.9230 -1.1998  2.0981
 8805TIP3    H247831   2.113   2.695  16.717 -0.3056  0.6765 -0.0426
 8806TIP3   OH247832   1.893   5.708  16.900  0.3143 -0.3973  0.4551
 8806TIP3    H147833   1.890   5.708  16.996 -1.4234  0.3776  0.4194
 8806TIP3    H247834   1.935   5.790  16.877 -3.6746  1.7981  0.5101
 8807TIP3   OH247835   4.698   3.056   4.783  0.3762 -0.0026 -0.0797
 8807TIP3    H147836   4.660   3.121   4.723  1.7688  2.4606  1.5931
 8807TIP3    H247837   4.792   3.074   4.781  0.5916 -0.7782  1.7809
 8808TIP3   OH247838   4.024   1.475  14.553  0.2311 -0.9106  0.2265
 8808TIP3    H147839   4.024   1.473  14.649  2.8277  0.5088  0.3189
 8808TIP3    H247840   4.008   1.384  14.527  1.5313 -1.7116  2.0697
 8809TIP3   OH247841   3.389   1.172  13.501  0.1378 -0.4704  0.1497
 8809TIP3    H147842   3.408   1.095  13.555 -0.8806  0.2511  1.5360
 8809TIP3    H247843   3.299   1.196  13.524 -0.4020 -0.2763 -2.0125
 8810TIP3   OH247844   2.294   1.103  11.985 -0.6306  0.3444  0.3386
 8810TIP3    H147845   2.336   1.155  11.916 -0.2624  0.0709  0.3562
 8810TIP3    H247846   2.241   1.166  12.034 -1.1518  0.4897 -0.3919
 8811TIP3   OH247847   5.300   0.067  15.793 -0.0713 -0.2914 -0.3146
 8811TIP3    H147848   5.333   0.046  15.880  3.2224 -1.7434 -1.8164
 8811TIP3    H247849   5.242  -0.005  15.770  0.6814 -0.9626 -0.1217
 8812TIP3   OH247850   5.868   2.772  15.757 -0.2834  0.0278  0.3337
 8812TIP3    H147851   5.807   2.767  15.682 -0.0747  1.4871  0.0428
 8812TIP3    H247852   5.920   2.692  15.751 -0.4940 -0.0311 -0.8859
 8813TIP3   OH247853   2.211   6.660   5.342 -0.0543  0.0862  0.2662
 8813TIP3    H147854   2.198   6.675   5.248 -0.8237  1.9810  0.6413
 8813TIP3    H247855   2.304   6.675   5.355  0.4767 -2.2608 -0.5179
 8814TIP3   OH247856   6.787   6.051  13.636  0.2481 -0.5103  0.3698
 8814TIP3    H147857   6.742   6.131  13.607  0.0037 -0.1904  1.6206
 8814TIP3    H247858   6.875   6.059  13.599  0.1084  0.1438  0.1572
 8815TIP3   OH247859   2.303   1.789   4.677 -0.6299  0.1092  0.0216
 8815TIP3    H147860   2.321   1.725   4.746 -2.5402  0.4144  0.8340
 8815TIP3    H247861   2.207   1.795   4.675 -0.5235  1.5270 -1.3574
 8816TIP3   OH247862   4.717   6.086   5.755  0.0617  0.8430  0.4319
 8816TIP3    H147863   4.660   6.086   5.679 -0.0046  0.9285  0.4808
 8816TIP3    H247864   4.657   6.078   5.830  0.2528 -1.0849  0.3819
 8817TIP3   OH247865   1.951   0.009  16.808 -0.0334 -0.4185  0.2235
 8817TIP3    H147866   1.880   0.072  16.805 -0.1472 -0.5746 -0.4699
 8817TIP3    H247867   1.986   0.016  16.896  1.0307  1.8223 -0.3463
 8818TIP3   OH247868   4.011   4.127  12.250 -0.5469  0.3030 -0.0605
 8818TIP3    H147869   3.916   4.127  12.262 -0.6227  0.7247 -0.6472
 8818TIP3    H247870   4.040   4.043  12.287 -0.9905  0.7532  1.3010
 8819TIP3   OH247871   5.408   4.674  15.967  0.0876  0.2945 -0.5821
 8819TIP3    H147872   5.445   4.746  16.017  0.3515  0.7234 -1.3803
 8819TIP3    H247873   5.449   4.596  16.003 -0.4556  0.5078  0.5167
 8820TIP3   OH247874   0.855   1.018  17.037 -0.1265 -0.0071 -0.9421
 8820TIP3    H147875   0.933   1.074  17.038 -1.3894  1.7954  1.4816
 8820TIP3    H247876   0.805   1.048  16.961  0.8334 -0.2384 -1.6850
 8821TIP3   OH247877   4.319   0.316  17.097  0.0990 -0.1905 -0.6725
 8821TIP3    H147878   4.226   0.295  17.107  0.4594 -1.0620  0.9736
 8821TIP3    H247879   4.350   0.258  17.028 -0.5644  0.0809 -1.2073
 8822TIP3   OH247880   4.569   5.984  16.022  0.1560  0.3849  0.2274
 8822TIP3    H147881   4.631   6.057  16.008  0.8608 -0.6821 -2.4547
 8822TIP3    H247882   4.624   5.906  16.018 -1.2154 -0.5261 -1.2849
 8823TIP3   OH247883   4.767   3.032   5.454  0.2622  0.8564 -0.6603
 8823TIP3    H147884   4.835   3.078   5.504 -1.2198  2.3893  0.0379
 8823TIP3    H247885   4.769   2.942   5.486  0.8330  1.2995  0.5725
 8824TIP3   OH247886   0.311   3.509  10.727 -0.1184  0.2010  0.5260
 8824TIP3    H147887   0.342   3.423  10.701  0.8233  0.1166  1.8993
 8824TIP3    H247888   0.367   3.570  10.678 -1.4308  0.0613 -1.2042
 8825TIP3   OH247889   6.693   2.158   3.847  0.4946 -0.9461 -0.2724
 8825TIP3    H147890   6.779   2.156   3.804  0.6380 -2.5550  0.0865
 8825TIP3    H247891   6.712   2.175   3.939  0.3734 -0.5999 -0.3085
 8826TIP3   OH247892   0.641   3.403  14.830 -0.6272 -0.0748  0.1602
 8826TIP3    H147893   0.678   3.434  14.912 -0.5355  0.5180 -0.1029
 8826TIP3    H247894   0.701   3.334  14.800 -1.7067 -1.6890  1.5717
 8827TIP3   OH247895   6.646   0.326  13.161 -1.0016 -0.2637  0.3072
 8827TIP3    H147896   6.654   0.237  13.197 -0.2698  0.4636  1.9818
 8827TIP3    H247897   6.592   0.373  13.224 -1.9164  0.3306 -0.9001
 8828TIP3   OH247898   4.418   2.290  10.812  0.3767  0.3258  0.1655
 8828TIP3    H147899   4.470   2.214  10.839  0.9935  0.8501  0.4793
 8828TIP3    H247900   4.480   2.347  10.768 -0.1140  0.5899 -0.1874
 8829TIP3   OH247901   2.863   4.151   1.404 -0.3869 -0.1789 -0.0646
 8829TIP3    H147902   2.878   4.212   1.476  1.1126 -1.2854  0.5919
 8829TIP3    H247903   2.915   4.186   1.331  0.2532 -0.5315  0.2254
 8830TIP3   OH247904   3.342   2.984  11.765 -0.4849 -0.3628 -0.0896
 8830TIP3    H147905   3.381   2.909  11.720  0.3057  0.8566 -1.4671
 8830TIP3    H247906   3.377   2.980  11.854 -0.9945 -2.0126  0.0541
 8831TIP3   OH247907   5.584   0.962  12.647 -0.0517  0.0696  0.4568
 8831TIP3    H147908   5.634   0.887  12.615  0.3190  0.1531  0.8362
 8831TIP3    H247909   5.643   1.007  12.707 -0.5790  0.1674  0.9154
 8832TIP3   OH247910   5.293   4.906   0.125 -0.2125 -0.5283 -0.0079
 8832TIP3    H147911   5.385   4.900   0.151 -0.0850 -0.6185 -0.4891
 8832TIP3    H247912   5.271   4.999   0.136  0.2346 -0.3131 -0.9341
 8833TIP3   OH247913   4.267   5.874   5.692 -0.3192  0.0513  0.4442
 8833TIP3    H147914   4.275   5.938   5.763 -0.2015  0.8081 -0.2448
 8833TIP3    H247915   4.182   5.833   5.706 -1.5538  2.1671 -0.5759
 8834TIP3   OH247916   6.776   4.807   3.069 -0.4130  0.5972 -0.1534
 8834TIP3    H147917   6.737   4.876   3.016 -1.6114  0.7155  0.8661
 8834TIP3    H247918   6.715   4.733   3.063  0.0995  0.1507 -0.0178
 8835TIP3   OH247919   5.951   0.146  16.791  0.3381 -0.2439  0.7097
 8835TIP3    H147920   5.916   0.228  16.756 -1.5329 -1.5208 -0.4749
 8835TIP3    H247921   5.989   0.102  16.715  0.2493 -1.0222  1.1133
 8836TIP3   OH247922   3.199   4.792  16.961  0.1740  0.0891 -0.1373
 8836TIP3    H147923   3.289   4.805  16.991  0.2835  0.5360 -0.6535
 8836TIP3    H247924   3.185   4.862  16.897 -0.3899 -0.2463 -0.3801
 8837TIP3   OH247925   4.939   1.594   5.564 -0.2837 -0.4784 -0.0176
 8837TIP3    H147926   4.869   1.634   5.615 -0.8197 -0.4469 -0.7713
 8837TIP3    H247927   4.943   1.503   5.595 -0.1844 -0.2874  0.5204
 8838TIP3   OH247928   6.525   2.951  10.461  0.4058  0.6020 -0.0990
 8838TIP3    H147929   6.539   2.862  10.494 -0.3938  0.5898  0.2257
 8838TIP3    H247930   6.542   3.007  10.536 -0.3558  0.6389  0.0539
 8839TIP3   OH247931   5.811   6.320  15.151  0.1020 -0.2747  0.7616
 8839TIP3    H147932   5.876   6.362  15.207  0.2971 -0.1574  0.4471
 8839TIP3    H247933   5.863   6.273  15.085 -0.0723 -2.0181  1.8286
 8840TIP3   OH247934   1.219   3.696   3.570  0.1782 -0.3081 -0.3273
 8840TIP3    H147935   1.125   3.680   3.565  0.5046 -2.3398 -0.3480
 8840TIP3    H247936   1.250   3.687   3.480  0.5485 -0.7248 -0.1625
 8841TIP3   OH247937   1.257   6.674  14.961  0.1471  0.1854  0.1036
 8841TIP3    H147938   1.204   6.636  14.891  0.0716  2.5623 -1.1665
 8841TIP3    H247939   1.346   6.675  14.927  0.2837  0.3682  0.4621
 8842TIP3   OH247940   3.829   1.009  13.495 -0.1087  0.5223 -0.1640
 8842TIP3    H147941   3.835   0.942  13.427 -0.8157  0.4644 -0.1790
 8842TIP3    H247942   3.846   1.092  13.450 -1.6618  0.5976 -0.6393
 8843TIP3   OH247943   0.953   3.611   2.173  0.2368 -0.5713 -0.1855
 8843TIP3    H147944   0.860   3.587   2.180  0.1383 -0.5946 -1.3811
 8843TIP3    H247945   0.999   3.546   2.225 -0.3388 -1.2059 -0.4663
 8844TIP3   OH247946   1.004   3.063   2.552  0.2713  0.5839  0.1272
 8844TIP3    H147947   1.048   3.135   2.598 -0.1542  0.7277  0.3120
 8844TIP3    H247948   0.947   3.106   2.488  0.6888  0.3891 -0.3816
 8845TIP3   OH247949   6.600   5.185  11.264  0.3743 -0.2979 -0.3867
 8845TIP3    H147950   6.654   5.248  11.216  0.3163  0.7148  0.8599
 8845TIP3    H247951   6.604   5.214  11.355  0.8602 -2.4452  0.3211
 8846TIP3   OH247952   0.764   5.275   5.329 -0.6526 -0.3480  0.6459
 8846TIP3    H147953   0.747   5.369   5.323 -0.7615 -0.4737 -1.0972
 8846TIP3    H247954   0.691   5.241   5.381 -0.6501  0.5099  1.2254
 8847TIP3   OH247955   5.612   4.732  13.468  0.3080  0.2265 -0.9722
 8847TIP3    H147956   5.684   4.672  13.489  1.3354  1.7926  0.1727
 8847TIP3    H247957   5.637   4.771  13.384  0.2521 -0.0284 -1.1072
 8848TIP3   OH247958   3.591   4.088  12.327 -0.6082  0.3194  0.2149
 8848TIP3    H147959   3.583   4.159  12.391  1.2512  1.2539 -0.5444
 8848TIP3    H247960   3.641   4.127  12.255 -0.5500 -1.4420 -0.7045
 8849TIP3   OH247961   4.170   5.649  16.115  0.1438  0.0157  0.7736
 8849TIP3    H147962   4.238   5.640  16.048  0.4453 -2.0626  1.3409
 8849TIP3    H247963   4.189   5.581  16.179 -2.9069 -1.1182  0.5583
 8850TIP3   OH247964   3.475   3.401  12.688 -0.1672  0.4454  0.3266
 8850TIP3    H147965   3.538   3.371  12.622  1.1166  0.5038  1.4846
 8850TIP3    H247966   3.422   3.324  12.707  0.4407  0.0138  0.3075
 8851TIP3   OH247967   1.090   3.780  16.767  0.0199 -0.1830 -0.2017
 8851TIP3    H147968   1.022   3.713  16.758  0.9897 -0.8115 -3.2325
 8851TIP3    H247969   1.057   3.854  16.715  0.1107  0.7863  1.0945
 8852TIP3   OH247970   5.778   0.865  13.096 -0.4972  0.0369  0.3554
 8852TIP3    H147971   5.764   0.770  13.094 -0.5889  0.0493  0.4091
 8852TIP3    H247972   5.778   0.887  13.189  0.2087 -0.0114  0.3658
 8853TIP3   OH247973   1.689   4.407   1.237 -0.3353 -0.1731 -0.1095
 8853TIP3    H147974   1.697   4.314   1.258  1.2625  0.1458  0.7086
 8853TIP3    H247975   1.758   4.450   1.287 -0.2577  1.3126 -1.4426
 8854TIP3   OH247976   2.343   6.411   5.615 -0.1304 -0.8640 -1.2116
 8854TIP3    H147977   2.359   6.385   5.705  0.5465  1.0254 -0.7749
 8854TIP3    H247978   2.414   6.369   5.565  1.2624  0.5277 -0.4398
 8855TIP3   OH247979   6.023   1.043  13.075 -0.5634  0.4502  0.0166
 8855TIP3    H147980   6.110   1.005  13.059 -0.0992  0.9797  1.1799
 8855TIP3    H247981   5.970   1.013  13.002  0.3518 -0.6776 -0.2050
 8856TIP3   OH247982   3.514   4.277   4.426 -0.1672  0.1622  0.5219
 8856TIP3    H147983   3.491   4.186   4.410 -0.5727  0.7303 -2.3375
 8856TIP3    H247984   3.431   4.324   4.422  0.4233  1.0934 -1.4781
 8857TIP3   OH247985   0.095   4.639   5.672  0.5932 -0.4840 -0.1650
 8857TIP3    H147986   0.090   4.709   5.607  0.5954 -1.3929 -1.1554
 8857TIP3    H247987   0.048   4.674   5.748  1.8982  1.1818 -0.0951
 8858TIP3   OH247988   1.967   5.580  12.600 -0.8340 -0.1947 -0.3854
 8858TIP3    H147989   2.019   5.628  12.666 -3.6457  1.5968  0.6125
 8858TIP3    H247990   1.952   5.644  12.531 -1.2120 -0.8937 -0.9483
 8859TIP3   OH247991   2.169   3.123   2.944 -0.5188  0.4263  0.1262
 8859TIP3    H147992   2.201   3.034   2.927  0.3048  0.7759 -0.1471
 8859TIP3    H247993   2.139   3.120   3.035  0.9009  0.2683  0.6062
 8860TIP3   OH247994   2.385   0.025   0.633 -0.7061  0.5490 -0.1438
 8860TIP3    H147995   2.472  -0.001   0.603  1.1329  2.0928  3.5196
 8860TIP3    H247996   2.339  -0.057   0.649  0.4853 -0.2944 -0.9515
 8861TIP3   OH247997   2.172   5.491  11.186 -0.3599  0.5204 -0.3628
 8861TIP3    H147998   2.179   5.487  11.090 -0.2302  0.3941 -0.3487
 8861TIP3    H247999   2.084   5.526  11.202 -0.3507  0.6197 -0.5287
 8862TIP3   OH248000   6.247   4.200   3.447  0.1481  0.0705 -0.3016
 8862TIP3    H148001   6.329   4.248   3.440  0.7998 -0.9662  0.0620
 8862TIP3    H248002   6.212   4.223   3.533  1.5385 -1.7452  0.7921
 8863TIP3   OH248003   1.745   1.394   4.637 -0.4189  0.0389  0.2243
 8863TIP3    H148004   1.650   1.395   4.651 -0.1182  0.3955  2.4090
 8863TIP3    H248005   1.761   1.466   4.576 -1.2667  1.7776  2.0133
 8864TIP3   OH248006   5.620   5.262  12.869 -0.2120  0.2771 -0.9683
 8864TIP3    H148007   5.562   5.269  12.792  1.6051  1.3009 -2.2856
 8864TIP3    H248008   5.706   5.239  12.832  0.2456 -1.2389  0.9586
 8865TIP3   OH248009   6.334   1.695  14.823 -0.1100 -0.0598 -0.1545
 8865TIP3    H148010   6.343   1.790  14.825 -0.2435 -0.0613  0.5665
 8865TIP3    H248011   6.424   1.663  14.815  0.0320  0.1049  0.6710
 8866TIP3   OH248012   3.814   5.582   2.184  0.6864 -0.0235  0.5383
 8866TIP3    H148013   3.760   5.511   2.150  1.0283  0.5123 -1.1387
 8866TIP3    H248014   3.847   5.549   2.268 -1.6941 -0.6078  1.2834
 8867TIP3   OH248015   3.154   2.409   6.143  0.3942 -0.8256 -0.1658
 8867TIP3    H148016   3.178   2.323   6.177 -0.6027 -1.7847 -1.8272
 8867TIP3    H248017   3.060   2.415   6.158  0.3743 -0.2420 -0.5284
 8868TIP3   OH248018   3.666   0.337  16.178 -0.2230 -0.3988  0.3221
 8868TIP3    H148019   3.710   0.389  16.111 -1.3911  1.3646  0.9023
 8868TIP3    H248020   3.708   0.363  16.260 -3.1664  2.3009  1.0594
 8869TIP3   OH248021   6.079   4.275   1.287  0.1855  0.0594  0.4016
 8869TIP3    H148022   6.106   4.263   1.377 -0.4108  0.8717  0.6968
 8869TIP3    H248023   6.113   4.198   1.241 -0.5663 -0.9847  1.5507
 8870TIP3   OH248024   6.343   4.919   4.259 -0.3155 -0.0565  0.0333
 8870TIP3    H148025   6.333   4.983   4.330  1.9023  0.8959 -0.4893
 8870TIP3    H248026   6.263   4.865   4.265 -1.0997  1.2396  1.9804
 8871TIP3   OH248027   0.932   4.672   2.921 -0.1283  0.4818  0.5312
 8871TIP3    H148028   1.019   4.713   2.919 -0.6304  1.5028 -0.8117
 8871TIP3    H248029   0.903   4.682   3.011  0.8308  0.7902  0.8182
 8872TIP3   OH248030   2.062   4.387  13.362 -0.0837 -0.1801  0.1252
 8872TIP3    H148031   2.085   4.318  13.299 -1.0539  0.6506 -1.1662
 8872TIP3    H248032   2.040   4.340  13.442  0.9841 -1.2733 -0.2031
 8873TIP3   OH248033   5.682   1.452  14.597  0.2641  0.2269  0.0434
 8873TIP3    H148034   5.731   1.442  14.515 -0.4314 -1.7922 -0.1568
 8873TIP3    H248035   5.633   1.534  14.586  1.1761  0.6376 -1.0236
 8874TIP3   OH248036   4.918   6.072   3.615 -0.3938 -0.3153  0.1003
 8874TIP3    H148037   5.012   6.089   3.616 -0.1682 -1.5793  1.2319
 8874TIP3    H248038   4.909   5.988   3.571 -0.9218 -0.6341  0.8086
 8875TIP3   OH248039   5.393   1.094  13.588 -0.2385 -0.6612  0.1802
 8875TIP3    H148040   5.417   1.048  13.668  0.5178  0.6729  0.7438
 8875TIP3    H248041   5.335   1.034  13.542  1.4853 -2.5393  0.4234
 8876TIP3   OH248042   3.089   5.801  12.381 -0.1856 -0.2678 -0.5158
 8876TIP3    H148043   3.037   5.835  12.454 -0.0837  1.3751 -1.1949
 8876TIP3    H248044   3.156   5.747  12.422 -0.5550  0.0901  0.5674
 8877TIP3   OH248045   1.412   6.086  12.473  0.2155  0.2020  0.3676
 8877TIP3    H148046   1.433   6.077  12.380 -3.3702  1.0021 -0.6072
 8877TIP3    H248047   1.381   6.000  12.500 -0.2704  0.3769  0.3815
 8878TIP3   OH248048   5.936   3.753  15.977 -0.3961 -0.2595 -0.0531
 8878TIP3    H148049   6.016   3.767  16.028 -0.7355  1.8508 -0.0451
 8878TIP3    H248050   5.866   3.749  16.042 -0.8496  2.5975 -0.2817
 8879TIP3   OH248051   3.779   1.584   2.558  0.4387 -0.6502 -0.3248
 8879TIP3    H148052   3.770   1.678   2.578  0.1314 -0.4410 -1.3726
 8879TIP3    H248053   3.865   1.560   2.591 -0.7636 -0.7729  2.8442
 8880TIP3   OH248054   5.872   4.400  13.645  0.2114  0.1418  0.4545
 8880TIP3    H148055   5.954   4.383  13.690  1.0665 -0.5459 -1.3055
 8880TIP3    H248056   5.810   4.339  13.685  1.1985 -1.1864  0.0204
 8881TIP3   OH248057   2.963   4.476   6.399 -0.8163 -0.4307  0.0420
 8881TIP3    H148058   2.905   4.529   6.345 -0.2730  0.1581  0.0305
 8881TIP3    H248059   2.905   4.433   6.462 -1.2313  0.4311  0.2564
 8882TIP3   OH248060   1.438   5.101   4.286  0.1112 -0.6228  0.0240
 8882TIP3    H148061   1.472   5.097   4.196 -1.7301 -1.0957 -0.6595
 8882TIP3    H248062   1.345   5.082   4.278 -0.2473  0.1850  1.9436
 8883TIP3   OH248063   2.220   5.482  15.681 -0.4264 -0.0625 -0.7312
 8883TIP3    H148064   2.170   5.492  15.763  0.9414 -0.4459  0.1666
 8883TIP3    H248065   2.162   5.518  15.614 -1.3909  0.7013  0.4724
 8884TIP3   OH248066   0.608   2.647   2.066  0.3716 -0.3100  0.3722
 8884TIP3    H148067   0.691   2.661   2.022  1.4058 -1.9339  1.7562
 8884TIP3    H248068   0.543   2.652   1.996  1.7800 -0.7649 -0.9969
 8885TIP3   OH248069   5.242   2.897   1.608 -0.1678 -0.0341  0.4835
 8885TIP3    H148070   5.253   2.989   1.634  0.0279  0.4658 -1.3110
 8885TIP3    H248071   5.154   2.874   1.638 -0.4633  0.9364  0.3974
 8886TIP3   OH248072   1.723   4.019  11.746 -0.5610  0.3655  0.0912
 8886TIP3    H148073   1.804   4.013  11.696 -0.5118 -0.0846  0.2221
 8886TIP3    H248074   1.719   4.110  11.775  0.9872 -0.1081  1.9042
 8887TIP3   OH248075   4.894   4.932   5.813 -0.6975  0.4723  0.8684
 8887TIP3    H148076   4.920   4.842   5.798 -0.3318  0.2909  2.4593
 8887TIP3    H248077   4.798   4.930   5.815 -0.7731  0.5819 -1.7264
 8888TIP3   OH248078   5.487   4.876  16.401 -0.3255  0.3534  0.0893
 8888TIP3    H148079   5.497   4.943  16.468  0.8636 -0.0044  0.2724
 8888TIP3    H248080   5.529   4.798  16.437  0.1714  0.1086 -0.9805
 8889TIP3   OH248081   6.358   2.954   6.079  0.0663  0.1044  0.4586
 8889TIP3    H148082   6.433   2.967   6.138  0.6071 -0.5418 -0.0892
 8889TIP3    H248083   6.308   3.036   6.087  0.2389  0.1108  1.6564
 8890TIP3   OH248084   1.490   0.433  11.579 -0.3837 -0.0218 -0.8650
 8890TIP3    H148085   1.582   0.444  11.603 -0.9321  1.5877  0.6977
 8890TIP3    H248086   1.478   0.490  11.503  0.2556 -1.4680 -2.0803
 8891TIP3   OH248087   1.657   6.012  15.079 -0.6746  0.1211 -0.0622
 8891TIP3    H148088   1.575   5.997  15.032 -0.1147  1.4001 -1.4968
 8891TIP3    H248089   1.671   6.106  15.073 -1.0617  0.4650  3.5435
 8892TIP3   OH248090   3.563   2.530  11.903  0.0638 -1.4999 -0.0132
 8892TIP3    H148091   3.532   2.445  11.933 -1.9308 -0.6637  0.3936
 8892TIP3    H248092   3.485   2.572  11.866  1.0502  0.0703 -0.3552
 8893TIP3   OH248093   1.273   2.349  16.744 -0.1167  0.3727  0.3126
 8893TIP3    H148094   1.205   2.358  16.811 -0.3773 -1.4780  0.3209
 8893TIP3    H248095   1.352   2.326  16.793 -0.0994 -0.0971  0.0660
 8894TIP3   OH248096   4.823   0.822   1.666  0.5624  0.2410 -0.2831
 8894TIP3    H148097   4.874   0.858   1.593 -0.7585 -0.0266 -1.3529
 8894TIP3    H248098   4.760   0.890   1.687  1.1198  0.4304  0.8201
 8895TIP3   OH248099   4.659   5.201  16.106  0.7307  0.0355  0.3984
 8895TIP3    H148100   4.580   5.254  16.095  0.6475  0.0680  1.1282
 8895TIP3    H248101   4.722   5.259  16.149  1.1437 -0.0013 -0.1512
 8896TIP3   OH248102   5.260   0.958   0.026  0.2205 -0.5103 -0.2348
 8896TIP3    H148103   5.315   1.003  -0.037  0.1746  0.6655  0.5559
 8896TIP3    H248104   5.310   0.879   0.049  1.3857  0.3231  0.1437
 8897TIP3   OH248105   3.772   0.790   6.416  0.1116  0.0817 -0.0369
 8897TIP3    H148106   3.712   0.848   6.369  1.1399  0.8279 -0.4586
 8897TIP3    H248107   3.857   0.835   6.411  0.4121 -0.2318  1.7948
 8898TIP3   OH248108   2.340   5.232  11.985  0.5699 -0.2102  0.0092
 8898TIP3    H148109   2.327   5.219  12.079 -0.2093  0.2453 -0.0367
 8898TIP3    H248110   2.360   5.326  11.977 -0.1258 -0.0953 -0.3661
 8899TIP3   OH248111   0.338   3.898  15.968  0.5073  0.3536  0.3848
 8899TIP3    H148112   0.249   3.933  15.959  0.7059  0.7875  0.0865
 8899TIP3    H248113   0.332   3.810  15.930  0.3107  0.5525 -0.0527
 8900TIP3   OH248114   0.548   1.893   4.750 -0.3264 -0.3451 -1.0520
 8900TIP3    H148115   0.467   1.896   4.801 -0.6789 -2.8340 -1.3929
 8900TIP3    H248116   0.603   1.830   4.797  0.7469  0.0557 -1.7596
 8901TIP3   OH248117   6.339   3.822  13.601 -0.2759  0.0311 -0.5873
 8901TIP3    H148118   6.276   3.789  13.665  0.4150 -1.6684 -0.7815
 8901TIP3    H248119   6.420   3.831  13.650 -1.0602  4.0624  0.1594
 8902TIP3   OH248120   0.459   6.203   0.782  0.3256 -0.4685  0.1707
 8902TIP3    H148121   0.437   6.207   0.875 -0.8450 -0.0883 -0.1177
 8902TIP3    H248122   0.399   6.137   0.747  1.0185 -0.8791 -0.2485
 8903TIP3   OH248123   2.790   1.884  14.582  0.3681  0.0162  0.3685
 8903TIP3    H148124   2.710   1.868  14.532  0.2278 -4.6642  1.7986
 8903TIP3    H248125   2.861   1.872  14.519  0.0335  0.5102 -0.1023
 8904TIP3   OH248126   3.397   2.143   0.382  0.4584 -0.0519  0.3565
 8904TIP3    H148127   3.362   2.231   0.364  0.9217 -0.1204 -0.9299
 8904TIP3    H248128   3.453   2.124   0.307  2.4342 -0.3835  1.8663
 8905TIP3   OH248129   1.134   3.465   0.930 -0.0478  0.0629 -0.0911
 8905TIP3    H148130   1.223   3.432   0.943  0.2449  1.3181  1.2287
 8905TIP3    H248131   1.146   3.549   0.886 -0.6041 -0.0020 -0.3717
 8906TIP3   OH248132   6.449   3.631  16.815  0.1001  0.3767 -0.0876
 8906TIP3    H148133   6.401   3.589  16.886  0.3505  0.7349  0.2946
 8906TIP3    H248134   6.496   3.703  16.857  0.1796  0.6440 -0.6303
 8907TIP3   OH248135   1.943   5.549  13.149  0.2771 -0.0879  0.2700
 8907TIP3    H148136   1.862   5.502  13.130 -1.2897  2.4402  0.4920
 8907TIP3    H248137   1.974   5.511  13.231 -0.2163 -1.6572 -0.2478
 8908TIP3   OH248138   3.383   2.036  15.472 -0.4380  0.0834  0.2134
 8908TIP3    H148139   3.306   2.035  15.415 -0.4817 -2.9297  0.2111
 8908TIP3    H248140   3.354   2.083  15.550 -1.6614  0.6884 -0.5784
 8909TIP3   OH248141   3.164   6.669  11.718 -0.2689  0.1679  0.7643
 8909TIP3    H148142   3.131   6.580  11.703  1.0224 -0.2689  0.4772
 8909TIP3    H248143   3.141   6.688  11.809  2.4136 -1.7657  1.9030
 8910TIP3   OH248144   5.844   1.450  15.798  0.0235  0.6726  0.3761
 8910TIP3    H148145   5.802   1.523  15.752 -0.0076 -0.8155 -2.0255
 8910TIP3    H248146   5.937   1.473  15.798 -0.2049  1.6065  1.2971
 8911TIP3   OH248147   5.057   3.164  13.765  0.3272 -0.3983 -0.3268
 8911TIP3    H148148   4.980   3.215  13.739 -0.4753  0.1047  2.8559
 8911TIP3    H248149   5.126   3.229  13.775  0.4419 -0.4937 -0.5054
 8912TIP3   OH248150   6.406   2.908   5.804  0.7057 -0.6907 -0.0482
 8912TIP3    H148151   6.313   2.923   5.786  0.9261 -0.0958 -0.7358
 8912TIP3    H248152   6.415   2.917   5.899  0.1169 -0.4015 -0.0209
 8913TIP3   OH248153   4.893   1.708   1.547 -0.4985 -0.1226  0.2234
 8913TIP3    H148154   4.897   1.658   1.466  1.3292  0.5893 -0.1352
 8913TIP3    H248155   4.813   1.760   1.539 -1.8446 -2.1318  0.1358
 8914TIP3   OH248156   3.303   1.902   4.242 -0.0371  0.1251  0.4759
 8914TIP3    H148157   3.337   1.981   4.285  0.3963  0.5502 -0.6159
 8914TIP3    H248158   3.246   1.861   4.307 -0.5970  1.5645  0.9030
 8915TIP3   OH248159   3.364   5.535  12.813  0.2532 -0.1100 -0.4179
 8915TIP3    H148160   3.322   5.601  12.868 -0.1496 -0.4390 -0.3257
 8915TIP3    H248161   3.433   5.498  12.869 -0.1578 -0.4450 -0.1332
 8916TIP3   OH248162   2.511   3.747   0.197 -0.5505  0.1353  0.2839
 8916TIP3    H148163   2.433   3.787   0.237 -0.2912 -0.5544  1.5097
 8916TIP3    H248164   2.484   3.724   0.109 -0.9262  2.3637 -0.2102
 8917TIP3   OH248165   3.344   1.610  14.004  0.2621 -0.1350  0.2978
 8917TIP3    H148166   3.356   1.521  13.972  0.0191  1.0313 -3.2566
 8917TIP3    H248167   3.253   1.630  13.986  0.4631  1.0210  0.5151
 8918TIP3   OH248168   6.583   4.270   4.899 -0.0308 -0.3254 -0.3854
 8918TIP3    H148169   6.492   4.280   4.869  0.0723  0.0634 -0.5721
 8918TIP3    H248170   6.610   4.185   4.863 -0.1978 -0.2694 -0.6480
 8919TIP3   OH248171   0.175   6.770  14.961 -0.1080 -0.0369 -0.5104
 8919TIP3    H148172   0.157   6.707  14.891 -0.3300  0.3991 -0.8449
 8919TIP3    H248173   0.252   6.818  14.931 -0.7466  0.7661 -0.8677
 8920TIP3   OH248174   5.725   1.016  12.402 -0.0728 -0.1729  0.4249
 8920TIP3    H148175   5.697   1.104  12.426  0.6083  0.6583 -1.6702
 8920TIP3    H248176   5.644   0.969  12.385 -0.4140  1.2843 -2.4349
 8921TIP3   OH248177   4.541   1.849   1.107 -0.1426 -0.1864  0.1213
 8921TIP3    H148178   4.573   1.765   1.140  1.8486  0.4131 -0.2610
 8921TIP3    H248179   4.549   1.843   1.012  1.3603  0.9480  0.1565
 8922TIP3   OH248180   3.089   6.580  12.141  0.0353  0.2091  0.4983
 8922TIP3    H148181   3.100   6.502  12.087 -0.1694  1.6601 -1.6539
 8922TIP3    H248182   3.102   6.653  12.082 -0.1698  1.8464  2.4156
 8923TIP3   OH248183   2.348   3.190  16.813 -0.0438 -0.0497 -0.3745
 8923TIP3    H148184   2.338   3.216  16.905  1.5368  1.2377 -0.5564
 8923TIP3    H248185   2.393   3.105  16.817 -0.6444 -0.3535  0.0507
 8924TIP3   OH248186   5.369   2.041  12.232  0.0431  0.1846  0.7211
 8924TIP3    H148187   5.350   2.072  12.143  1.1611 -0.7139  0.1500
 8924TIP3    H248188   5.313   1.965  12.244 -0.8573  0.9015  1.1871
 8925TIP3   OH248189   3.902   0.871   4.571 -0.3450  0.0960  0.2256
 8925TIP3    H148190   3.942   0.784   4.563 -0.2181  0.1898 -0.1485
 8925TIP3    H248191   3.902   0.906   4.482  0.0530  0.6829  0.4502
 8926TIP3   OH248192   3.443   5.930  13.311 -0.2830 -0.2301 -0.2847
 8926TIP3    H148193   3.353   5.960  13.300 -0.0399  0.3248 -0.7719
 8926TIP3    H248194   3.450   5.852  13.255 -0.8925 -1.1725  0.9279
 8927TIP3   OH248195   0.832   2.301   2.886 -0.3342  0.5412 -0.0342
 8927TIP3    H148196   0.918   2.342   2.901 -0.5061  0.7716  0.3362
 8927TIP3    H248197   0.772   2.353   2.939 -0.6938  0.3354 -0.2405
 8928TIP3   OH248198   6.625   6.096  13.868 -0.6246  0.1213  0.2174
 8928TIP3    H148199   6.595   6.131  13.784 -0.5648 -1.3542 -0.4326
 8928TIP3    H248200   6.554   6.040  13.899 -0.3525  0.0886  0.8047
 8929TIP3   OH248201   2.809   4.944  14.570 -0.1586 -0.5939  0.0626
 8929TIP3    H148202   2.741   4.879  14.553 -0.8661  0.2102 -0.2678
 8929TIP3    H248203   2.838   4.972  14.483  0.7308 -1.0594  0.2031
 8930TIP3   OH248204   6.164   1.816   0.104  0.0922  0.4498  0.9573
 8930TIP3    H148205   6.148   1.766   0.185 -0.3045 -0.0292  0.5876
 8930TIP3    H248206   6.236   1.770   0.062  0.6904  1.0469  1.3250
 8931TIP3   OH248207   6.678   2.186  13.508 -0.3225  0.5182  0.3092
 8931TIP3    H148208   6.677   2.281  13.498 -1.1063  0.5760  0.8367
 8931TIP3    H248209   6.764   2.167  13.545  0.2900  0.8914 -0.9017
 8932TIP3   OH248210   2.569   2.348  12.548  0.2340  0.1175  0.4289
 8932TIP3    H148211   2.494   2.400  12.575 -0.8133 -0.2742 -1.6043
 8932TIP3    H248212   2.625   2.408  12.499 -0.0600 -0.2193 -0.3269
 8933TIP3   OH248213   3.248   3.482   0.853 -0.5434  0.2644  0.2005
 8933TIP3    H148214   3.233   3.471   0.947  1.0334  0.7357  0.5174
 8933TIP3    H248215   3.337   3.451   0.839 -0.5780  0.7169 -1.0544
 8934TIP3   OH248216   0.538   4.691  13.649  0.0557  0.5252 -0.6181
 8934TIP3    H148217   0.630   4.707  13.671  0.4094 -0.2616 -1.5268
 8934TIP3    H248218   0.521   4.601  13.676  0.1803 -0.0790 -2.4917
 8935TIP3   OH248219   6.006   4.962   3.805  0.1694 -0.1539 -0.1094
 8935TIP3    H148220   5.945   4.921   3.743 -1.9122  1.4735  0.8300
 8935TIP3    H248221   6.071   5.005   3.750  1.3137 -3.0196 -1.1251
 8936TIP3   OH248222   3.673   0.016   0.786  0.7398  0.3737 -0.7156
 8936TIP3    H148223   3.665   0.059   0.701 -1.3116 -0.7360 -1.1299
 8936TIP3    H248224   3.754  -0.034   0.780  0.4069 -0.0152 -2.1911
 8937TIP3   OH248225   2.925   5.034  14.342 -0.5243 -0.2297 -0.0717
 8937TIP3    H148226   2.910   4.948  14.301  1.0294 -0.9302  0.7538
 8937TIP3    H248227   3.014   5.027  14.378 -0.3602  1.7602 -0.0545
 8938TIP3   OH248228   3.056   3.604   0.183  0.3333  0.7429  0.9276
 8938TIP3    H148229   3.085   3.514   0.189 -1.3070  0.1819  0.7578
 8938TIP3    H248230   3.005   3.618   0.264 -0.4697  1.1086  0.3634
 8939TIP3   OH248231   6.144   4.623  16.691 -0.0560 -0.0049 -0.1228
 8939TIP3    H148232   6.163   4.714  16.713 -1.2095 -0.0388  1.0942
 8939TIP3    H248233   6.085   4.628  16.616  0.9890  0.2000 -0.9479
 8940TIP3   OH248234   3.896   2.334   2.128  0.0618 -0.1991  0.4615
 8940TIP3    H148235   3.918   2.407   2.069  2.6341 -2.0287 -0.8945
 8940TIP3    H248236   3.851   2.271   2.071  1.8474 -1.6250  0.6182
 8941TIP3   OH248237   5.610   5.688   4.959 -0.5508  0.5970  0.2177
 8941TIP3    H148238   5.624   5.762   4.900 -0.7248 -0.8575 -1.7247
 8941TIP3    H248239   5.516   5.686   4.974 -0.7859 -0.3293 -1.2640
 8942TIP3   OH248240   0.236   4.499   0.331 -0.2689 -0.1843 -0.7559
 8942TIP3    H148241   0.332   4.502   0.337 -0.3012  1.7584 -1.0414
 8942TIP3    H248242   0.206   4.559   0.398 -1.3803 -2.4309  0.8183
 8943TIP3   OH248243   0.957   5.338   2.486 -0.1270 -0.1208 -0.2294
 8943TIP3    H148244   0.948   5.428   2.519 -1.3519 -0.3458  0.1140
 8943TIP3    H248245   0.869   5.302   2.495  0.2385 -1.1786 -0.8972
 8944TIP3   OH248246   1.433   2.079   3.528 -0.2386 -0.1588  0.4991
 8944TIP3    H148247   1.392   2.142   3.468  0.4475  0.6690  0.8844
 8944TIP3    H248248   1.520   2.066   3.492 -0.3229 -0.7750  0.5153
 8945TIP3   OH248249   4.769   6.325   4.716 -0.5802  0.0076  0.1804
 8945TIP3    H148250   4.698   6.284   4.765 -0.2690 -1.4237 -0.5218
 8945TIP3    H248251   4.785   6.265   4.643  1.0106  0.5714  0.0473
 8946TIP3   OH248252   1.712   5.070  14.800  0.0851  0.2740 -0.2689
 8946TIP3    H148253   1.729   5.149  14.852  0.7979 -0.8548  1.2408
 8946TIP3    H248254   1.630   5.036  14.835  1.5492 -1.5659  1.5204
 8947TIP3   OH248255   0.364   0.125   6.558  0.3673 -0.5301  0.1773
 8947TIP3    H148256   0.271   0.104   6.567 -0.0148  1.1229  0.2146
 8947TIP3    H248257   0.395   0.068   6.487 -0.3673 -1.9721  0.9908
 8948TIP3   OH248258   4.764   2.521  15.444 -0.1974  0.2846 -0.2278
 8948TIP3    H148259   4.776   2.467  15.522 -0.2070 -0.8751 -1.0086
 8948TIP3    H248260   4.843   2.505  15.392 -0.3692  0.7358 -0.6337
 8949TIP3   OH248261   2.518   5.894   5.327  0.3460 -0.3289 -0.4414
 8949TIP3    H148262   2.585   5.961   5.313  0.8354 -1.0398 -1.6284
 8949TIP3    H248263   2.563   5.811   5.311 -0.9735 -0.7810 -1.9710
 8950TIP3   OH248264   3.350   5.829   1.373 -0.1422  0.0907 -0.0954
 8950TIP3    H148265   3.400   5.782   1.441 -0.5606  0.7617  0.6888
 8950TIP3    H248266   3.312   5.904   1.419 -1.4228 -0.1113 -0.7964
 8951TIP3   OH248267   3.634   4.466  14.044  0.1525 -0.1467 -0.6504
 8951TIP3    H148268   3.638   4.427  13.956  2.2118 -0.1311 -0.5957
 8951TIP3    H248269   3.583   4.546  14.032 -2.4750 -1.8213 -1.1472
 8952TIP3   OH248270   1.562   2.662   3.726 -0.0440  0.1938 -0.6801
 8952TIP3    H148271   1.610   2.678   3.807 -0.9751 -0.1395 -0.0608
 8952TIP3    H248272   1.538   2.749   3.694  0.9156  0.3581 -0.9578
 8953TIP3   OH248273   0.699   6.057  13.829 -0.4909 -0.9933 -0.2322
 8953TIP3    H148274   0.730   5.983  13.880 -0.3587 -0.1951  0.8718
 8953TIP3    H248275   0.773   6.118  13.829 -0.5411 -0.9264 -1.2614
 8954TIP3   OH248276   4.136   6.684   1.098  0.2383 -0.2273 -0.2210
 8954TIP3    H148277   4.168   6.630   1.171  0.9355  3.4459  2.3105
 8954TIP3    H248278   4.049   6.713   1.126  1.0757  2.3471 -0.1728
 8955TIP3   OH248279   1.778   1.350  11.655  0.3044 -0.3131 -0.3282
 8955TIP3    H148280   1.716   1.379  11.589 -1.1138 -0.5881  0.8588
 8955TIP3    H248281   1.739   1.376  11.738  0.8723 -2.1584  0.5364
 8956TIP3   OH248282   1.191   2.009   0.758 -0.2848 -0.0972 -0.3710
 8956TIP3    H148283   1.184   2.096   0.719  1.0099 -0.8099 -2.3157
 8956TIP3    H248284   1.221   2.024   0.847  2.3520  1.3853 -1.4441
 8957TIP3   OH248285   4.711   6.321  14.977  0.1583 -0.1988  0.2452
 8957TIP3    H148286   4.770   6.291  14.907 -0.7881  1.5061 -1.3126
 8957TIP3    H248287   4.624   6.293  14.948 -0.3026  0.9684  0.4806
 8958TIP3   OH248288   5.641   5.075   3.120 -1.1216  0.3103 -0.3097
 8958TIP3    H148289   5.670   5.097   3.031 -0.9588  0.9689 -0.0974
 8958TIP3    H248290   5.614   5.159   3.158  0.2823  0.2946  0.7936
 8959TIP3   OH248291   2.392   3.458  11.736  0.0456 -0.5257  0.0381
 8959TIP3    H148292   2.405   3.367  11.710  0.8880 -0.8046  1.3520
 8959TIP3    H248293   2.298   3.467  11.748  0.0681 -1.5493  1.0364
 8960TIP3   OH248294   6.696   6.365  15.346 -0.3137 -0.4406 -0.1036
 8960TIP3    H148295   6.723   6.451  15.313 -0.6472 -0.4850 -0.4913
 8960TIP3    H248296   6.750   6.352  15.425 -0.0550 -0.0057 -0.2063
 8961TIP3   OH248297   2.955   4.188  14.754 -0.5720 -0.3859 -0.4465
 8961TIP3    H148298   2.863   4.190  14.730 -0.1537  0.9628 -2.1257
 8961TIP3    H248299   2.956   4.182  14.849 -2.4113  1.2467 -0.2847
 8962TIP3   OH248300   3.833   0.295   4.634 -0.0910  0.4953  0.7480
 8962TIP3    H148301   3.760   0.234   4.645  1.1320 -1.0196  0.7057
 8962TIP3    H248302   3.825   0.327   4.544 -0.1754 -0.3877  0.4328
 8963TIP3   OH248303   2.256   0.498   3.970 -0.0263  0.8681 -0.2277
 8963TIP3    H148304   2.218   0.532   3.888  0.8450 -3.0047 -2.3425
 8963TIP3    H248305   2.181   0.465   4.019 -0.3691  1.6712 -0.1929
 8964TIP3   OH248306   5.036   1.314   5.011 -0.7359  0.2638 -0.3865
 8964TIP3    H148307   5.054   1.224   5.040  0.4883  0.8413  0.6453
 8964TIP3    H248308   5.117   1.342   4.969 -0.9709  1.0467 -0.3097
 8965TIP3   OH248309   6.439   3.200  14.039  0.2736 -0.0310  0.0575
 8965TIP3    H148310   6.438   3.208  14.134  0.2956 -2.1752  0.2603
 8965TIP3    H248311   6.478   3.114  14.022  0.6760  0.5105 -1.8949
 8966TIP3   OH248312   4.863   2.138   1.144  0.2972  0.3128  0.1084
 8966TIP3    H148313   4.874   2.056   1.192 -0.1709  0.8333  1.1384
 8966TIP3    H248314   4.852   2.204   1.212  0.4414  1.1986 -0.7149
 8967TIP3   OH248315   5.802   0.086   2.849 -0.4158 -0.3872  0.3303
 8967TIP3    H148316   5.724   0.112   2.898 -1.0856 -2.1799  0.2766
 8967TIP3    H248317   5.864   0.058   2.916 -0.6383 -1.0390  0.2713
 8968TIP3   OH248318   4.498   4.355   5.049 -0.2529  0.2776  0.9722
 8968TIP3    H148319   4.518   4.272   5.004  1.1053  0.9127  0.3522
 8968TIP3    H248320   4.495   4.420   4.979  0.9236  1.1236  1.6846
 8969TIP3   OH248321   4.469   4.218   2.131  0.0599  0.1242 -0.1462
 8969TIP3    H148322   4.430   4.304   2.144  1.3421  0.5911  0.6728
 8969TIP3    H248323   4.537   4.212   2.199 -0.3857 -1.7394  0.1669
 8970TIP3   OH248324   6.140   4.081  16.100 -0.0361 -0.2350  0.2091
 8970TIP3    H148325   6.061   4.049  16.056 -1.0525  1.2135  0.9154
 8970TIP3    H248326   6.175   4.148  16.041  1.6471 -2.0480 -0.9018
 8971TIP3   OH248327   2.770   4.442   5.991  0.2731  0.2356 -0.2221
 8971TIP3    H148328   2.755   4.359   5.947  1.5383 -0.7707  1.2064
 8971TIP3    H248329   2.840   4.484   5.941 -0.2588  0.3834 -0.8498
 8972TIP3   OH248330   2.706   0.826   4.704 -0.1282 -0.0961  0.2668
 8972TIP3    H148331   2.634   0.827   4.641 -0.3232  2.0255  0.4551
 8972TIP3    H248332   2.688   0.901   4.761  1.7604 -0.0716  0.8642
 8973TIP3   OH248333   0.326   6.088   3.777  0.2956 -0.1204 -0.2718
 8973TIP3    H148334   0.395   6.075   3.712  2.0612 -2.5244  1.9852
 8973TIP3    H248335   0.373   6.105   3.859 -1.8928  3.2240  0.3670
 8974TIP3   OH248336   2.583   6.000  12.639 -0.3182  0.1028  0.2982
 8974TIP3    H148337   2.609   5.929  12.581 -0.0003 -0.1982  0.7976
 8974TIP3    H248338   2.604   6.080  12.591 -1.2311 -0.1433 -0.5053
 8975TIP3   OH248339   5.782   4.464  15.745 -0.0041  0.5062 -0.2577
 8975TIP3    H148340   5.692   4.470  15.714 -0.3596  0.3712  0.7292
 8975TIP3    H248341   5.791   4.537  15.807  0.5474  0.4900 -0.3156
 8976TIP3   OH248342   4.456   2.140   4.664  0.2831 -0.6791 -0.2616
 8976TIP3    H148343   4.417   2.067   4.615 -1.3701  0.5053 -0.7540
 8976TIP3    H248344   4.433   2.218   4.614  3.5327  0.0650 -0.6877
 8977TIP3   OH248345   1.317   3.308   4.310 -0.0027 -0.0977 -0.1056
 8977TIP3    H148346   1.240   3.303   4.366 -0.2090  2.2527 -0.1179
 8977TIP3    H248347   1.389   3.330   4.369  0.6094 -1.8713 -0.1563
 8978TIP3   OH248348   0.988   1.512   6.018  0.5284 -0.7893 -1.1583
 8978TIP3    H148349   1.032   1.489   5.936  0.5073 -1.0289 -1.1021
 8978TIP3    H248350   1.011   1.604   6.032  0.0644 -0.5825 -1.7305
 8979TIP3   OH248351   1.310   4.129  11.438  0.1207 -0.5321  0.1807
 8979TIP3    H148352   1.322   4.224  11.436 -0.3113 -0.4807 -0.1180
 8979TIP3    H248353   1.358   4.100  11.516 -0.8492  0.0919  1.0188
 8980TIP3   OH248354   0.543   5.849   1.621 -0.8909  0.2196 -0.0258
 8980TIP3    H148355   0.618   5.908   1.627 -1.8069  1.4532 -0.3839
 8980TIP3    H248356   0.482   5.894   1.561 -2.6858  0.1225  1.6593
 8981TIP3   OH248357   4.030   2.795   2.883  0.0256  0.4067 -0.5442
 8981TIP3    H148358   3.984   2.788   2.799  1.8998  1.1276 -1.6537
 8981TIP3    H248359   3.969   2.758   2.947 -2.2363  1.6888 -1.9155
 8982TIP3   OH248360   4.508   6.092   1.777  0.4062 -0.3270 -0.0216
 8982TIP3    H148361   4.554   6.137   1.706  2.7308  0.1067  1.7179
 8982TIP3    H248362   4.461   6.162   1.822 -0.5650 -0.5122 -0.7271
 8983TIP3   OH248363   3.816   3.647   3.034  0.2253  0.3444  0.0850
 8983TIP3    H148364   3.867   3.663   2.954  0.7229  0.1597  0.3653
 8983TIP3    H248365   3.730   3.686   3.015 -0.1235 -0.9325 -1.0953
 8984TIP3   OH248366   4.405   3.756   2.552  0.0441 -0.2738 -0.3188
 8984TIP3    H148367   4.331   3.710   2.592 -0.7587 -0.1970 -1.6753
 8984TIP3    H248368   4.472   3.758   2.620 -1.9257  1.3907  1.6169
 8985TIP3   OH248369   6.523   2.160  13.267 -0.2674 -0.0029 -0.3432
 8985TIP3    H148370   6.494   2.250  13.248  0.3874  0.7385  1.9748
 8985TIP3    H248371   6.585   2.170  13.339  0.6590 -2.2311 -0.8047
 8986TIP3   OH248372   5.020   1.564  14.906 -0.1035  0.3058 -0.5227
 8986TIP3    H148373   4.993   1.492  14.849 -0.1029  0.3526 -0.5831
 8986TIP3    H248374   5.040   1.636  14.846 -0.3038  0.4212 -0.4511
 8987TIP3   OH248375   1.090   1.681   4.276  0.3039  0.0783  0.2047
 8987TIP3    H148376   1.157   1.743   4.303 -0.1953  1.4065 -1.5113
 8987TIP3    H248377   1.059   1.641   4.358  0.6999  2.0319  1.3272
 8988TIP3   OH248378   2.563   2.058   2.360 -0.2036  0.7558  0.1708
 8988TIP3    H148379   2.491   1.997   2.374  0.5606 -0.5431 -1.3735
 8988TIP3    H248380   2.598   2.034   2.275  1.0982  2.3623  0.2347
 8989TIP3   OH248381   6.238   3.180  11.498  0.5511 -0.3363  0.0027
 8989TIP3    H148382   6.312   3.120  11.506  0.8818  0.1560  0.6592
 8989TIP3    H248383   6.203   3.163  11.410 -0.3078 -2.5573  0.7425
 8990TIP3   OH248384   3.640   1.698  13.467 -0.1770  0.3954 -0.1933
 8990TIP3    H148385   3.698   1.640  13.417  1.6748  0.0453  2.2648
 8990TIP3    H248386   3.691   1.778  13.479 -1.5898  1.4377 -0.9964
 8991TIP3   OH248387   3.520   6.067   1.280  0.5868  0.0675 -0.3674
 8991TIP3    H148388   3.469   6.126   1.335 -0.2501 -0.5890 -0.4340
 8991TIP3    H248389   3.580   6.125   1.232  0.7771  0.7114  0.6395
 8992TIP3   OH248390   6.501   2.130   0.850  0.6512 -0.0299 -0.0682
 8992TIP3    H148391   6.457   2.214   0.843  1.7328  0.7369  1.7129
 8992TIP3    H248392   6.550   2.120   0.768  0.5613  1.1123 -0.2570
 8993TIP3   OH248393   6.344   1.563   0.888  0.4281  0.4933 -0.3902
 8993TIP3    H148394   6.420   1.531   0.840  0.6551 -1.1531  1.0180
 8993TIP3    H248395   6.374   1.644   0.931  1.8128 -0.8525  1.2432
 8994TIP3   OH248396   4.965   6.153  15.059  0.7554  0.1963  0.4795
 8994TIP3    H148397   5.058   6.175  15.054  0.4697  1.1086 -1.1216
 8994TIP3    H248398   4.936   6.189  15.142  1.5625  0.9835  0.4227
 8995TIP3   OH248399   4.082   5.687   3.838  0.0838  0.0182 -0.1261
 8995TIP3    H148400   4.092   5.742   3.916  0.2510  3.6271 -2.5187
 8995TIP3    H248401   4.156   5.627   3.842  0.9778  1.1669  1.7193
 8996TIP3   OH248402   3.909   5.390  10.635  0.2343 -0.1674  0.5150
 8996TIP3    H148403   3.869   5.316  10.588 -2.6375 -0.5047  3.3032
 8996TIP3    H248404   3.868   5.467  10.596 -0.9928 -0.3618  1.4034
 8997TIP3   OH248405   2.313   3.689   0.599  0.0048  0.1898 -0.0553
 8997TIP3    H148406   2.265   3.655   0.674 -2.2941  0.3154 -1.4444
 8997TIP3    H248407   2.345   3.611   0.554 -0.4800  0.0449 -0.1507
 8998TIP3   OH248408   4.467   5.679   3.732  0.0122 -0.4225  0.7988
 8998TIP3    H148409   4.426   5.751   3.683 -1.9160 -1.3158  1.0338
 8998TIP3    H248410   4.418   5.601   3.705  2.2906 -1.7382  0.2809
 8999TIP3   OH248411   3.581   4.098   1.761  0.0248  0.0753  0.5046
 8999TIP3    H148412   3.620   4.061   1.682  1.3766 -1.4876  1.8620
 8999TIP3    H248413   3.522   4.030   1.793  0.7460 -0.0071  1.7212
 9000TIP3   OH248414   5.645   5.605  12.014  0.5220 -0.0259 -0.1928
 9000TIP3    H148415   5.689   5.633  11.934 -1.3460  0.2357 -1.1647
 9000TIP3    H248416   5.621   5.686  12.059  0.1480 -0.1385 -0.1835
 9001TIP3   OH248417   1.711   3.585  14.583  0.0323  0.8357 -0.0211
 9001TIP3    H148418   1.637   3.590  14.643 -0.3444 -0.8639 -0.2992
 9001TIP3    H248419   1.744   3.496  14.594 -0.7290  0.1073 -3.0991
 9002TIP3   OH248420   1.661   3.108  15.615  0.1581  0.7171  0.4728
 9002TIP3    H148421   1.653   3.067  15.529  1.9739 -0.3540  0.7801
 9002TIP3    H248422   1.730   3.173  15.605 -1.7214  2.7795  0.3725
 9003TIP3   OH248423   5.354   2.359   6.557  0.1397  0.5611 -0.2618
 9003TIP3    H148424   5.261   2.372   6.538 -0.3156  0.2898  1.6746
 9003TIP3    H248425   5.360   2.269   6.589  0.8611  0.9665  0.7836
 9004TIP3   OH248426   1.017   2.951  14.567 -0.3574  1.0327 -0.1994
 9004TIP3    H148427   1.035   2.953  14.661 -2.4342 -1.4778  0.2974
 9004TIP3    H248428   1.100   2.923  14.527  0.1826  0.9310  0.9660
 9005TIP3   OH248429   4.946   5.970   5.877 -0.6215 -0.4367 -0.6739
 9005TIP3    H148430   4.969   5.973   5.784  2.1945  1.5934  0.0211
 9005TIP3    H248431   5.000   5.900   5.914  1.7000  1.7478  0.2253
 9006TIP3   OH248432   6.094   5.405   0.746 -0.5097 -0.5771 -0.6522
 9006TIP3    H148433   6.153   5.445   0.681  0.3927 -0.3088  0.3154
 9006TIP3    H248434   6.068   5.322   0.706  1.3826 -1.2006 -0.6651
 9007TIP3   OH248435   0.502   4.816   2.285 -0.4186  0.3059  0.4069
 9007TIP3    H148436   0.582   4.829   2.336 -0.1120 -0.8191  0.2273
 9007TIP3    H248437   0.524   4.849   2.198 -0.0994 -0.1221  0.3210
 9008TIP3   OH248438   4.507   5.963   1.176  0.6107  0.6345 -0.6360
 9008TIP3    H148439   4.505   5.961   1.081 -1.3163  1.2886 -0.6395
 9008TIP3    H248440   4.440   5.899   1.202  0.0851  1.5278  0.2471
 9009TIP3   OH248441   4.885   2.525   5.228  0.5067 -0.0710  0.2248
 9009TIP3    H148442   4.819   2.583   5.192  1.3425  0.8557  0.1575
 9009TIP3    H248443   4.868   2.440   5.188  0.1984  0.4818 -0.8143
 9010TIP3   OH248444   1.044   6.148   3.204  0.0352  0.3654 -0.0827
 9010TIP3    H148445   1.024   6.089   3.276 -2.5435  0.0264 -1.0324
 9010TIP3    H248446   1.043   6.235   3.243 -2.0290  0.2333  0.1865
 9011TIP3   OH248447   5.614   5.397  12.184  0.9232 -0.1275 -0.0470
 9011TIP3    H148448   5.622   5.452  12.106 -1.2888 -2.1286 -1.7440
 9011TIP3    H248449   5.649   5.312  12.158 -2.1345 -1.5570  0.2744
 9012TIP3   OH248450   5.039   2.918  16.674  0.2749 -0.0819  0.1180
 9012TIP3    H148451   5.041   2.877  16.761  0.1703  1.5287  0.8947
 9012TIP3    H248452   4.960   2.972  16.674  1.3107  1.4706 -0.2519
 9013TIP3   OH248453   5.162   3.831  12.873  0.0653 -0.0148  0.1486
 9013TIP3    H148454   5.200   3.744  12.854 -1.4652 -0.9030  1.0901
 9013TIP3    H248455   5.077   3.812  12.912  0.6246  1.8862  2.3482
 9014TIP3   OH248456   5.902   1.004   5.896  0.3708  0.1493 -0.6799
 9014TIP3    H148457   5.903   0.984   5.990  0.4823  0.4789 -0.6117
 9014TIP3    H248458   5.822   1.056   5.884  0.4194  0.2073 -0.7474
 9015TIP3   OH248459   5.958   5.575  15.750  0.2065  0.2636  0.2248
 9015TIP3    H148460   5.966   5.484  15.721  0.3975  0.7878 -1.4740
 9015TIP3    H248461   5.889   5.612  15.694  0.5249  1.3005  0.4964
 9016TIP3   OH248462   3.283   0.477   5.052 -0.2851  0.6738  0.1747
 9016TIP3    H148463   3.251   0.438   5.133 -1.1000  2.2392  0.6283
 9016TIP3    H248464   3.377   0.484   5.064  0.0078 -1.8951 -0.2612
 9017TIP3   OH248465   1.401   0.680   0.206  0.0965  0.3080 -0.1638
 9017TIP3    H148466   1.441   0.721   0.130 -0.5475 -1.8249 -1.6924
 9017TIP3    H248467   1.473   0.635   0.250  0.2221  0.4308 -0.2440
 9018TIP3   OH248468   2.652   6.457   3.044 -0.0208  0.5482 -0.0491
 9018TIP3    H148469   2.595   6.466   2.968 -0.1969  0.7721  0.1097
 9018TIP3    H248470   2.592   6.437   3.116  0.1862 -0.1087 -0.0535
 9019TIP3   OH248471   4.155   4.798   4.165  0.3609  0.1644  0.0274
 9019TIP3    H148472   4.214   4.731   4.199  1.4594  1.6124  1.0020
 9019TIP3    H248473   4.091   4.749   4.113  2.9266 -1.3115 -1.7927
 9020TIP3   OH248474   6.122   6.132   6.514  0.1496  0.0747 -0.3475
 9020TIP3    H148475   6.141   6.167   6.427  0.9516  0.9380  0.1631
 9020TIP3    H248476   6.028   6.115   6.514  0.0261  0.7827 -1.1229
 9021TIP3   OH248477   1.378   3.240  13.596 -0.3583 -0.6711 -0.0893
 9021TIP3    H148478   1.386   3.321  13.545 -0.8779 -0.6960 -0.2140
 9021TIP3    H248479   1.337   3.267  13.678  0.1688 -0.6854  0.1751
 9022TIP3   OH248480   3.036   0.490   1.545  0.2414 -0.2566 -0.5922
 9022TIP3    H148481   3.093   0.558   1.508 -0.3139 -0.0482 -1.0831
 9022TIP3    H248482   3.073   0.472   1.632  0.1627  0.9629 -0.2987
 9023TIP3   OH248483   0.912   6.705  11.715 -0.1737  0.4988  0.3686
 9023TIP3    H148484   0.868   6.785  11.689  0.0683  0.2812 -0.7089
 9023TIP3    H248485   1.005   6.727  11.715 -0.1624  0.4804  1.0115
 9024TIP3   OH248486   0.535   0.361  17.186  0.8165 -0.5014 -0.4019
 9024TIP3    H148487   0.475   0.370  17.260  1.9407  0.0940  0.4374
 9024TIP3    H248488   0.481   0.324  17.116 -0.3410 -0.7156  0.5937
 9025TIP3   OH248489   2.252   1.108   2.650  0.1390 -0.2896  0.1045
 9025TIP3    H148490   2.201   1.046   2.703 -0.5564 -0.8086 -1.1489
 9025TIP3    H248491   2.204   1.191   2.658  1.1486  0.1532  1.9001
 9026TIP3   OH248492   4.342   0.755   5.642  0.0961 -0.1339  0.2728
 9026TIP3    H148493   4.265   0.812   5.653  0.6885  0.7925 -0.3322
 9026TIP3    H248494   4.316   0.672   5.682 -1.2671  0.1365 -0.0297
 9027TIP3   OH248495   2.726   3.113   3.685  0.3006  0.0564  0.1640
 9027TIP3    H148496   2.664   3.180   3.714 -1.1046 -1.5978  1.1089
 9027TIP3    H248497   2.753   3.069   3.766  0.6733 -0.9706 -0.5087
 9028TIP3   OH248498   0.703   2.441  13.999  0.1515  0.0165 -0.6800
 9028TIP3    H148499   0.770   2.406  14.058 -1.9765 -0.4104  1.5318
 9028TIP3    H248500   0.715   2.391  13.918  1.0089 -1.6904  0.4719
 9029TIP3   OH248501   3.679   2.739   5.581  0.2483 -0.7713 -0.6382
 9029TIP3    H148502   3.589   2.715   5.557  0.1267  0.1914 -1.1731
 9029TIP3    H248503   3.680   2.737   5.676  0.1541 -2.5575 -0.6452
 9030TIP3   OH248504   3.910   3.841   5.086  0.6485  0.0440 -0.1604
 9030TIP3    H148505   3.961   3.771   5.045 -0.6090 -0.3417 -1.0865
 9030TIP3    H248506   3.972   3.883   5.146  2.1265 -0.2206 -1.4683
 9031TIP3   OH248507   1.594   3.866  13.967  0.2848 -0.0113  0.2858
 9031TIP3    H148508   1.555   3.937  14.017 -0.0250 -0.6007  0.8935
 9031TIP3    H248509   1.687   3.868  13.991  0.1837 -0.1312  0.6956
 9032TIP3   OH248510   6.114   6.625  13.098  0.3981  0.0541  0.1667
 9032TIP3    H148511   6.107   6.621  13.193  0.8443 -1.8131  0.1555
 9032TIP3    H248512   6.163   6.546  13.075 -1.4537 -0.5700 -1.7741
 9033TIP3   OH248513   2.176   4.521  12.768  0.4269  0.6166  0.3101
 9033TIP3    H148514   2.180   4.533  12.673 -1.1017  0.2279  0.1696
 9033TIP3    H248515   2.171   4.427  12.780 -1.1017  0.7199  0.6649
 9034TIP3   OH248516   5.282   4.386  13.901 -0.0431  0.3709 -0.1191
 9034TIP3    H148517   5.300   4.347  13.815 -2.6468  0.6477 -0.8447
 9034TIP3    H248518   5.229   4.463  13.881 -1.6432 -0.1947  1.7841
 9035TIP3   OH248519   0.800   6.094   1.338 -0.0284  0.1173 -0.3244
 9035TIP3    H148520   0.743   6.171   1.349 -0.7732 -0.7522  2.2096
 9035TIP3    H248521   0.870   6.124   1.281  0.2676  3.0034  1.4703
 9036TIP3   OH248522   3.340   0.769   3.382 -0.6925  0.0652 -0.3368
 9036TIP3    H148523   3.361   0.838   3.445  1.0413  0.1708 -1.0136
 9036TIP3    H248524   3.371   0.689   3.423  0.9742  0.2054 -1.2736
 9037TIP3   OH248525   2.324   3.653  14.372  0.2619  0.0593 -0.2081
 9037TIP3    H148526   2.335   3.713  14.446  0.0326 -2.4020  1.8599
 9037TIP3    H248527   2.413   3.635  14.342  0.4624 -0.4248  0.6760
 9038TIP3   OH248528   0.313   4.111   2.897 -0.7132  0.2268  0.2884
 9038TIP3    H148529   0.340   4.036   2.949 -0.2693  0.8464  0.9784
 9038TIP3    H248530   0.285   4.075   2.813 -2.5837 -0.9225  1.3655
 9039TIP3   OH248531   6.659   5.816  12.484 -0.3365  0.1181 -0.5020
 9039TIP3    H148532   6.663   5.782  12.573  4.5752 -1.7145 -1.3224
 9039TIP3    H248533   6.594   5.760  12.440  0.5121 -1.8902  0.7344
 9040TIP3   OH248534   5.421   3.973  13.464  0.1106  0.2426  0.5443
 9040TIP3    H148535   5.402   4.011  13.550  1.2901 -0.6053  1.2033
 9040TIP3    H248536   5.373   3.890  13.463 -3.0136  1.9843 -1.1593
 9041TIP3   OH248537   6.178   1.515   2.814  0.2412  0.1426  0.2952
 9041TIP3    H148538   6.200   1.544   2.725  0.2358  0.7152  0.4766
 9041TIP3    H248539   6.255   1.466   2.842  0.3123  0.1020  0.0320
 9042TIP3   OH248540   4.323   6.703   0.710 -0.3241  0.2180 -0.3200
 9042TIP3    H148541   4.308   6.785   0.662 -0.6866  1.0728  1.2131
 9042TIP3    H248542   4.400   6.665   0.668  0.6651  2.0255 -0.1831
 9043TIP3   OH248543   6.008   3.388   2.495  0.5869  0.2953  0.3131
 9043TIP3    H148544   5.941   3.456   2.506  2.0489  2.2448 -2.0468
 9043TIP3    H248545   5.976   3.335   2.422  0.7327  0.1087  0.3843
 9044TIP3   OH248546   6.224   5.110  13.466 -0.3864  0.5450  0.2378
 9044TIP3    H148547   6.138   5.094  13.505 -0.2109 -0.9073  0.0253
 9044TIP3    H248548   6.245   5.201  13.491 -2.3207  1.1822 -0.3666
 9045TIP3   OH248549   2.350   1.321  16.359 -0.0474  0.8271 -0.4871
 9045TIP3    H148550   2.364   1.259  16.431 -1.2300 -0.9688 -1.7620
 9045TIP3    H248551   2.298   1.392  16.397 -1.1693 -0.3956  0.2960
 9046TIP3   OH248552   3.385   6.284  12.674  0.7297 -0.0784  0.3808
 9046TIP3    H148553   3.445   6.343  12.629  0.9457 -0.9609 -0.5024
 9046TIP3    H248554   3.300   6.300  12.632  0.9137 -0.8398 -0.2916
 9047TIP3   OH248555   2.372   6.095  15.740  0.0283 -0.2666  0.1939
 9047TIP3    H148556   2.291   6.145  15.739  0.3910  0.3186 -2.4797
 9047TIP3    H248557   2.357   6.024  15.677  0.6148 -1.7652  1.7045
 9048TIP3   OH248558   0.617   2.891  12.422 -0.0521  1.0279  0.2496
 9048TIP3    H148559   0.671   2.959  12.382 -0.2607  0.2758 -1.3567
 9048TIP3    H248560   0.604   2.921  12.512  2.9283  1.2590  0.6515
 9049TIP3   OH248561   5.049   3.913   1.159  0.3550 -0.3808  0.8497
 9049TIP3    H148562   5.111   3.878   1.223  0.0536  1.8487  2.4113
 9049TIP3    H248563   5.102   3.970   1.103  0.3615 -1.2584 -0.0512
 9050TIP3   OH248564   0.553   5.614  11.432  0.3010 -0.6559  0.4705
 9050TIP3    H148565   0.558   5.519  11.430  1.8490 -0.6331  1.9310
 9050TIP3    H248566   0.592   5.642  11.350  1.8981 -1.2389  1.0216
 9051TIP3   OH248567   2.271   4.777   6.171 -0.0268 -0.7366 -0.7677
 9051TIP3    H148568   2.320   4.777   6.253  0.8045 -0.4795 -1.2575
 9051TIP3    H248569   2.182   4.754   6.196 -0.3187  1.6692  0.5381
 9052TIP3   OH248570   0.050   0.121  15.628  0.3453  0.5562 -0.0849
 9052TIP3    H148571   0.050   0.189  15.696  0.2660 -1.4161  1.9462
 9052TIP3    H248572  -0.031   0.072  15.644  1.7559 -1.7138  0.2565
 9053TIP3   OH248573   6.598   1.753   4.110 -0.5879  0.3849 -0.2422
 9053TIP3    H148574   6.630   1.733   4.022 -0.7087 -1.5032  0.1025
 9053TIP3    H248575   6.675   1.748   4.166 -0.9557 -1.2213  0.1530
 9054TIP3   OH248576   3.937   0.477  14.903 -0.2560  0.6474 -0.1918
 9054TIP3    H148577   3.965   0.445  14.817  0.8243 -3.0381  1.4433
 9054TIP3    H248578   3.843   0.493  14.893 -0.3324 -0.6519 -1.8103
 9055TIP3   OH248579   5.523   4.362   2.030 -0.3420 -0.1267 -0.1132
 9055TIP3    H148580   5.541   4.271   2.054  0.5291  0.1046  0.0859
 9055TIP3    H248581   5.518   4.360   1.934 -0.8314 -0.4721 -0.0875
 9056TIP3   OH248582   2.643   5.707   5.551 -1.2189  0.9458 -0.6069
 9056TIP3    H148583   2.628   5.693   5.457 -1.1702 -0.7198 -0.3888
 9056TIP3    H248584   2.620   5.623   5.591  0.1598  1.1922  0.7256
 9057TIP3   OH248585   2.140   1.163  15.488 -0.8389  0.0907 -0.1943
 9057TIP3    H148586   2.192   1.085  15.465 -0.1337  0.2979  0.6581
 9057TIP3    H248587   2.050   1.138  15.471 -0.5626 -0.7111 -0.5027
 9058TIP3   OH248588   4.492   2.542   3.769  0.3827 -0.6290  0.2947
 9058TIP3    H148589   4.499   2.614   3.832  2.4068 -1.6242  1.2418
 9058TIP3    H248590   4.546   2.568   3.695  1.3741 -1.3120  0.7757
 9059TIP3   OH248591   3.589   1.033  12.375  0.2841 -0.0898  0.0748
 9059TIP3    H148592   3.571   1.005  12.464 -4.8035  0.6389 -0.5910
 9059TIP3    H248593   3.582   0.953  12.322 -1.2271  0.1883 -0.1791
 9060TIP3   OH248594   2.528   6.628  16.695 -0.3453 -0.4959 -0.1154
 9060TIP3    H148595   2.440   6.666  16.691 -1.0213 -2.0923 -0.3926
 9060TIP3    H248596   2.583   6.700  16.727 -1.4047  1.0786 -1.7347
 9061TIP3   OH248597   3.078   4.958   3.512 -0.2941  0.3863  0.1643
 9061TIP3    H148598   3.146   5.018   3.480  0.0256  0.1334  0.3722
 9061TIP3    H248599   3.018   5.014   3.562 -0.7997  0.7885 -0.8674
 9062TIP3   OH248600   6.457   4.585   0.705 -0.1947 -0.3945 -0.0000
 9062TIP3    H148601   6.487   4.634   0.782 -0.4768 -2.2748  1.3292
 9062TIP3    H248602   6.538   4.567   0.656  0.0206  0.5508 -0.0126
 9063TIP3   OH248603   1.787   4.033  16.807  0.1871 -0.1223  0.5327
 9063TIP3    H148604   1.879   4.044  16.829  0.2396 -1.8581  1.3015
 9063TIP3    H248605   1.788   4.008  16.714  0.5511 -0.8019  0.7143
 9064TIP3   OH248606   0.535   2.028   2.813  0.3913 -0.0134  0.0797
 9064TIP3    H148607   0.462   1.969   2.835 -0.4877  0.3619 -1.7232
 9064TIP3    H248608   0.515   2.109   2.861  1.7479 -1.1988  2.7936
 9065TIP3   OH248609   2.266   1.489  16.027 -0.2932 -0.5500 -1.4087
 9065TIP3    H148610   2.263   1.410  16.080 -0.0120  0.1877 -0.2865
 9065TIP3    H248611   2.250   1.561  16.088  0.0458  0.3110 -2.3108
 9066TIP3   OH248612   1.136   5.383   5.239 -0.0667 -0.5419 -0.7459
 9066TIP3    H148613   1.199   5.314   5.217  0.8255 -0.2131  0.7233
 9066TIP3    H248614   1.056   5.336   5.263  0.4932 -1.0691  0.1156
 9067TIP3   OH248615   2.466   5.565   1.719 -0.0799 -0.1594 -0.3528
 9067TIP3    H148616   2.509   5.504   1.780  0.6079  0.6472 -0.0124
 9067TIP3    H248617   2.402   5.611   1.773 -0.2058 -0.1888 -0.4794
 9068TIP3   OH248618   5.509   6.420   0.997  0.3018 -0.5776 -0.6070
 9068TIP3    H148619   5.531   6.456   0.911 -1.8689  0.1326 -0.8971
 9068TIP3    H248620   5.416   6.439   1.008  0.1984 -2.0192  1.2562
 9069TIP3   OH248621   3.302   3.744  16.007 -0.6661 -0.3635 -0.6486
 9069TIP3    H148622   3.271   3.681  15.943  0.5720 -2.2718  0.5666
 9069TIP3    H248623   3.397   3.731  16.010 -0.5236  0.7313  0.4815
 9070TIP3   OH248624   5.509   2.618  11.850 -0.2348  0.1973  0.6586
 9070TIP3    H148625   5.481   2.571  11.771 -1.0439  3.2005 -0.9081
 9070TIP3    H248626   5.604   2.605  11.853  0.2462  2.3918 -2.4804
 9071TIP3   OH248627   0.253   5.561  16.441  0.5177 -0.3767 -0.2813
 9071TIP3    H148628   0.236   5.655  16.433  1.0947 -0.3038 -0.7084
 9071TIP3    H248629   0.347   5.555  16.460  0.3789 -0.8403  0.2548
 9072TIP3   OH248630   1.396   6.297   4.620  0.4108 -0.0059  0.0073
 9072TIP3    H148631   1.474   6.311   4.675  1.0327 -1.1480 -0.5651
 9072TIP3    H248632   1.362   6.385   4.604  2.6794  0.6741 -1.3230
 9073TIP3   OH248633   4.959   5.736   1.441 -0.0446 -0.2195  0.3459
 9073TIP3    H148634   4.915   5.654   1.419 -2.0337  0.6076  1.2180
 9073TIP3    H248635   5.009   5.758   1.362 -1.4432 -0.9974 -0.7617
 9074TIP3   OH248636   4.180   0.219  15.313  0.6276 -0.0829 -0.1172
 9074TIP3    H148637   4.102   0.268  15.339 -0.2879 -0.9842 -1.1260
 9074TIP3    H248638   4.186   0.233  15.218  0.7092 -1.4123 -0.3113
 9075TIP3   OH248639   4.290   1.118   2.685  0.6867 -0.3917 -0.0194
 9075TIP3    H148640   4.316   1.206   2.659  0.5974 -0.7480 -1.3382
 9075TIP3    H248641   4.353   1.093   2.753  0.9694  0.5198  0.0532
 9076TIP3   OH248642   5.981   5.615  11.458  0.0085 -0.0493 -0.1055
 9076TIP3    H148643   5.969   5.707  11.435  0.5080 -0.0446 -0.3596
 9076TIP3    H248644   5.909   5.570  11.414 -1.6840  0.5099  2.0359
 9077TIP3   OH248645   5.102   5.143  14.744 -0.2496  0.1590  0.1946
 9077TIP3    H148646   5.152   5.064  14.762 -0.6698  0.1501  1.3180
 9077TIP3    H248647   5.054   5.123  14.664  1.5382  0.1751 -0.9155
 9078TIP3   OH248648   5.188   6.713   2.444 -0.0203  0.0468 -0.6172
 9078TIP3    H148649   5.108   6.765   2.459  0.5695  0.5217  1.0088
 9078TIP3    H248650   5.201   6.666   2.526 -0.1653 -2.1766 -1.8516
 9079TIP3   OH248651   4.956   4.290  16.301 -0.0159  0.6468  0.2917
 9079TIP3    H148652   5.029   4.345  16.272 -0.9617  2.1338  0.7090
 9079TIP3    H248653   4.999   4.213  16.339  1.4192  2.4791  2.5250
 9080TIP3   OH248654   3.704   3.150   0.991  0.1426 -0.0815  0.1587
 9080TIP3    H148655   3.800   3.150   0.999  0.0002 -1.0530  2.2101
 9080TIP3    H248656   3.682   3.060   0.964 -0.2090  0.1214 -0.2447
 9081TIP3   OH248657   0.057   4.409  17.199  0.0857  0.1443 -0.2595
 9081TIP3    H148658  -0.002   4.375  17.266 -0.1321  3.2204  1.2050
 9081TIP3    H248659   0.145   4.387  17.231 -0.0508  0.8853  0.6619
 9082TIP3   OH248660   4.224   6.309  12.631  0.2657 -0.6199  0.1064
 9082TIP3    H148661   4.133   6.327  12.608  0.5732 -0.2890 -0.8495
 9082TIP3    H248662   4.232   6.341  12.721 -0.4153 -0.1360  0.0012
 9083TIP3   OH248663   3.527   1.361   1.113  0.0545 -0.5784  0.5084
 9083TIP3    H148664   3.455   1.355   1.175 -0.0655  0.6125  0.4936
 9083TIP3    H248665   3.606   1.353   1.167  0.0294  2.9331  1.2078
 9084TIP3   OH248666   0.488   3.098  13.916 -0.0869 -0.1856  0.5870
 9084TIP3    H148667   0.426   3.047  13.864  0.9044  0.6298 -1.4158
 9084TIP3    H248668   0.445   3.106  14.002 -1.6595 -1.6825 -0.0195
 9085TIP3   OH248669   6.000   6.719   2.197 -0.1190 -0.2202 -0.5679
 9085TIP3    H148670   6.009   6.735   2.103 -0.5501 -1.4032 -0.8305
 9085TIP3    H248671   5.914   6.756   2.220  0.1480  0.3952 -0.5627
 9086TIP3   OH248672   4.040   6.049   3.991  0.1593  0.0660  0.3172
 9086TIP3    H148673   4.127   6.086   4.008  0.9943 -2.1259  0.9665
 9086TIP3    H248674   4.001   6.038   4.077 -1.1248  1.8115 -0.0168
 9087TIP3   OH248675   3.259   3.813  12.272 -0.2350 -0.7554 -0.5291
 9087TIP3    H148676   3.185   3.804  12.332  0.9609 -0.5316  1.0119
 9087TIP3    H248677   3.279   3.907  12.273  0.8650 -0.9926  0.0495
 9088TIP3   OH248678   0.444   3.271   5.104 -0.4620 -0.4393  0.1795
 9088TIP3    H148679   0.537   3.291   5.113 -0.4332 -1.1158  1.6415
 9088TIP3    H248680   0.427   3.276   5.010  0.8953  0.3542 -0.0351
 9089TIP3   OH248681   2.522   5.873  16.641 -0.7046  0.2756 -0.7124
 9089TIP3    H148682   2.430   5.844  16.636  0.2094 -2.4569 -2.9663
 9089TIP3    H248683   2.528   5.942  16.576 -0.8644 -0.4217 -1.4729
 9090TIP3   OH248684   3.158   6.375   2.677  0.2799 -0.0236 -0.2637
 9090TIP3    H148685   3.191   6.452   2.723 -1.3960  1.3968 -1.3704
 9090TIP3    H248686   3.134   6.314   2.746  0.7068  0.8443  0.6635
 9091TIP3   OH248687   0.388   4.124  14.553 -0.6057  0.0443  0.2367
 9091TIP3    H148688   0.307   4.167  14.579  0.9599  1.6104  2.7756
 9091TIP3    H248689   0.431   4.185  14.494  0.0511  0.5060  1.1804
 9092TIP3   OH248690   3.878   6.706  16.535  0.0096 -0.7264  0.0944
 9092TIP3    H148691   3.933   6.778  16.503 -0.4673  0.0907  1.0700
 9092TIP3    H248692   3.797   6.714  16.485  0.4217 -1.3703 -0.6889
 9093TIP3   OH248693   0.069   2.489  15.892  0.0417 -0.0887 -0.0006
 9093TIP3    H148694   0.090   2.452  15.806 -1.0064 -0.8519  0.0621
 9093TIP3    H248695  -0.026   2.481  15.899  0.0070  0.9650  0.7791
 9094TIP3   OH248696   3.345   1.778  12.907 -0.2872  0.2154 -0.2496
 9094TIP3    H148697   3.394   1.850  12.866 -0.1299  0.5360  0.4972
 9094TIP3    H248698   3.407   1.737  12.967 -0.5463 -0.1971 -0.2581
 9095TIP3   OH248699   3.463   4.583   4.576 -0.2267 -0.2123  0.2163
 9095TIP3    H148700   3.479   4.666   4.621  0.3629  0.0272 -0.4336
 9095TIP3    H248701   3.412   4.532   4.639  2.2277 -0.6333  1.9455
 9096TIP3   OH248702   0.963   4.253   2.975 -0.5152 -0.4759  0.2514
 9096TIP3    H148703   0.980   4.296   2.891 -0.8323  0.0308  0.4460
 9096TIP3    H248704   0.916   4.173   2.951 -2.1482  0.5148  0.0509
 9097TIP3   OH248705   3.585   6.742  14.908 -0.5256  0.1775  0.0060
 9097TIP3    H148706   3.603   6.697  14.825 -2.6679 -0.4971 -0.1231
 9097TIP3    H248707   3.628   6.688  14.974  1.4702  0.8873 -0.6592
 9098TIP3   OH248708   3.211   4.266   1.911 -0.6858  0.2933  0.2724
 9098TIP3    H148709   3.270   4.284   1.984 -1.6747  0.6871  0.9764
 9098TIP3    H248710   3.164   4.348   1.897 -1.2687 -0.1040 -0.1166
 9099TIP3   OH248711   1.066   6.058   3.459  0.4092 -0.2280  0.3835
 9099TIP3    H148712   1.152   6.097   3.477  0.8306 -0.9908  0.0645
 9099TIP3    H248713   1.083   5.964   3.453 -0.0821 -0.2229 -1.6887
 9100TIP3   OH248714   0.077   1.353   2.602 -0.2340  0.4742  1.1619
 9100TIP3    H148715   0.077   1.381   2.510  1.9394  2.0056  1.5738
 9100TIP3    H248716   0.009   1.407   2.643 -0.6034  0.4205  0.6290
 9101TIP3   OH248717   1.843   5.232   4.247  0.4996 -0.6479  0.0872
 9101TIP3    H148718   1.878   5.292   4.313 -1.4007  2.1514 -1.3579
 9101TIP3    H248719   1.755   5.210   4.278  0.3146 -0.8467 -0.5711
 9102TIP3   OH248720   6.160   0.750  15.137  0.4041 -0.1065 -0.0329
 9102TIP3    H148721   6.189   0.831  15.094  1.1979 -0.7715 -0.7743
 9102TIP3    H248722   6.153   0.686  15.066 -1.0065 -0.4872  0.4244
 9103TIP3   OH248723   3.625   3.090   6.368  0.6403  0.2130  0.2001
 9103TIP3    H148724   3.653   3.037   6.444 -0.9974 -0.3874  0.3915
 9103TIP3    H248725   3.616   3.026   6.297 -1.9174  0.1297  0.5808
 9104TIP3   OH248726   0.363   4.707  13.854 -0.0980 -0.1405  0.8686
 9104TIP3    H148727   0.325   4.795  13.854 -2.3268 -1.0810 -0.6894
 9104TIP3    H248728   0.410   4.701  13.771 -1.8872 -1.2041 -0.0987
 9105TIP3   OH248729   0.974   4.073  13.420 -0.4550 -0.6370  1.1747
 9105TIP3    H148730   0.999   4.153  13.374 -1.0219 -0.7173  0.7328
 9105TIP3    H248731   1.038   4.008  13.391  0.0377 -0.3345  1.5730
 9106TIP3   OH248732   6.433   6.076  15.185 -0.2904  0.7301  0.0820
 9106TIP3    H148733   6.414   6.065  15.091 -0.2152  3.9730 -0.3850
 9106TIP3    H248734   6.525   6.103  15.187 -0.1399  0.1249  1.1349
 9107TIP3   OH248735   0.161   6.414   1.955 -0.0675  0.0162  0.0348
 9107TIP3    H148736   0.170   6.509   1.965 -0.2959  0.0163  0.2422
 9107TIP3    H248737   0.156   6.380   2.044 -0.8767 -0.1011 -0.0518
 9108TIP3   OH248738   0.648   6.115  10.989  0.2787  0.5009 -0.3341
 9108TIP3    H148739   0.581   6.048  11.004  0.5680  0.0591 -0.9640
 9108TIP3    H248740   0.622   6.156  10.906  0.7500  0.3771 -0.5457
 9109TIP3   OH248741   2.810   6.058  15.412 -0.1097 -0.1635 -0.3381
 9109TIP3    H148742   2.810   5.963  15.420  1.8649 -0.1541 -0.0790
 9109TIP3    H248743   2.858   6.075  15.330  1.7979  0.6806  0.9119
 9110TIP3   OH248744   4.020   2.757   2.309  0.4617  0.6042 -0.1417
 9110TIP3    H148745   4.053   2.845   2.328 -0.3631  1.2284 -1.4450
 9110TIP3    H248746   4.040   2.744   2.216  0.4704 -0.5340  0.0180
 9111TIP3   OH248747   5.369   2.144  15.080 -0.2396  0.5189  0.0661
 9111TIP3    H148748   5.290   2.092  15.066  1.3867 -1.4683 -1.9015
 9111TIP3    H248749   5.343   2.233  15.055 -2.1867  0.1109  0.5768
 9112TIP3   OH248750   0.162   6.443   3.123  0.5910  0.0765 -0.3881
 9112TIP3    H148751   0.109   6.471   3.198 -1.1453  1.2034 -2.0017
 9112TIP3    H248752   0.218   6.373   3.158 -1.6401 -0.8351  1.4877
 9113TIP3   OH248753   6.617   4.321  15.874  0.2103 -0.6173 -0.2232
 9113TIP3    H148754   6.628   4.236  15.917 -1.3368 -0.8604 -0.2717
 9113TIP3    H248755   6.559   4.303  15.799 -1.7944  0.8046  0.9219
 9114TIP3   OH248756   5.226   4.180   0.314  0.1908  0.7379  0.8058
 9114TIP3    H148757   5.252   4.136   0.395 -0.3605 -0.7385  0.1810
 9114TIP3    H248758   5.230   4.113   0.247  1.5058  2.1697 -0.5841
 9115TIP3   OH248759   0.423   0.641  13.515  0.3261  0.4207 -0.0177
 9115TIP3    H148760   0.507   0.674  13.548  0.8453 -1.7975  0.9709
 9115TIP3    H248761   0.417   0.675  13.426  0.4562  3.8054  1.2012
 9116TIP3   OH248762   5.944   1.030  15.445  0.5756  0.0745  0.5049
 9116TIP3    H148763   5.912   1.093  15.510 -0.6254  0.0022 -0.0117
 9116TIP3    H248764   6.040   1.036  15.452  0.4910 -0.8205  3.1437
 9117TIP3   OH248765   3.810   6.550   5.245 -0.4438 -0.5638 -0.3816
 9117TIP3    H148766   3.879   6.513   5.299 -1.5892  0.3587  1.7947
 9117TIP3    H248767   3.831   6.643   5.239 -2.5372  0.1619  2.1093
 9118TIP3   OH248768   6.027   2.614   6.622 -0.0106 -0.0528 -0.1745
 9118TIP3    H148769   6.077   2.551   6.674 -0.2378 -1.6816 -1.8876
 9118TIP3    H248770   5.975   2.662   6.687  0.8544 -0.9843  1.2501
 9119TIP3   OH248771   6.275   4.253   5.169  0.3577 -0.3186  0.1667
 9119TIP3    H148772   6.212   4.322   5.191  0.1675 -0.4745  0.1210
 9119TIP3    H248773   6.354   4.299   5.143  0.3142 -0.1229  0.3853
 9120TIP3   OH248774   0.469   5.449   1.792 -0.0783  0.0675  0.2542
 9120TIP3    H148775   0.526   5.418   1.723  0.6258  1.0018  0.3968
 9120TIP3    H248776   0.500   5.404   1.871 -0.8379 -0.9448 -0.0168
 9121TIP3   OH248777   4.541   2.351  15.151  0.8234 -0.3227  0.2746
 9121TIP3    H148778   4.462   2.313  15.190  0.5201  1.5916  1.5707
 9121TIP3    H248779   4.613   2.317  15.204  0.7477 -0.8983  0.0086
 9122TIP3   OH248780   4.855   4.004  10.966  0.4479  0.1063  0.0533
 9122TIP3    H148781   4.845   4.099  10.976 -1.1846 -0.1362  0.9043
 9122TIP3    H248782   4.898   3.994  10.882  1.3847  1.6416  0.3193
 9123TIP3   OH248783   3.177   3.283   0.664 -0.0385 -0.5122  0.5661
 9123TIP3    H148784   3.218   3.358   0.708  2.3825 -1.9939  0.9380
 9123TIP3    H248785   3.246   3.217   0.660 -2.2848 -2.9639  0.7896
 9124TIP3   OH248786   5.080   2.199  14.853 -0.0467  0.6203 -0.2859
 9124TIP3    H148787   5.058   2.106  14.862 -0.3788  0.7629  0.4367
 9124TIP3    H248788   5.046   2.223  14.767  0.6649 -0.0938 -0.7793
 9125TIP3   OH248789   3.723   5.795   3.336  0.1747 -0.5468  0.1527
 9125TIP3    H148790   3.812   5.828   3.349 -0.1863  0.6712 -0.3423
 9125TIP3    H248791   3.714   5.787   3.241 -0.7178  0.7043  0.1219
 9126TIP3   OH248792   6.521   1.642  11.524 -0.3657 -0.6946  0.3619
 9126TIP3    H148793   6.432   1.676  11.527  0.0465  0.3443  1.5389
 9126TIP3    H248794   6.540   1.632  11.431 -0.9806  1.0693  0.0271
 9127TIP3   OH248795   2.715   1.150   0.167  0.2269  0.4268  0.5570
 9127TIP3    H148796   2.681   1.117   0.250 -0.8427 -0.9984 -0.4110
 9127TIP3    H248797   2.797   1.102   0.153 -0.9800 -1.3898 -0.5143
 9128TIP3   OH248798   2.024   5.588   3.669 -0.0287  0.0059  0.2191
 9128TIP3    H148799   2.019   5.492   3.663  1.0069 -0.1557  1.4609
 9128TIP3    H248800   2.086   5.612   3.600 -0.2537 -0.2259 -0.0665
 9129TIP3   OH248801   2.814   0.641  12.053 -0.1771 -0.4179 -0.2565
 9129TIP3    H148802   2.855   0.575  11.998 -0.0590 -0.2682 -0.3466
 9129TIP3    H248803   2.735   0.666  12.005  0.1583  0.0367 -0.5737
 9130TIP3   OH248804   5.591   2.688  16.034 -0.0577 -0.2811 -0.2249
 9130TIP3    H148805   5.657   2.631  15.995 -1.4010 -0.9389 -1.5813
 9130TIP3    H248806   5.523   2.628  16.065 -0.5834  0.4707  0.0901
 9131TIP3   OH248807   2.279   0.750   0.092  0.7081  0.6739 -0.0365
 9131TIP3    H148808   2.262   0.711   0.178  1.7571  1.3877  0.5037
 9131TIP3    H248809   2.370   0.730   0.074  0.1634 -0.5704 -1.5775
 9132TIP3   OH248810   2.459   2.060  14.183 -0.0432 -0.1977 -0.0623
 9132TIP3    H148811   2.451   1.965  14.174  2.6834 -0.7115  2.1778
 9132TIP3    H248812   2.554   2.076  14.184 -0.4528  2.4509  0.5816
 9133TIP3   OH248813   5.955   1.911  14.213  0.3323 -0.0441 -0.2411
 9133TIP3    H148814   5.940   1.970  14.287 -0.2294 -0.5990  0.1005
 9133TIP3    H248815   5.874   1.915  14.162  0.1132 -0.8649  0.0363
 9134TIP3   OH248816   2.233   2.067  14.014  0.3100 -0.0463 -0.1929
 9134TIP3    H148817   2.304   2.058  14.078 -0.4652  0.2046  0.7103
 9134TIP3    H248818   2.262   2.015  13.939  0.4596 -1.8043  1.0390
 9135TIP3   OH248819   3.722   4.786   0.254 -0.5453 -0.2044  0.0494
 9135TIP3    H148820   3.653   4.805   0.190  0.1236  0.6032 -0.4385
 9135TIP3    H248821   3.692   4.829   0.334 -1.0547 -0.6349  0.0912
 9136TIP3   OH248822   1.694   4.910  12.211 -0.2947  0.6674  0.3024
 9136TIP3    H148823   1.639   4.837  12.239 -0.3140 -0.3027 -2.1138
 9136TIP3    H248824   1.784   4.881  12.229 -0.2754 -0.1724 -1.0459
 9137TIP3   OH248825   0.883   2.588  13.237  0.5873  0.7793 -0.4607
 9137TIP3    H148826   0.794   2.567  13.265  0.6228 -0.2405 -1.1001
 9137TIP3    H248827   0.885   2.568  13.143  1.3748  1.1742 -0.5371
 9138TIP3   OH248828   1.712   4.760  11.254 -0.0272 -0.0769  0.5531
 9138TIP3    H148829   1.714   4.700  11.179 -0.6895 -2.5807  2.4889
 9138TIP3    H248830   1.772   4.831  11.229  0.5720 -1.3842 -1.8926
 9139TIP3   OH248831   6.380   3.855  15.315  0.3330 -0.8441 -0.8117
 9139TIP3    H148832   6.403   3.763  15.328  0.2336 -1.0450 -2.0610
 9139TIP3    H248833   6.431   3.882  15.239  2.3999  0.8679  1.1105
 9140TIP3   OH248834   3.556   3.088   2.822 -0.0864 -0.3173  0.2637
 9140TIP3    H148835   3.554   2.993   2.833 -0.0901 -0.2985  0.4206
 9140TIP3    H248836   3.629   3.104   2.763 -1.3612 -0.5991 -1.4490
 9141TIP3   OH248837   1.157   3.966   2.266  0.0561 -0.2929 -0.3634
 9141TIP3    H148838   1.227   3.902   2.251  0.0220 -0.7998  1.5271
 9141TIP3    H248839   1.174   4.036   2.203  2.1751 -0.4828 -0.0351
 9142TIP3   OH248840   5.763   1.769  10.893  0.0597  0.2138 -0.2289
 9142TIP3    H148841   5.685   1.731  10.852 -0.4940 -1.4749  2.2431
 9142TIP3    H248842   5.823   1.785  10.821 -1.2405 -1.7128 -1.7949
 9143TIP3   OH248843   4.510   2.602   4.501 -0.1231 -0.4665 -0.4005
 9143TIP3    H148844   4.520   2.515   4.461 -0.8063 -0.1616 -1.2571
 9143TIP3    H248845   4.469   2.655   4.432 -0.0579  0.4332  0.2489
 9144TIP3   OH248846   3.667   0.153  14.601  0.8581  0.3359 -0.0527
 9144TIP3    H148847   3.650   0.202  14.521 -1.8783  0.5465  0.6097
 9144TIP3    H248848   3.582   0.147  14.644  1.5539 -2.9318  1.0533
 9145TIP3   OH248849   6.725   2.815  14.690 -0.1563  0.7931 -0.2265
 9145TIP3    H148850   6.698   2.730  14.723 -0.2242  1.3337  1.1736
 9145TIP3    H248851   6.753   2.799  14.600  2.2763 -1.1847  0.8137
 9146TIP3   OH248852   1.923   4.194   3.145 -0.4265 -0.2140  0.3660
 9146TIP3    H148853   1.954   4.113   3.186 -2.6187 -0.9230  0.6845
 9146TIP3    H248854   1.973   4.263   3.188 -0.9336 -1.1363  2.4796
 9147TIP3   OH248855   5.434   1.693   0.133  0.4242  0.1276  0.3521
 9147TIP3    H148856   5.509   1.732   0.179 -0.3629  0.4853  1.3429
 9147TIP3    H248857   5.446   1.719   0.042  1.8647 -0.3691  0.3874
 9148TIP3   OH248858   1.193   0.548   4.484  0.5352  0.5432  0.4830
 9148TIP3    H148859   1.169   0.628   4.532 -0.3893 -0.0411  1.0152
 9148TIP3    H248860   1.136   0.481   4.520  1.0533 -0.2865 -0.2265
 9149TIP3   OH248861   5.542   3.935  15.000  0.2452  0.0273 -0.0548
 9149TIP3    H148862   5.598   3.924  15.076  1.9219 -0.1616 -1.2857
 9149TIP3    H248863   5.603   3.953  14.928 -1.2837 -0.0827 -1.3994
 9150TIP3   OH248864   2.569   2.468   2.821  0.3306  0.2170  0.5711
 9150TIP3    H148865   2.637   2.410   2.853 -0.1075 -0.6349 -0.0377
 9150TIP3    H248866   2.576   2.546   2.877  0.3694 -0.7435  1.9255
 9151TIP3   OH248867   0.181   1.848   3.455  0.3608 -0.2069 -0.8934
 9151TIP3    H148868   0.276   1.852   3.465  0.2279  0.9927 -0.0472
 9151TIP3    H248869   0.158   1.757   3.473  1.4239 -0.6628 -1.8019
 9152TIP3   OH248870   5.510   3.966   0.419 -0.1658 -0.3915  0.3670
 9152TIP3    H148871   5.418   3.951   0.440 -0.5942  0.4661 -0.8843
 9152TIP3    H248872   5.512   3.976   0.324  1.1964 -0.1837  0.4058
 9153TIP3   OH248873   2.794   3.269   4.638 -0.2116 -0.6059  0.0358
 9153TIP3    H148874   2.813   3.298   4.549  0.6668 -2.5625 -0.4407
 9153TIP3    H248875   2.877   3.277   4.684 -0.3953 -0.6651  0.3779
 9154TIP3   OH248876   3.374   1.610  15.151 -0.1794 -0.5260  0.3935
 9154TIP3    H148877   3.357   1.579  15.062  0.4759 -0.1925  0.1573
 9154TIP3    H248878   3.296   1.661  15.173  0.1142  0.2762 -0.3869
 9155TIP3   OH248879   2.912   3.553  13.470 -0.6826  0.3208 -0.4482
 9155TIP3    H148880   2.874   3.477  13.516  0.9530  1.3669  2.7199
 9155TIP3    H248881   2.989   3.518  13.426 -0.5770 -0.1135  0.0722
 9156TIP3   OH248882   2.798   3.827   5.205  0.2484 -0.5818 -0.2366
 9156TIP3    H148883   2.803   3.885   5.281 -1.1095  0.1791 -0.7266
 9156TIP3    H248884   2.762   3.745   5.239 -1.5405  0.1708 -0.2839
 9157TIP3   OH248885   4.579   2.126   1.121  0.3032  0.8498 -0.2596
 9157TIP3    H148886   4.669   2.155   1.133 -0.2627  2.3499  0.3941
 9157TIP3    H248887   4.580   2.033   1.144  1.8275  0.6747 -1.0052
 9158TIP3   OH248888   1.662   3.731  12.198 -0.6726 -0.1241  0.1165
 9158TIP3    H148889   1.567   3.733  12.191 -0.8354 -2.1306  1.5519
 9158TIP3    H248890   1.693   3.715  12.109 -1.7991 -2.2380  0.0821
 9159TIP3   OH248891   6.382   3.508   1.229  0.2455 -0.0733 -0.6067
 9159TIP3    H148892   6.363   3.548   1.144 -0.4488 -0.4014 -0.6070
 9159TIP3    H248893   6.423   3.578   1.280 -0.3691  0.4485 -0.8268
 9160TIP3   OH248894   1.030   1.479   2.923  0.0081 -0.2936  0.5238
 9160TIP3    H148895   0.990   1.494   3.009  0.7475 -1.4408  1.0746
 9160TIP3    H248896   1.033   1.384   2.914 -0.6559 -0.1873 -1.0586
 9161TIP3   OH248897   2.221   2.294  16.953  0.3937 -0.1681 -0.0205
 9161TIP3    H148898   2.193   2.336  17.033  0.9310 -0.3926  0.2915
 9161TIP3    H248899   2.273   2.219  16.982 -0.5154 -1.0264 -0.5689
 9162TIP3   OH248900   4.551   4.081  11.846 -0.1752 -0.2336 -0.5671
 9162TIP3    H148901   4.573   4.105  11.936 -1.1259  0.6892 -0.5698
 9162TIP3    H248902   4.595   4.147  11.792 -0.2024 -0.3536 -0.7349
 9163TIP3   OH248903   0.488   1.381   0.172 -0.3325 -0.1140  0.0430
 9163TIP3    H148904   0.423   1.336   0.226  0.0389 -0.3079  0.3317
 9163TIP3    H248905   0.559   1.402   0.233  0.2184 -0.5972 -0.4217
 9164TIP3   OH248906   4.931   5.035   2.401  0.3797 -0.3890 -0.3746
 9164TIP3    H148907   4.897   4.964   2.456  0.7958 -0.3613 -0.0764
 9164TIP3    H248908   4.978   5.091   2.462 -0.0786  0.2284 -0.5875
 9165TIP3   OH248909   3.598   3.240  12.451  0.3708  0.1130 -0.5358
 9165TIP3    H148910   3.616   3.148  12.430 -0.7176  0.0106 -1.0355
 9165TIP3    H248911   3.606   3.285  12.368 -0.7672  0.2105 -0.5924
 9166TIP3   OH248912   3.320   1.353   0.676 -0.5252 -0.5973  0.1625
 9166TIP3    H148913   3.311   1.443   0.645  0.0307 -0.4839  0.3250
 9166TIP3    H248914   3.407   1.350   0.717 -0.7274 -1.0849  0.5628
 9167TIP3   OH248915   5.914   5.498  12.077 -0.2919 -0.2578 -0.4037
 9167TIP3    H148916   5.935   5.575  12.131  0.0354 -1.4491  1.2146
 9167TIP3    H248917   5.827   5.516  12.042 -0.3206  0.7376  0.1728
 9168TIP3   OH248918   0.478   0.952   0.553 -0.4809  0.3053  0.3422
 9168TIP3    H148919   0.555   0.899   0.572 -1.0295 -0.2852  0.9378
 9168TIP3    H248920   0.512   1.027   0.505  0.5352  0.2862  1.0151
 9169TIP3   OH248921   5.080   6.695  11.558 -0.0314 -0.2837  0.0918
 9169TIP3    H148922   5.051   6.724  11.644  0.1633  0.6378 -0.1433
 9169TIP3    H248923   5.152   6.754  11.536  0.1410 -0.7307 -0.5548
 9170TIP3   OH248924   3.762   1.101   3.325 -0.2960  0.5806 -0.0189
 9170TIP3    H148925   3.698   1.165   3.293 -0.7928 -0.3714 -0.9703
 9170TIP3    H248926   3.763   1.033   3.258 -0.4234 -0.8380  1.3909
 9171TIP3   OH248927   2.029   0.775   3.243  0.0889 -0.6881 -0.0287
 9171TIP3    H148928   1.952   0.792   3.298 -0.8117 -3.1440 -0.4647
 9171TIP3    H248929   2.005   0.807   3.156  0.1616 -0.0877  0.1649
 9172TIP3   OH248930   2.131   0.025   2.162  0.5380  0.7774 -0.4683
 9172TIP3    H148931   2.226   0.020   2.148  0.6311 -0.7713  0.5834
 9172TIP3    H248932   2.095  -0.043   2.106  0.0746  1.0790 -0.5414
 9173TIP3   OH248933   2.333   3.974  11.880  0.1505  0.2006  0.5309
 9173TIP3    H148934   2.402   4.011  11.935 -0.5056  1.1086  0.7634
 9173TIP3    H248935   2.286   4.050  11.847 -0.6622 -0.4090  0.2712
 9174TIP3   OH248936   6.294   4.763   3.716  0.3542 -0.3061  0.4771
 9174TIP3    H148937   6.206   4.732   3.737 -0.0010 -0.8019 -1.6558
 9174TIP3    H248938   6.280   4.849   3.676  0.8593 -0.2624  0.3912
 9175TIP3   OH248939   6.632   5.837  11.587  0.2307  0.4386 -0.1555
 9175TIP3    H148940   6.590   5.921  11.566  0.0720  0.4588  0.2399
 9175TIP3    H248941   6.651   5.798  11.502 -1.2622  0.0859 -0.3369
 9176TIP3   OH248942   6.058   5.676   0.835  0.4245 -0.3023  0.3498
 9176TIP3    H148943   6.145   5.703   0.863  0.6254  0.7845 -1.2235
 9176TIP3    H248944   6.074   5.607   0.770  0.2313  1.2467 -1.4014
 9177TIP3   OH248945   0.031   4.821  11.675  0.0115  0.3584 -0.0433
 9177TIP3    H148946   0.089   4.811  11.599  0.8002 -0.6089  0.6646
 9177TIP3    H248947   0.085   4.795  11.749 -0.8938  0.8634  0.8037
 9178TIP3   OH248948   2.962   1.289   5.800  0.3784 -0.0535  0.0677
 9178TIP3    H148949   3.006   1.208   5.826 -1.4473 -1.3534 -0.7982
 9178TIP3    H248950   2.886   1.295   5.857 -0.3717  0.1913 -0.9473
 9179TIP3   OH248951   2.976   3.414  16.595  0.1432  0.5625  0.0122
 9179TIP3    H148952   2.931   3.459  16.524  0.9281 -1.5092 -1.8693
 9179TIP3    H248953   2.968   3.472  16.670 -1.9756  2.1448 -1.3939
 9180TIP3   OH248954   0.848   0.337   5.407  0.6735 -0.4923  0.0545
 9180TIP3    H148955   0.928   0.288   5.387  1.5308  1.2523 -1.0167
 9180TIP3    H248956   0.880   0.418   5.448 -0.6220 -0.3226  0.7426
 9181TIP3   OH248957   3.281   5.052  16.229 -0.5045 -0.4934  0.7238
 9181TIP3    H148958   3.192   5.089  16.234 -0.4569 -0.3878  0.7935
 9181TIP3    H248959   3.271   4.962  16.259 -0.4758 -0.2919  1.3570
 9182TIP3   OH248960   4.902   5.143  13.251  0.8742  0.4895  0.1656
 9182TIP3    H148961   4.852   5.224  13.241 -0.1290 -0.3402 -1.6560
 9182TIP3    H248962   4.873   5.107  13.335  1.1063  1.8536  0.8374
 9183TIP3   OH248963   2.108   0.393   3.014  0.1930  0.5781 -0.2569
 9183TIP3    H148964   2.082   0.443   2.937  0.7128  1.4823  0.1388
 9183TIP3    H248965   2.099   0.456   3.086 -1.1676 -0.5232  0.5479
 9184TIP3   OH248966   2.834   2.370   2.661  0.2737  0.2511  0.1929
 9184TIP3    H148967   2.862   2.375   2.752 -2.9415  0.5507  1.2185
 9184TIP3    H248968   2.842   2.277   2.638 -0.0213 -0.0121  1.1554
 9185TIP3   OH248969   2.020   0.011  13.938  0.6608 -0.5502 -0.5278
 9185TIP3    H148970   2.088   0.018  13.871  0.1771  0.1194 -0.9600
 9185TIP3    H248971   2.067   0.023  14.021  1.0992 -0.2436 -0.8161
 9186TIP3   OH248972   5.737   4.963   4.957 -0.2079 -0.2738  0.3991
 9186TIP3    H148973   5.762   4.999   5.042 -1.5323 -1.8369  1.4929
 9186TIP3    H248974   5.661   4.908   4.976 -1.1532  0.1569 -1.9702
 9187TIP3   OH248975   3.024   4.404   4.302 -0.2210 -0.1431 -0.1789
 9187TIP3    H148976   2.959   4.360   4.248 -1.1303 -0.8564  1.4389
 9187TIP3    H248977   2.984   4.489   4.323  0.0076  0.0186 -0.3932
 9188TIP3   OH248978   5.590   2.105   4.931 -0.0671  0.3567 -0.1651
 9188TIP3    H148979   5.678   2.082   4.901  0.1635  1.7320 -0.5485
 9188TIP3    H248980   5.603   2.152   5.013 -0.5313 -0.6211  0.4856
 9189TIP3   OH248981   1.617   5.300   3.225  0.7283  0.1473  0.1362
 9189TIP3    H148982   1.596   5.349   3.146 -2.8943 -1.6202 -0.1001
 9189TIP3    H248983   1.561   5.337   3.293 -0.0587 -1.7750  0.5833
 9190TIP3   OH248984   5.899   2.436   0.416 -0.0656  0.0151  0.1935
 9190TIP3    H148985   5.861   2.523   0.405 -1.8970 -0.8042 -0.2627
 9190TIP3    H248986   5.993   2.449   0.407 -0.4371  1.6945 -1.4852
 9191TIP3   OH248987   6.267   0.569   4.423  0.4161  0.2564  0.1478
 9191TIP3    H148988   6.176   0.576   4.451  0.5607  0.6191  0.5388
 9191TIP3    H248989   6.262   0.545   4.331 -0.0693 -1.8451  0.7020
 9192TIP3   OH248990   3.329   2.349  13.393  0.7378  0.1182  0.0711
 9192TIP3    H148991   3.337   2.263  13.352  1.0229 -0.4117  1.2290
 9192TIP3    H248992   3.353   2.335  13.484  0.8993  1.4490  0.2502
 9193TIP3   OH248993   0.984   3.793   3.374  0.0726 -0.1633  0.9181
 9193TIP3    H148994   0.992   3.700   3.395  1.4651 -0.7730 -2.0388
 9193TIP3    H248995   1.069   3.830   3.396  0.2218 -0.0297  0.1402
 9194TIP3   OH248996   4.654   2.290  11.681 -0.5205 -0.2607  0.1235
 9194TIP3    H148997   4.564   2.305  11.651 -1.0251 -1.1183  1.1762
 9194TIP3    H248998   4.650   2.303  11.776  0.7618  1.0204  0.0143
 9195TIP3   OH248999   2.844   1.116  15.482 -0.2724 -0.0163  0.3744
 9195TIP3    H149000   2.795   1.198  15.479  1.0264  0.7538 -0.1775
 9195TIP3    H249001   2.911   1.129  15.549  1.6615  0.3806 -1.5867
 9196TIP3   OH249002   4.645   4.455  11.198 -0.1882  0.5624  0.2809
 9196TIP3    H149003   4.616   4.487  11.283 -1.5371  2.4081 -0.8446
 9196TIP3    H249004   4.674   4.534  11.151 -0.2243 -0.3231 -1.2699
 9197TIP3   OH249005   0.897   5.689  16.253  0.4275  0.0684  0.3290
 9197TIP3    H149006   0.864   5.729  16.333  1.0192  1.8625 -0.2885
 9197TIP3    H249007   0.845   5.730  16.183  0.0343 -1.3490 -0.2236
 9198TIP3   OH249008   5.753   5.133   4.068  0.5989  0.0249 -0.2544
 9198TIP3    H149009   5.714   5.070   4.130  1.8499 -1.4580 -0.9295
 9198TIP3    H249010   5.762   5.083   3.987 -1.4660  2.0904 -1.8098
 9199TIP3   OH249011   5.058   2.924   2.480 -0.5349 -0.0105  0.0478
 9199TIP3    H149012   5.026   2.836   2.498  0.8444 -0.7474 -1.0608
 9199TIP3    H249013   5.063   2.929   2.385 -1.8378  1.7186  0.0582
 9200TIP3   OH249014   4.575   2.697   3.507 -0.0436 -0.2038  0.0805
 9200TIP3    H149015   4.637   2.736   3.569 -0.1706  1.0070 -0.5464
 9200TIP3    H249016   4.630   2.647   3.446  0.2057 -0.1993  0.3028
 9201TIP3   OH249017   4.564   2.443  16.880 -0.3683 -0.1465  0.3521
 9201TIP3    H149018   4.618   2.478  16.951 -0.5743  1.4000 -0.2388
 9201TIP3    H249019   4.543   2.354  16.908  3.0934 -1.0484  0.2355
 9202TIP3   OH249020   0.583   0.643   2.548  0.1943  0.1070 -0.0384
 9202TIP3    H149021   0.615   0.589   2.476 -0.4413 -0.9957  0.5105
 9202TIP3    H249022   0.558   0.726   2.507  1.4976  0.1176 -0.8237
 9203TIP3   OH249023   5.334   5.968   2.769 -0.0833  0.2817 -0.4153
 9203TIP3    H149024   5.376   6.049   2.743 -1.2222  0.9387 -0.2673
 9203TIP3    H249025   5.319   5.978   2.863  0.3686 -0.3773 -0.2715
 9204TIP3   OH249026   3.222   6.121   1.100 -0.2192 -0.3645  0.2007
 9204TIP3    H149027   3.310   6.113   1.064 -0.9757  0.6212 -1.8984
 9204TIP3    H249028   3.166   6.071   1.041 -0.9417 -1.9257  2.1371
 9205TIP3   OH249029   1.493   1.170   2.862  0.1928 -1.0396  0.0651
 9205TIP3    H149030   1.461   1.236   2.801 -0.6945 -0.9490  0.6166
 9205TIP3    H249031   1.414   1.125   2.892  0.6285 -1.1650  1.0404
 9206TIP3   OH249032   5.092   1.361   2.099  0.3697 -0.3700  0.0262
 9206TIP3    H149033   5.184   1.363   2.074 -0.4785 -2.2143 -3.6522
 9206TIP3    H249034   5.087   1.291   2.163  1.4989 -0.3564  0.1487
 9207TIP3   OH249035   4.173   6.077  16.690  0.2462 -0.8902 -0.1713
 9207TIP3    H149036   4.265   6.070  16.665  0.3153 -0.1094 -0.1725
 9207TIP3    H249037   4.152   6.170  16.677 -1.1729 -1.4948 -2.3077
 9208TIP3   OH249038   3.377   2.288   2.577 -0.5460 -0.1606 -0.3228
 9208TIP3    H149039   3.425   2.205   2.585 -0.6179 -0.5454 -3.2148
 9208TIP3    H249040   3.329   2.279   2.494 -1.0309  2.5309 -0.3562
 9209TIP3   OH249041   3.375   5.903  14.263  0.2087 -0.0619 -0.0146
 9209TIP3    H149042   3.405   5.954  14.338  0.1080 -0.3441  0.2207
 9209TIP3    H249043   3.365   5.814  14.298 -1.0238  0.0487 -0.0558
 9210TIP3   OH249044   0.690   3.425   5.114 -0.2179  0.4994  0.0764
 9210TIP3    H149045   0.646   3.504   5.083  1.7888  0.7226 -2.3899
 9210TIP3    H249046   0.733   3.451   5.195  0.9128  2.1216 -1.0303
 9211TIP3   OH249047   3.353   4.984   5.107 -0.2965 -0.1302 -0.3274
 9211TIP3    H149048   3.447   4.986   5.120 -0.4629  1.4955  0.8127
 9211TIP3    H249049   3.317   4.963   5.193 -1.0182  0.6182 -0.4416
 9212TIP3   OH249050   4.921   5.587   0.789 -0.8191 -1.0468 -0.3706
 9212TIP3    H149051   4.909   5.511   0.732  0.4000 -1.7196  0.2352
 9212TIP3    H249052   4.966   5.552   0.866 -1.1526  0.1110  0.3641
 9213TIP3   OH249053   2.532   6.023  13.902  0.0059 -0.1044 -0.4373
 9213TIP3    H149054   2.510   6.092  13.964  1.1412  1.0236 -1.2568
 9213TIP3    H249055   2.520   6.063  13.816  1.0849 -0.7819 -0.9200
 9214TIP3   OH249056   1.157   6.411   0.161  0.6303 -0.1518  0.6294
 9214TIP3    H149057   1.176   6.389   0.253  0.9822 -2.1711  0.0907
 9214TIP3    H249058   1.133   6.328   0.121 -0.2080  0.8447 -0.9627
 9215TIP3   OH249059   0.396   6.528   0.595 -0.2403 -0.0240  0.0461
 9215TIP3    H149060   0.483   6.514   0.557 -0.2035  1.7141 -0.5620
 9215TIP3    H249061   0.370   6.442   0.629  1.3826 -0.7288 -0.4558
 9216TIP3   OH249062   0.770   5.610   4.429  0.4951  0.5948  0.0653
 9216TIP3    H149063   0.726   5.576   4.507 -1.1466  3.1126  0.2681
 9216TIP3    H249064   0.862   5.587   4.442  0.0599 -0.0860  2.1608
 9217TIP3   OH249065   0.505   6.092  12.565  0.1820  0.1059 -0.1258
 9217TIP3    H149066   0.487   6.018  12.507  0.0573 -0.1017  0.1744
 9217TIP3    H249067   0.468   6.065  12.649  0.2854  0.4416  0.0259
 9218TIP3   OH249068   6.636   5.234  10.850  0.5134 -0.1984  0.2330
 9218TIP3    H149069   6.708   5.171  10.842 -0.4865 -1.1413 -1.6941
 9218TIP3    H249070   6.571   5.204  10.787 -0.8418  1.6351  0.7213
 9219TIP3   OH249071   4.456   4.139   5.416  0.0830 -0.5228  0.2458
 9219TIP3    H149072   4.386   4.185   5.370 -0.8862 -2.2882 -0.0678
 9219TIP3    H249073   4.484   4.201   5.484 -0.5485  0.8932 -0.7625
 9220TIP3   OH249074   0.386   0.075   4.810  0.6469  0.1877  0.0469
 9220TIP3    H149075   0.326   0.008   4.844  2.1365  0.3419  3.1890
 9220TIP3    H249076   0.426   0.113   4.889  0.4297  4.2422 -1.7023
 9221TIP3   OH249077   4.961   6.357  11.851  0.1654 -0.2969  0.2043
 9221TIP3    H149078   4.956   6.453  11.850  0.8880 -0.2509  0.5946
 9221TIP3    H249079   4.982   6.333  11.761 -0.9999 -0.1535 -0.1183
 9222TIP3   OH249080   1.508   0.032   0.490  0.0004  0.0528  0.0400
 9222TIP3    H149081   1.548   0.096   0.431  0.3719 -0.4320 -0.2390
 9222TIP3    H249082   1.583  -0.015   0.528 -0.2587 -0.0101  0.4748
 9223TIP3   OH249083   2.840   1.808  14.153  0.8163  0.9931  0.2522
 9223TIP3    H149084   2.851   1.886  14.098  0.3649  1.9906  1.5542
 9223TIP3    H249085   2.746   1.787  14.146  0.6330  1.4952  1.1229
 9224TIP3   OH249086   3.698   6.755  12.647  0.3840 -0.2789 -0.3853
 9224TIP3    H149087   3.699   6.723  12.737 -2.1012 -0.5405 -0.4144
 9224TIP3    H249088   3.738   6.684  12.596  0.1856 -0.8747  0.2854
 9225TIP3   OH249089   0.896   5.944   0.012  0.2512 -0.2605 -0.1227
 9225TIP3    H149090   0.805   5.949  -0.017 -0.3858  0.0617  1.8540
 9225TIP3    H249091   0.925   5.857  -0.016 -0.4110 -0.0723 -1.4442
 9226TIP3   OH249092   0.484   6.554   2.000  0.2251 -0.5651 -0.0661
 9226TIP3    H149093   0.405   6.598   1.971  0.3779  0.1234  0.5535
 9226TIP3    H249094   0.455   6.497   2.072  0.4944  0.6314  1.0081
 9227TIP3   OH249095   6.772   0.320  15.828 -0.0513  0.0070 -0.3134
 9227TIP3    H149096   6.804   0.400  15.868  0.2334 -0.4781  0.4442
 9227TIP3    H249097   6.677   0.323  15.841 -0.2664  1.1165 -1.9576
 9228TIP3   OH249098   2.190   2.075   2.836  0.3835 -0.3399 -0.6544
 9228TIP3    H149099   2.185   2.069   2.741 -1.4887 -2.5462 -0.4576
 9228TIP3    H249100   2.127   2.144   2.858 -1.1999 -1.6678 -0.8781
 9229TIP3   OH249101   1.230   0.466  14.244 -0.1565  0.0782  0.7493
 9229TIP3    H149102   1.313   0.485  14.287 -0.9649 -0.8823  2.7973
 9229TIP3    H249103   1.255   0.419  14.164  1.2567 -1.0267  1.8042
 9230TIP3   OH249104   6.261   4.860  12.067  0.0061 -0.5377  0.5817
 9230TIP3    H149105   6.309   4.908  12.001  0.5716 -2.0099 -0.0960
 9230TIP3    H249106   6.328   4.820  12.122 -0.4523  0.7655  2.1481
 9231TIP3   OH249107   1.537   5.906  16.700  0.2756  0.6777 -0.2208
 9231TIP3    H149108   1.477   5.961  16.650 -0.4352 -0.3298 -0.4690
 9231TIP3    H249109   1.622   5.949  16.689  0.0111  0.8458 -1.7385
 9232TIP3   OH249110   0.750   6.786   0.521  0.3340 -0.0584 -0.9803
 9232TIP3    H149111   0.843   6.810   0.517  0.5002 -0.5256 -0.1898
 9232TIP3    H249112   0.703   6.866   0.499  0.9224  0.3531 -0.7602
 9233TIP3   OH249113   5.070   3.486  17.152 -0.3630  0.7688  0.4326
 9233TIP3    H149114   4.988   3.436  17.157 -1.1507  1.9849 -0.2383
 9233TIP3    H249115   5.134   3.422  17.119 -0.7731 -0.4850  1.9808
 9234TIP3   OH249116   3.423   6.627   0.591 -0.0826  0.1900 -0.4499
 9234TIP3    H149117   3.494   6.563   0.582 -1.6149 -1.8116  1.2290
 9234TIP3    H249118   3.460   6.709   0.557  3.3661 -0.5245  1.3716
 9235TIP3   OH249119   4.091   4.368   3.950 -0.3071  0.1904 -0.2363
 9235TIP3    H149120   4.005   4.397   3.919  1.1977  2.6704 -2.3573
 9235TIP3    H249121   4.073   4.294   4.007 -3.6061 -1.3147 -3.1048
 9236TIP3   OH249122   5.059   4.418   1.836 -0.0947  0.4468  0.3441
 9236TIP3    H149123   5.122   4.410   1.908  1.3412 -0.4832 -1.0015
 9236TIP3    H249124   5.064   4.334   1.791 -2.4200  0.2946  0.2921
 9237TIP3   OH249125   3.536   4.366  14.335 -0.0678  0.4015 -0.8180
 9237TIP3    H149126   3.551   4.448  14.383  0.0608  0.5506 -1.1115
 9237TIP3    H249127   3.624   4.339  14.307 -0.1104  0.1633 -0.7191
 9238TIP3   OH249128   0.788   3.367   4.080  0.4650 -0.0349 -0.4703
 9238TIP3    H149129   0.728   3.331   4.145 -0.1785 -0.8804 -1.5233
 9238TIP3    H249130   0.756   3.455   4.064 -1.6248 -1.0859 -2.3628
 9239TIP3   OH249131   5.632   5.491  15.065  0.2978  0.1066  0.8391
 9239TIP3    H149132   5.643   5.398  15.045  1.3224  0.2134  0.9285
 9239TIP3    H249133   5.557   5.494  15.125 -0.3377 -0.5676  0.0872
 9240TIP3   OH249134   3.900   6.775  14.308 -0.2972 -0.1719  0.4191
 9240TIP3    H149135   3.828   6.715  14.326 -0.7534 -0.2757 -1.6473
 9240TIP3    H249136   3.975   6.718  14.289 -0.2350 -0.0797  0.3871
 9241TIP3   OH249137   2.469   0.246   6.053 -0.1789 -0.4245  0.0742
 9241TIP3    H149138   2.541   0.244   5.990 -2.1449 -1.1052 -2.2131
 9241TIP3    H249139   2.485   0.171   6.110  0.8483 -0.6459 -0.4862
 9242TIP3   OH249140   0.713   0.236   5.612  0.2829 -0.2116  0.2612
 9242TIP3    H149141   0.767   0.281   5.547 -1.7151 -0.6703 -1.7904
 9242TIP3    H249142   0.703   0.298   5.684  1.1660  0.9430 -0.6098
 9243TIP3   OH249143   0.490   4.128  12.187 -0.1767 -0.4162 -0.0375
 9243TIP3    H149144   0.562   4.104  12.129  0.5351 -2.2632  1.5668
 9243TIP3    H249145   0.532   4.177  12.258 -1.1155  2.3169 -1.2990
 9244TIP3   OH249146   4.242   6.235   4.259 -0.4526  0.0328 -0.4702
 9244TIP3    H149147   4.195   6.311   4.224 -0.1542 -0.3075 -1.6421
 9244TIP3    H249148   4.307   6.214   4.191 -0.1897 -0.9466  0.0785
 9245TIP3   OH249149   0.002   4.994   1.066  0.5999 -0.4646  0.3260
 9245TIP3    H149150   0.027   4.944   0.988 -1.1650  0.7564 -1.0885
 9245TIP3    H249151  -0.092   4.982   1.073  0.6673 -0.0853  1.9368
 9246TIP3   OH249152   0.707   0.173  14.232  0.1776 -0.0433  0.3137
 9246TIP3    H149153   0.699   0.179  14.327 -0.4167  0.1763  0.2500
 9246TIP3    H249154   0.799   0.191  14.215 -0.1571  2.2424  0.6836
 9247TIP3   OH249155   4.059   4.899  13.119  0.1105 -0.0144 -0.3598
 9247TIP3    H149156   4.146   4.860  13.108 -1.2414 -3.0261 -0.7206
 9247TIP3    H249157   4.042   4.894  13.213  0.0670  0.0277 -0.3654
 9248TIP3   OH249158   5.402   1.494   2.603 -0.0314 -0.0452 -0.2942
 9248TIP3    H149159   5.316   1.530   2.623  0.0677  0.4621 -0.7631
 9248TIP3    H249160   5.463   1.562   2.630  0.2365 -0.4591  0.1658
 9249TIP3   OH249161   2.738   0.451   4.220 -0.1543  0.1376  0.3424
 9249TIP3    H149162   2.739   0.361   4.187  1.2062  0.5145 -0.6746
 9249TIP3    H249163   2.770   0.444   4.310  1.2276 -0.2441 -0.1623
 9250TIP3   OH249164   3.829   1.916  17.046 -0.1874 -0.2804  0.4085
 9250TIP3    H149165   3.850   2.007  17.025  0.6924 -0.2537  1.3845
 9250TIP3    H249166   3.895   1.890  17.110 -0.1982 -1.7306 -0.1519
 9251TIP3   OH249167   0.414   2.479  16.710 -0.2057  0.2006 -0.0224
 9251TIP3    H149168   0.472   2.404  16.720  0.9955  0.8959 -1.6997
 9251TIP3    H249169   0.449   2.544  16.771 -0.0922  0.0950  0.0257
 9252TIP3   OH249170   4.373   3.014   4.634  0.0323 -0.4343 -0.0149
 9252TIP3    H149171   4.463   2.980   4.638  0.5921  0.8485 -1.1059
 9252TIP3    H249172   4.341   2.983   4.549 -0.5723 -0.9034  0.3828
 9253TIP3   OH249173   6.227   5.607   3.753 -1.1514  0.2533 -0.5912
 9253TIP3    H149174   6.139   5.607   3.792 -0.9333 -0.7221 -0.0976
 9253TIP3    H249175   6.220   5.548   3.678 -0.3462 -1.6134  0.7651
 9254TIP3   OH249176   2.588   2.023  16.157  0.5349 -0.5747 -0.3587
 9254TIP3    H149177   2.500   1.998  16.129  1.2717 -1.3838 -2.0508
 9254TIP3    H249178   2.627   1.941  16.190  0.9241 -0.4021 -0.3814
 9255TIP3   OH249179   3.116   2.632  10.962  0.1147 -0.2614  0.3860
 9255TIP3    H149180   3.197   2.604  11.003  0.3925  1.3254  0.9527
 9255TIP3    H249181   3.124   2.727  10.954 -2.0859  0.0372  1.3677
 9256TIP3   OH249182   3.736   6.725  16.174  0.4763  0.7118 -0.0524
 9256TIP3    H149183   3.794   6.771  16.113 -0.1875  0.5693 -0.8035
 9256TIP3    H249184   3.768   6.635  16.175  1.1449  0.9505  0.6358
 9257TIP3   OH249185   4.769   5.231   1.910 -0.1774 -0.0459 -0.0438
 9257TIP3    H149186   4.784   5.227   2.004 -0.6245  0.2725  0.0394
 9257TIP3    H249187   4.857   5.232   1.872  0.0218  1.1060  0.4258
 9258TIP3   OH249188   3.668   4.348   2.648  0.5711 -0.1928  0.0041
 9258TIP3    H149189   3.654   4.351   2.554  0.7691  2.4277  0.0311
 9258TIP3    H249190   3.599   4.290   2.681 -1.4669  1.3613 -1.4155
 9259TIP3   OH249191   4.234   1.103   6.274  0.1716 -0.5297  0.3087
 9259TIP3    H149192   4.329   1.105   6.273  0.1513  0.3994 -0.9292
 9259TIP3    H249193   4.212   1.009   6.269  1.0138 -0.6895 -0.4870
 9260TIP3   OH249194   3.046   3.152   0.986 -0.2196 -0.1585 -0.7176
 9260TIP3    H149195   3.077   3.237   0.954  1.3631 -0.3708  0.1814
 9260TIP3    H249196   3.114   3.090   0.961  0.2135 -0.6089  1.4749
 9261TIP3   OH249197   5.116   6.417  14.063 -1.0525  0.4186  0.4975
 9261TIP3    H149198   5.137   6.489  14.004 -1.6497  0.4798  0.3531
 9261TIP3    H249199   5.130   6.452  14.151  0.1164  0.2405  0.3975
 9262TIP3   OH249200   3.698   2.891   0.898  0.2005  0.5351 -0.9980
 9262TIP3    H149201   3.710   2.839   0.977  1.8955  2.9879  0.4201
 9262TIP3    H249202   3.619   2.855   0.857  0.3884 -2.0157  0.7865
 9263TIP3   OH249203   5.068   2.696  16.060  0.2633 -0.1662  0.0497
 9263TIP3    H149204   5.016   2.643  16.120  0.5430 -1.7991 -1.1338
 9263TIP3    H249205   5.151   2.711  16.106 -0.2328  0.2027  0.8367
 9264TIP3   OH249206   3.971   4.415  15.307  0.2231 -0.1578 -0.0137
 9264TIP3    H149207   3.982   4.362  15.386 -0.9754  0.4737  0.5923
 9264TIP3    H249208   4.030   4.375  15.243 -1.4146 -2.8920  0.0801
 9265TIP3   OH249209   2.453   1.400  10.518 -0.6474  0.8061  0.2583
 9265TIP3    H149210   2.503   1.461  10.464 -0.0383  1.4581  1.5458
 9265TIP3    H249211   2.499   1.316  10.508  0.8477  1.4417  1.5915
 9266TIP3   OH249212   4.442   5.474  11.944  0.5618 -0.1118  0.2264
 9266TIP3    H149213   4.389   5.396  11.964  0.2698 -0.5595 -2.0789
 9266TIP3    H249214   4.405   5.543  11.999  0.4175 -1.4378  1.8447
 9267TIP3   OH249215   1.777   0.420   3.538 -0.9856 -0.2596  0.2213
 9267TIP3    H149216   1.815   0.359   3.474  0.4939  1.6288 -0.7717
 9267TIP3    H249217   1.840   0.423   3.609 -0.9879  0.1949  0.2087
 9268TIP3   OH249218   4.273   5.379   5.760 -0.1954 -0.5489  0.0379
 9268TIP3    H149219   4.298   5.413   5.846 -0.3824  1.5863 -0.7062
 9268TIP3    H249220   4.245   5.289   5.776  1.1055 -0.6226  1.9840
 9269TIP3   OH249221   4.605   2.779   0.409 -0.4502 -0.0004 -0.2876
 9269TIP3    H149222   4.539   2.770   0.477 -0.3584 -0.3277 -0.2362
 9269TIP3    H249223   4.556   2.777   0.327 -0.6337  1.1808 -0.2122
 9270TIP3   OH249224   2.137   2.117  16.177 -0.0545 -0.0263 -0.0406
 9270TIP3    H149225   2.163   2.041  16.125 -1.6469  0.1901 -1.1825
 9270TIP3    H249226   2.205   2.125  16.244  1.6518 -0.7388 -1.6421
 9271TIP3   OH249227   5.502   5.880   0.982  0.0912 -0.4243 -0.0397
 9271TIP3    H149228   5.477   5.862   0.892 -0.6398  0.0063  0.0716
 9271TIP3    H249229   5.547   5.965   0.978 -0.5345 -0.0810  0.0905
 9272TIP3   OH249230   5.281   6.351  15.199 -0.0841 -0.1460 -0.0394
 9272TIP3    H149231   5.347   6.409  15.236 -1.1253  0.3571  1.0593
 9272TIP3    H249232   5.272   6.380  15.108  0.4109  0.4903  0.1129
 9273TIP3   OH249233   3.139   5.091  11.572 -0.2321 -0.3528  0.7619
 9273TIP3    H149234   3.061   5.049  11.534 -0.6845  0.7682  0.4135
 9273TIP3    H249235   3.202   5.093  11.500 -0.6429  0.6453  0.4240
 9274TIP3   OH249236   1.606   5.278   4.447 -0.2963 -0.0922 -0.1175
 9274TIP3    H149237   1.525   5.231   4.429 -0.1785  0.0775 -1.1434
 9274TIP3    H249238   1.578   5.367   4.468 -0.2861  0.4651 -2.3482
 9275TIP3   OH249239   2.716   5.906   3.516 -0.0854 -0.0114 -0.2209
 9275TIP3    H149240   2.718   5.997   3.547 -0.0780 -0.9355  2.6273
 9275TIP3    H249241   2.777   5.905   3.442  2.1299  1.7074  1.5110
 9276TIP3   OH249242   2.079   0.012  17.039 -0.6035 -0.1172  0.3636
 9276TIP3    H149243   2.078  -0.053  17.109  2.2809 -0.0503  0.5383
 9276TIP3    H249244   2.161  -0.004  16.992  0.0581  3.1558  0.2528
 9277TIP3   OH249245   0.483   1.430   1.435 -0.0122  0.4593  0.1907
 9277TIP3    H149246   0.519   1.478   1.509 -0.5486 -0.5397  1.1135
 9277TIP3    H249247   0.532   1.462   1.359  1.6947  0.3065  1.2028
 9278TIP3   OH249248   2.604   2.717   2.277  0.4372  0.5635  0.4484
 9278TIP3    H149249   2.667   2.645   2.281 -2.9862 -2.5971 -0.5633
 9278TIP3    H249250   2.580   2.723   2.185 -1.2737  1.2651  0.9224
 9279TIP3   OH249251   6.410   0.944   4.090 -0.9872 -0.4859 -0.0402
 9279TIP3    H149252   6.493   0.961   4.045 -1.0355 -1.3174 -0.4457
 9279TIP3    H249253   6.397   1.021   4.145  1.6626 -1.7143  2.4646
 9280TIP3   OH249254   3.188   1.775  12.386 -0.1571  0.0592 -0.3244
 9280TIP3    H149255   3.200   1.804  12.477  1.1314 -0.6131 -0.2703
 9280TIP3    H249256   3.204   1.854  12.334 -1.6186  0.6259  0.0560
 9281TIP3   OH249257   1.834   1.023  13.574  0.2545 -0.0913  0.3581
 9281TIP3    H149258   1.823   0.929  13.560  0.0226 -0.0631  0.3402
 9281TIP3    H249259   1.865   1.056  13.490  0.8420 -0.2302  0.5203
 9282TIP3   OH249260   1.716   0.027  10.896 -0.3169  0.4468  0.2993
 9282TIP3    H149261   1.624   0.012  10.874  0.1980  2.6547 -4.0156
 9282TIP3    H249262   1.762  -0.050  10.860 -0.2981  0.1808  0.8928
 9283TIP3   OH249263   6.306   6.208   1.661  0.0912 -0.3867  0.5053
 9283TIP3    H149264   6.290   6.247   1.575 -3.1315  0.2857  1.3133
 9283TIP3    H249265   6.261   6.123   1.658  0.8909 -0.8419  1.1550
 9284TIP3   OH249266   0.406   0.865  12.473 -0.1163 -0.1468  0.2153
 9284TIP3    H149267   0.441   0.947  12.439 -0.3539  0.4359  1.3296
 9284TIP3    H249268   0.481   0.806  12.477 -0.2834 -0.5500 -2.2410
 9285TIP3   OH249269   4.423   1.963  11.811  0.3709 -0.2259  0.1293
 9285TIP3    H149270   4.400   2.015  11.887  0.8687  0.2783 -0.0670
 9285TIP3    H249271   4.499   2.007  11.773 -0.5128  0.1245 -1.2632
 9286TIP3   OH249272   3.358   3.096   3.447  0.4458 -0.2494 -0.8889
 9286TIP3    H149273   3.447   3.073   3.422  1.1704  2.6737 -1.0822
 9286TIP3    H249274   3.366   3.175   3.499 -1.9209 -0.8155  0.4334
 9287TIP3   OH249275   2.349   0.303   2.232 -0.0049 -0.1977  0.3899
 9287TIP3    H149276   2.438   0.336   2.215 -0.3913  1.2957  1.1260
 9287TIP3    H249277   2.359   0.208   2.238  1.3760 -0.1304 -0.5488
 9288TIP3   OH249278   2.973   0.118   1.802  0.2061 -0.3695 -0.0481
 9288TIP3    H149279   2.990   0.079   1.716  1.3600  0.3033 -0.1282
 9288TIP3    H249280   2.909   0.187   1.784  0.6987 -0.0079 -0.4280
 9289TIP3   OH249281   0.368   6.340  15.484 -1.0489  0.7364  0.5001
 9289TIP3    H149282   0.341   6.332  15.392  0.4562  2.0054 -0.0621
 9289TIP3    H249283   0.462   6.359  15.480 -0.5969 -0.9744  2.3639
 9290TIP3   OH249284   3.182   1.951  14.455  0.1980 -0.4498 -0.1087
 9290TIP3    H149285   3.117   1.885  14.431 -0.4891 -0.2670  1.1839
 9290TIP3    H249286   3.130   2.030  14.470  0.7298 -0.2955  0.8983
 9291TIP3   OH249287   2.713   6.179   3.580  0.1755  0.0168  0.4044
 9291TIP3    H149288   2.687   6.249   3.520 -0.9104 -0.0988  0.7408
 9291TIP3    H249289   2.672   6.202   3.663  1.2265 -0.1183  0.9768
 9292TIP3   OH249290   4.996   4.555   5.280  0.5845 -0.0350 -0.2717
 9292TIP3    H149291   4.906   4.549   5.249  0.2419 -1.3502  0.9143
 9292TIP3    H249292   4.992   4.528   5.372  2.3960 -1.5496 -0.6035
 9293TIP3   OH249293   2.355   1.459  15.004 -0.2225  0.0560 -0.0014
 9293TIP3    H149294   2.358   1.423  15.092  1.9734 -0.8708 -0.4160
 9293TIP3    H249295   2.437   1.508  14.995  0.2983 -1.1096 -1.9976
 9294TIP3   OH249296   4.291   5.634   2.032  0.5305 -0.1909 -0.6472
 9294TIP3    H149297   4.382   5.646   2.008  0.4418  0.4128 -0.6854
 9294TIP3    H249298   4.272   5.543   2.012  0.2744  0.4556 -3.4736
 9295TIP3   OH249299   1.092   3.977   5.831 -0.1680 -0.2155 -0.5785
 9295TIP3    H149300   1.176   3.955   5.872  0.3237 -0.2792 -1.6086
 9295TIP3    H249301   1.029   3.975   5.903  0.7641  0.1197  0.2593
 9296TIP3   OH249302   1.715   1.809  16.704 -0.4164 -0.6345 -0.4002
 9296TIP3    H149303   1.744   1.803  16.612  0.1728  0.1272 -0.2711
 9296TIP3    H249304   1.793   1.785  16.755 -0.3059  0.4099 -0.0713
 9297TIP3   OH249305   0.809   3.985   1.653  0.3976  0.1284  0.0922
 9297TIP3    H149306   0.874   3.949   1.713  2.3421  1.7065 -1.0427
 9297TIP3    H249307   0.730   3.934   1.671  2.2527 -2.6761  0.6084
 9298TIP3   OH249308   5.864   5.399  14.761  0.1437 -1.0500 -0.1765
 9298TIP3    H149309   5.784   5.353  14.787  0.1342 -1.0614 -0.2270
 9298TIP3    H249310   5.906   5.422  14.844  0.1702 -1.1863 -0.1520
 9299TIP3   OH249311   3.021   6.082  12.556 -0.5312  0.0539  0.1872
 9299TIP3    H149312   3.086   6.149  12.536 -1.7678  1.4747  0.8010
 9299TIP3    H249313   2.998   6.046  12.470  0.2684  0.2928 -0.1344
 9300TIP3   OH249314   5.598   1.360   2.797 -0.2024  0.4008  0.2744
 9300TIP3    H149315   5.653   1.434   2.772  0.0824  0.2535  0.4682
 9300TIP3    H249316   5.518   1.371   2.745 -0.3605  1.1161  0.6673
 9301TIP3   OH249317   2.159   6.436   3.909  0.2445  0.1587 -0.1241
 9301TIP3    H149318   2.117   6.518   3.935  0.7419  0.1728  0.6586
 9301TIP3    H249319   2.087   6.382   3.875  0.0054  1.1249 -1.1699
 9302TIP3   OH249320   6.749   3.349   1.612  0.4096 -0.0768  0.5770
 9302TIP3    H149321   6.697   3.385   1.541  2.3573  0.8379 -0.4394
 9302TIP3    H249322   6.820   3.413   1.624  1.9167 -1.8118  1.1331
 9303TIP3   OH249323   1.559   3.222  12.021 -0.3243 -0.4120  0.2512
 9303TIP3    H149324   1.501   3.238  11.946  2.0628  0.7239 -1.3929
 9303TIP3    H249325   1.645   3.209  11.983  0.8474 -0.3963  2.7856
 9304TIP3   OH249326   5.023   1.572  13.997  0.0992 -0.0763  0.2124
 9304TIP3    H149327   5.064   1.644  13.949 -0.7222 -0.6360 -1.3570
 9304TIP3    H249328   5.079   1.559  14.074  1.7046  0.5054 -0.8439
 9305TIP3   OH249329   3.882   3.399  11.855  0.0559 -0.0534 -0.4222
 9305TIP3    H149330   3.930   3.449  11.790 -0.8675  1.3093 -0.0802
 9305TIP3    H249331   3.886   3.309  11.824  2.4169  0.1092 -0.6300
 9306TIP3   OH249332   3.140   1.889   5.660  0.2563  0.4208  0.6282
 9306TIP3    H149333   3.100   1.964   5.706  1.9170  0.9748  1.2199
 9306TIP3    H249334   3.221   1.924   5.624  1.8923 -1.5144  2.3397
 9307TIP3   OH249335   1.181   2.435  17.014 -0.4603 -0.4559  0.0076
 9307TIP3    H149336   1.134   2.472  17.089 -0.5700  0.5357 -0.5339
 9307TIP3    H249337   1.273   2.453  17.033 -0.2606 -2.5429  1.1450
 9308TIP3   OH249338   1.360   3.286  15.506  0.5586 -0.0611 -0.1855
 9308TIP3    H149339   1.345   3.280  15.600  2.1969  1.6620  0.2247
 9308TIP3    H249340   1.332   3.202  15.471  0.9393 -1.1120  1.9889
 9309TIP3   OH249341   6.201   6.600  14.482 -0.4992 -0.0183  0.7307
 9309TIP3    H149342   6.202   6.648  14.565 -1.6523 -1.0341  1.3622
 9309TIP3    H249343   6.288   6.560  14.476  0.4415  2.0755  0.2210
 9310TIP3   OH249344   1.989   0.932   3.004 -0.3869  0.4670  0.1620
 9310TIP3    H149345   1.901   0.964   3.022  0.4233  2.0910  1.3664
 9310TIP3    H249346   2.046   1.004   3.029  1.4179 -1.3688  1.4465
 9311TIP3   OH249347   6.600   4.688  11.508 -0.3198  0.3855  0.4913
 9311TIP3    H149348   6.622   4.699  11.601  1.1592 -0.3546  0.2385
 9311TIP3    H249349   6.509   4.656  11.509  0.5706 -2.2626  1.8297
 9312TIP3   OH249350   2.249   0.996  13.516 -0.4661  0.2513  0.3943
 9312TIP3    H149351   2.216   0.966  13.600 -0.4407 -0.9834 -0.0172
 9312TIP3    H249352   2.173   0.999  13.459  0.0525 -2.5234 -0.5328
 9313TIP3   OH249353   6.639   5.577   0.133 -0.3961 -0.4376  0.4694
 9313TIP3    H149354   6.689   5.521   0.193 -0.6619 -0.4671  0.6632
 9313TIP3    H249355   6.620   5.520   0.058  1.8942  0.2567 -0.6739
 9314TIP3   OH249356   3.415   0.551   0.388 -0.7292 -0.2295  0.6051
 9314TIP3    H149357   3.446   0.604   0.462 -0.0234 -0.0847  0.2163
 9314TIP3    H249358   3.320   0.557   0.392 -0.6449  2.2498 -0.2586
 9315TIP3   OH249359   1.323   2.473   3.974  0.2550 -0.0137 -0.1030
 9315TIP3    H149360   1.250   2.436   3.926  1.1263 -0.3336 -1.1812
 9315TIP3    H249361   1.400   2.424   3.945  1.0140  0.8053  0.4639
 9316TIP3   OH249362   3.920   4.691  16.225 -0.3202  0.0968 -0.4687
 9316TIP3    H149363   4.015   4.693  16.219 -0.2574  0.0988  0.4736
 9316TIP3    H249364   3.891   4.766  16.173  0.3195  1.8160  1.5689
 9317TIP3   OH249365   5.079   2.780   2.874 -0.2751 -0.1816 -0.1763
 9317TIP3    H149366   5.036   2.789   2.789  0.3633  1.3265 -0.3556
 9317TIP3    H249367   5.138   2.705   2.862 -0.5473 -0.2873 -0.9045
 9318TIP3   OH249368   4.376   2.106  15.534  0.0154  0.0758  0.2356
 9318TIP3    H149369   4.298   2.155  15.561  1.3585  1.9951  0.7821
 9318TIP3    H249370   4.427   2.094  15.614 -1.0764 -3.8106  0.4303
 9319TIP3   OH249371   0.074   4.708  17.119 -0.3639  0.0581 -0.3676
 9319TIP3    H149372   0.146   4.751  17.072 -0.3470 -0.9103 -1.2453
 9319TIP3    H249373   0.098   4.615  17.120 -2.0221 -0.4055 -1.4595
 9320TIP3   OH249374   3.865   3.527   6.584  0.4052  0.2327 -0.1551
 9320TIP3    H149375   3.869   3.584   6.507 -0.9861 -0.0183 -0.4419
 9320TIP3    H249376   3.772   3.528   6.609  0.4403 -1.4842  0.1296
 9321TIP3   OH249377   3.341   4.475  16.639  0.4325 -0.4349 -0.4409
 9321TIP3    H149378   3.377   4.542  16.698 -1.9066 -0.6719  1.3307
 9321TIP3    H249379   3.346   4.394  16.690 -0.3327 -0.9029 -1.1103
 9322TIP3   OH249380   6.436   5.701  16.183 -0.3631  0.0024 -0.2074
 9322TIP3    H149381   6.517   5.650  16.184 -1.1474 -1.2666  1.3535
 9322TIP3    H249382   6.403   5.692  16.093  0.1150 -1.3029 -0.2604
 9323TIP3   OH249383   0.987   4.330   3.676  0.1892 -0.5159  0.1935
 9323TIP3    H149384   0.974   4.370   3.591  1.2610 -3.0235 -1.2079
 9323TIP3    H249385   0.899   4.318   3.711 -0.1790  1.9881  0.1709
 9324TIP3   OH249386   6.386   5.630  11.509 -0.7265  0.1242 -0.4282
 9324TIP3    H149387   6.312   5.654  11.453 -0.7928  3.0185  0.8529
 9324TIP3    H249388   6.463   5.642  11.453 -0.9532  0.6123 -0.6355
 9325TIP3   OH249389   1.208   1.604   1.127  0.0834  0.5931  0.2890
 9325TIP3    H149390   1.234   1.523   1.172  1.4631  1.6007  1.3361
 9325TIP3    H249391   1.291   1.646   1.103 -0.6237  0.7214 -2.0801
 9326TIP3   OH249392   6.670   1.444  12.851 -0.2070  0.2099 -0.2232
 9326TIP3    H149393   6.666   1.439  12.756  1.5588  1.5533 -0.3891
 9326TIP3    H249394   6.618   1.370  12.881 -0.5395 -0.3967 -2.2351
 9327TIP3   OH249395   3.143   4.954   3.802  0.2070 -0.5240  0.3657
 9327TIP3    H149396   3.150   4.870   3.847  0.4739 -0.7545 -0.1044
 9327TIP3    H249397   3.070   4.943   3.741  0.3545 -0.4717  0.1791
 9328TIP3   OH249398   4.666   3.329  11.962  0.0463  0.2572 -0.5973
 9328TIP3    H149399   4.756   3.297  11.961  0.3714  1.1076  0.7072
 9328TIP3    H249400   4.622   3.279  11.893  0.8111 -2.2589  0.6752
 9329TIP3   OH249401   2.294   0.077   0.882 -0.2066  0.2678 -0.0338
 9329TIP3    H149402   2.334  -0.007   0.904  0.4209  0.6968  0.4815
 9329TIP3    H249403   2.312   0.088   0.788 -0.4371 -0.2482 -0.1414
 9330TIP3   OH249404   6.192   1.770   3.676 -0.4542  0.0041 -0.4237
 9330TIP3    H149405   6.234   1.854   3.658 -1.0135  0.1130 -1.2396
 9330TIP3    H249406   6.198   1.722   3.594  1.0657 -1.2862  0.4254
 9331TIP3   OH249407   1.845   4.317  16.006 -0.9425  0.4574  0.1553
 9331TIP3    H149408   1.932   4.353  16.025 -0.4106  0.2178 -1.7195
 9331TIP3    H249409   1.859   4.223  16.000 -1.5183  0.3298  0.8370
 9332TIP3   OH249410   2.155   5.193  11.428  0.4893 -0.0528  0.3832
 9332TIP3    H149411   2.115   5.107  11.423  0.4457  0.0654 -1.7189
 9332TIP3    H249412   2.082   5.254  11.419  0.7441  0.1863 -0.0831
 9333TIP3   OH249413   3.663   1.040   4.949 -0.3234 -0.5838  0.2750
 9333TIP3    H149414   3.726   1.063   4.881 -0.3176 -0.6429  0.2610
 9333TIP3    H249415   3.664   1.115   5.008 -0.3246 -0.5344  0.2128
 9334TIP3   OH249416   1.519   5.672   0.996  0.3707  0.3500 -0.3556
 9334TIP3    H149417   1.443   5.693   1.049 -0.7040  0.2307 -1.8343
 9334TIP3    H249418   1.542   5.582   1.022  0.4652  0.6422  0.6031
 9335TIP3   OH249419   5.352   1.317   2.018  0.7428 -0.3557 -0.3376
 9335TIP3    H149420   5.401   1.399   2.018  3.1343 -1.7099  2.8677
 9335TIP3    H249421   5.374   1.276   1.934  4.0087 -0.2616  0.4109
 9336TIP3   OH249422   5.581   1.695  16.408 -0.3788 -0.3619  0.3067
 9336TIP3    H149423   5.675   1.715  16.413 -0.5596  0.3039  1.3782
 9336TIP3    H249424   5.577   1.600  16.410  0.3861 -0.4852 -2.2927
 9337TIP3   OH249425   4.131   0.668   5.037 -0.1724 -0.3915 -0.3980
 9337TIP3    H149426   4.161   0.692   4.949  0.3206  0.0956 -0.1026
 9337TIP3    H249427   4.121   0.573   5.033  1.0953 -0.5243 -0.6119
 9338TIP3   OH249428   5.854   6.006   1.089 -0.7584  0.0870 -0.3466
 9338TIP3    H149429   5.869   5.962   1.005  0.5236 -0.0532 -0.0566
 9338TIP3    H249430   5.763   6.034   1.085 -0.6401  0.3139 -1.9050
 9339TIP3   OH249431   5.732   4.618  10.632 -0.2230 -0.0438  0.3390
 9339TIP3    H149432   5.710   4.661  10.550  0.6820  0.6221  0.4370
 9339TIP3    H249433   5.703   4.528  10.621 -0.4229  0.1334 -0.5756
 9340TIP3   OH249434   3.727   0.922   3.100  0.1427 -0.0702 -0.7611
 9340TIP3    H149435   3.668   0.847   3.097  0.4723 -0.3819  0.2539
 9340TIP3    H249436   3.672   0.997   3.078 -1.1205 -0.0735  2.1620
 9341TIP3   OH249437   0.999   5.612  15.256  0.3375  0.6376 -0.3735
 9341TIP3    H149438   1.084   5.570  15.267 -0.0995 -0.3047 -0.5438
 9341TIP3    H249439   0.942   5.568  15.319 -0.1941  0.7713 -0.7615
 9342TIP3   OH249440   5.738   2.658   1.486  0.6994 -0.4221  0.3583
 9342TIP3    H149441   5.717   2.598   1.414 -0.1208 -1.4263  1.4182
 9342TIP3    H249442   5.832   2.675   1.475  0.3112  0.5701 -1.7710
 9343TIP3   OH249443   1.146   3.436   2.373 -0.3582 -0.3637  0.4156
 9343TIP3    H149444   1.105   3.468   2.454  0.0706 -1.1815  0.9498
 9343TIP3    H249445   1.083   3.372   2.339 -2.0855  2.2827 -1.5983
 9344TIP3   OH249446   1.926   4.083  15.861 -0.8852  0.2368 -0.4822
 9344TIP3    H149447   1.929   4.138  15.783 -1.1317  0.0600 -0.6193
 9344TIP3    H249448   1.932   3.994  15.828 -0.0237  0.1924 -0.2306
 9345TIP3   OH249449   6.050   6.726  14.303  0.3567 -0.2684 -0.1146
 9345TIP3    H149450   5.986   6.658  14.282  0.7976 -0.4578 -0.8526
 9345TIP3    H249451   6.117   6.680  14.355  0.0571 -0.1364  0.3942
 9346TIP3   OH249452   0.163   6.551   1.073 -0.1254  0.4454 -0.1533
 9346TIP3    H149453   0.081   6.589   1.041 -0.0154  1.0859  0.3317
 9346TIP3    H249454   0.226   6.571   1.004  0.0022  1.4096  0.2433
 9347TIP3   OH249455   4.133   0.667   4.521 -0.0192 -0.2762  0.0970
 9347TIP3    H149456   4.206   0.625   4.475  0.2302 -0.7334  0.8966
 9347TIP3    H249457   4.157   0.663   4.613 -1.7290 -1.8207  0.5322
 9348TIP3   OH249458   2.200   6.106   1.810  0.1859 -0.0532  1.3888
 9348TIP3    H149459   2.118   6.067   1.841 -1.2128  1.7577  0.0887
 9348TIP3    H249460   2.188   6.113   1.715  1.7749  0.4475  1.2218
 9349TIP3   OH249461   0.604   2.940  15.562  0.5662  0.1486  0.3230
 9349TIP3    H149462   0.671   3.008  15.551 -0.3310  1.3050  1.8447
 9349TIP3    H249463   0.568   2.927  15.475  1.7920  0.5307 -0.2500
 9350TIP3   OH249464   1.794   5.665  12.081 -0.8159 -0.4515  0.5636
 9350TIP3    H149465   1.860   5.732  12.097 -0.5163 -0.8274  0.9138
 9350TIP3    H249466   1.796   5.651  11.987 -2.0240  1.2025  0.2668
 9351TIP3   OH249467   2.004   5.862  12.774  0.0816 -0.6256 -0.1093
 9351TIP3    H149468   2.047   5.780  12.801  0.4593 -0.0716  1.0172
 9351TIP3    H249469   2.071   5.909  12.724  0.9227  0.3238  1.8070
 9352TIP3   OH249470   6.758   6.485  12.528  0.7634 -0.4959  0.0006
 9352TIP3    H149471   6.741   6.525  12.443 -0.1259 -0.3917  0.2201
 9352TIP3    H249472   6.818   6.413  12.510 -0.3465 -1.2121 -0.8876
 9353TIP3   OH249473   4.656   4.104  13.142  0.0824  0.1974 -0.1896
 9353TIP3    H149474   4.743   4.142  13.131 -0.7406  1.5549 -2.5331
 9353TIP3    H249475   4.652   4.078  13.234  1.9593  2.6990  0.6689
 9354TIP3   OH249476   2.217   5.712   2.646  0.7909 -0.4743  0.1256
 9354TIP3    H149477   2.268   5.670   2.714  2.7369 -0.9290 -1.5665
 9354TIP3    H249478   2.274   5.782   2.613 -0.7982  0.8495  0.1262
 9355TIP3   OH249479   1.660   1.644   1.532 -0.2616  0.1999 -0.2703
 9355TIP3    H149480   1.571   1.656   1.498 -1.0139  1.4406  2.0182
 9355TIP3    H249481   1.656   1.678   1.621  1.9756 -1.7306  0.6163
 9356TIP3   OH249482   0.440   3.115  13.391  0.1309  0.2661 -0.3227
 9356TIP3    H149483   0.438   3.192  13.334  1.3640 -1.7124 -3.1340
 9356TIP3    H249484   0.355   3.115  13.435  0.2700  3.4349  0.0610
 9357TIP3   OH249485   4.401   4.813   4.643  0.1846 -0.3203 -0.8907
 9357TIP3    H149486   4.459   4.883   4.610  0.9936 -0.7748 -0.4457
 9357TIP3    H249487   4.389   4.755   4.567  3.2025 -2.1406 -0.0821
 9358TIP3   OH249488   2.622   2.977   3.470 -0.2406 -0.0382  0.4994
 9358TIP3    H149489   2.682   2.921   3.421 -0.6454  0.0704 -0.1322
 9358TIP3    H249490   2.676   3.020   3.536  0.7786  1.6489 -1.3919
 9359TIP3   OH249491   2.973   6.552   4.720  0.1316  0.1093  0.7974
 9359TIP3    H149492   3.017   6.628   4.759  0.7958  0.3589 -0.4228
 9359TIP3    H249493   2.929   6.586   4.643 -1.8082 -0.2446  1.7125
 9360TIP3   OH249494   2.036   2.974   1.609  0.1456 -0.2870  0.7676
 9360TIP3    H149495   2.039   3.062   1.573 -0.1550  0.0676  1.5797
 9360TIP3    H249496   2.119   2.934   1.584  0.2024  0.1637  0.2384
 9361TIP3   OH249497   2.506   3.618   1.570 -0.0920  0.4831  0.8502
 9361TIP3    H149498   2.518   3.711   1.587  0.1130  0.4572  0.8517
 9361TIP3    H249499   2.557   3.601   1.491 -1.2655  0.6566  0.0552
 9362TIP3   OH249500   3.942   3.246   3.194 -0.5856  0.3919  0.4791
 9362TIP3    H149501   3.965   3.179   3.130 -0.4609  1.0176 -0.1359
 9362TIP3    H249502   4.026   3.269   3.235 -0.5711  0.4747  0.3999
 9363TIP3   OH249503   5.125   3.457  12.214 -0.0859  0.0920 -0.3205
 9363TIP3    H149504   5.109   3.400  12.289  1.0902 -1.1538 -1.0004
 9363TIP3    H249505   5.093   3.543  12.242 -2.0223 -0.9183  0.6571
 9364TIP3   OH249506   5.001   4.350  14.351 -0.4217 -0.0749  0.0029
 9364TIP3    H149507   4.950   4.378  14.275 -2.5117 -0.2877  1.2595
 9364TIP3    H249508   4.940   4.296  14.401  1.1681 -0.5774  1.4322
 9365TIP3   OH249509   1.665   4.646  14.164 -0.7369  0.0970 -0.1388
 9365TIP3    H149510   1.687   4.722  14.110 -1.6087  0.1368 -0.4447
 9365TIP3    H249511   1.722   4.654  14.241 -0.8063  1.0396 -0.1795
 9366TIP3   OH249512   5.701   0.415  14.703 -0.0347 -0.4200 -0.3514
 9366TIP3    H149513   5.681   0.327  14.736 -0.3839  0.0365  0.6592
 9366TIP3    H249514   5.687   0.473  14.778  1.1360  0.3904 -0.7513
 9367TIP3   OH249515   5.372   6.002   4.983  0.2626 -0.0392  0.2065
 9367TIP3    H149516   5.343   6.067   4.919  2.2810  0.0489 -0.6655
 9367TIP3    H249517   5.450   6.041   5.023 -1.3582  0.2044  3.2371
 9368TIP3   OH249518   3.106   3.372  14.639 -0.3649  0.3602  0.0984
 9368TIP3    H149519   3.077   3.442  14.581  0.4299 -0.7337 -1.6840
 9368TIP3    H249520   3.030   3.316  14.649 -0.3356  0.2255 -0.4076
 9369TIP3   OH249521   3.683   0.305  11.789  0.2750  0.1083 -0.2584
 9369TIP3    H149522   3.600   0.347  11.764  1.1558  1.6984 -0.5655
 9369TIP3    H249523   3.711   0.258  11.711  1.1011  1.9370 -1.0827
 9370TIP3   OH249524   2.930   0.449   5.980 -0.8152 -0.7527 -0.0137
 9370TIP3    H149525   2.890   0.385   5.921 -2.3262  2.1331 -2.2303
 9370TIP3    H249526   2.990   0.498   5.925 -1.7575  1.5701  0.9865
 9371TIP3   OH249527   2.948   2.216  14.873 -0.3083  0.4111  0.2630
 9371TIP3    H149528   3.010   2.181  14.809 -1.4625  1.5661 -1.5245
 9371TIP3    H249529   2.874   2.155  14.870 -1.2138  1.5407 -0.9777
 9372TIP3   OH249530   6.305   2.545  14.521 -0.7711  0.2885 -1.0620
 9372TIP3    H149531   6.389   2.511  14.552 -0.9275 -0.1632 -1.1260
 9372TIP3    H249532   6.261   2.469  14.483 -1.9754  0.1193  0.6105
 9373TIP3   OH249533   0.826   2.014   2.875 -0.3801 -0.3594  0.1606
 9373TIP3    H149534   0.826   2.110   2.884  0.9862 -0.4917  1.9926
 9373TIP3    H249535   0.738   1.993   2.844 -0.6304  1.5047 -0.4986
 9374TIP3   OH249536   2.692   1.752  11.282 -0.1517 -0.0538  0.3952
 9374TIP3    H149537   2.683   1.833  11.333  0.3854 -0.4558  1.1305
 9374TIP3    H249538   2.661   1.776  11.194 -0.7356  0.7382  0.8054
 9375TIP3   OH249539   2.607   6.551   0.092 -0.0768 -0.3869  0.0451
 9375TIP3    H149540   2.570   6.573   0.177  1.4060  4.9638 -0.4731
 9375TIP3    H249541   2.692   6.511   0.112 -0.9861 -1.7917  1.0911
 9376TIP3   OH249542   0.776   3.059  14.629  0.2233  0.2648  0.4008
 9376TIP3    H149543   0.837   3.007  14.577  0.4025 -0.0728  0.9546
 9376TIP3    H249544   0.826   3.087  14.705 -0.1364  0.4922  0.5595
 9377TIP3   OH249545   3.690   2.543   0.795  0.1467 -0.4573 -0.2830
 9377TIP3    H149546   3.630   2.613   0.820  1.3795  0.7089 -0.4526
 9377TIP3    H249547   3.691   2.547   0.699 -0.9885 -1.7728 -0.3530
 9378TIP3   OH249548   6.013   0.922  13.764 -0.0460 -0.1216 -0.0055
 9378TIP3    H149549   6.039   0.866  13.691 -1.4528  0.4081 -0.9270
 9378TIP3    H249550   5.976   1.000  13.724  0.7868  0.9576  1.2826
 9379TIP3   OH249551   4.542   1.116   0.361  0.2199  0.5605 -0.2142
 9379TIP3    H149552   4.493   1.168   0.424  0.8458 -1.0358  1.6347
 9379TIP3    H249553   4.477   1.093   0.294 -0.5310  1.9871 -0.0050
 9380TIP3   OH249554   1.261   4.237  10.984  0.5844 -0.1574 -0.0959
 9380TIP3    H149555   1.223   4.292  11.053  0.9426  1.4591 -1.1518
 9380TIP3    H249556   1.354   4.260  10.983  0.6002 -0.2147 -1.0455
 9381TIP3   OH249557   4.837   0.371   2.938 -0.1070 -0.1121 -0.1440
 9381TIP3    H149558   4.853   0.320   3.018  1.2083 -2.2119 -1.6734
 9381TIP3    H249559   4.830   0.305   2.869 -2.0922  1.6219 -1.6486
 9382TIP3   OH249560   2.932   3.683   5.556  0.0516  0.1640 -0.3830
 9382TIP3    H149561   2.852   3.687   5.609  1.3444 -0.1320  1.6317
 9382TIP3    H249562   2.978   3.606   5.588 -0.3157 -1.4937 -3.7034
 9383TIP3   OH249563   1.538   2.312   5.548  0.2385 -0.0419 -0.1629
 9383TIP3    H149564   1.449   2.347   5.537  0.5696  1.0961  0.6806
 9383TIP3    H249565   1.529   2.245   5.614  0.3853  1.7081  1.6854
 9384TIP3   OH249566   4.831   1.829  12.767  0.4225 -0.4986  0.2027
 9384TIP3    H149567   4.874   1.886  12.832 -0.1389  0.5502 -0.3418
 9384TIP3    H249568   4.898   1.763  12.746  1.1942  0.1501  0.5850
 9385TIP3   OH249569   1.724   4.241   2.987  0.4341 -0.5248  0.3016
 9385TIP3    H149570   1.747   4.156   2.951  1.5748 -0.3971  0.7233
 9385TIP3    H249571   1.788   4.257   3.056  0.6604  0.9694 -0.2184
 9386TIP3   OH249572   2.352   1.743  11.685  0.1684 -0.6618 -0.1289
 9386TIP3    H149573   2.278   1.747  11.745 -0.0021 -0.8122 -0.3253
 9386TIP3    H249574   2.312   1.719  11.601  0.0384  2.1005 -0.9173
 9387TIP3   OH249575   3.340   5.799  11.437 -0.2494 -0.2293  0.0560
 9387TIP3    H149576   3.375   5.722  11.482  1.5984  1.5456  1.7149
 9387TIP3    H249577   3.378   5.795  11.349 -0.0183 -1.0910  0.1862
 9388TIP3   OH249578   4.097   1.953  14.813 -0.2927 -0.1552  0.0230
 9388TIP3    H149579   4.122   1.879  14.868 -1.5485 -0.0809  0.7009
 9388TIP3    H249580   4.029   1.919  14.755 -0.7133  0.3976  0.1829
 9389TIP3   OH249581   2.547   2.843   4.866  0.1229 -0.1732 -0.8873
 9389TIP3    H149582   2.582   2.868   4.780  0.3610 -1.4915 -1.1895
 9389TIP3    H249583   2.575   2.752   4.877 -1.3713 -0.5539 -0.1630
 9390TIP3   OH249584   6.546   1.257  11.695  0.9675 -0.8426  0.3116
 9390TIP3    H149585   6.452   1.241  11.700  0.6817  0.3184 -1.0076
 9390TIP3    H249586   6.586   1.171  11.711 -0.2731 -1.1907  1.6646
 9391TIP3   OH249587   4.698   1.236  13.191  0.1497 -0.2376 -0.1276
 9391TIP3    H149588   4.689   1.331  13.187 -2.7342 -0.4610 -0.4028
 9391TIP3    H249589   4.636   1.209  13.259 -0.0803 -2.0202 -1.0223
 9392TIP3   OH249590   1.586   4.717   3.198  0.0678  0.7745  0.1841
 9392TIP3    H149591   1.657   4.732   3.260 -0.8447  2.3460  0.8826
 9392TIP3    H249592   1.627   4.722   3.112  1.1749 -0.4697  0.6160
 9393TIP3   OH249593   4.106   4.012  12.018 -0.2569 -0.5642  0.1479
 9393TIP3    H149594   4.049   4.032  11.944  0.1272 -0.6385 -0.1705
 9393TIP3    H249595   4.067   4.059  12.092 -0.1954  0.1615 -0.2746
 9394TIP3   OH249596   2.835   4.749   5.496  0.4167  0.2176  0.3990
 9394TIP3    H149597   2.765   4.808   5.522 -0.1497  0.3085 -1.2580
 9394TIP3    H249598   2.870   4.788   5.416  1.2056 -0.7519  0.2695
 9395TIP3   OH249599   3.235   0.204  14.260 -0.3690  0.1275 -0.2856
 9395TIP3    H149600   3.262   0.273  14.199  0.4796 -0.9134 -1.0885
 9395TIP3    H249601   3.181   0.145  14.207  1.2406 -1.3429 -0.2919
 9396TIP3   OH249602   3.770   2.646  13.917 -0.0263  0.0667 -0.0107
 9396TIP3    H149603   3.780   2.605  14.003  2.2824  0.6415  0.0281
 9396TIP3    H249604   3.726   2.579  13.864  0.9648 -1.3230  0.8776
 9397TIP3   OH249605   4.271   2.504   0.481  0.1544  0.2471 -0.3296
 9397TIP3    H149606   4.329   2.516   0.556 -1.5090 -0.9951  1.2138
 9397TIP3    H249607   4.219   2.584   0.478  1.7019  1.2428 -1.5438
 9398TIP3   OH249608   2.209   2.724   0.969 -0.3417 -0.1911 -0.4207
 9398TIP3    H149609   2.301   2.731   0.943 -0.4948  0.5696 -0.7635
 9398TIP3    H249610   2.167   2.801   0.931 -0.6054  0.8649  1.8994
 9399TIP3   OH249611   5.253   1.641   1.145 -0.3543 -0.1564 -0.3414
 9399TIP3    H149612   5.252   1.546   1.136  0.6679 -0.1309 -0.6933
 9399TIP3    H249613   5.332   1.669   1.100  0.3839  0.6854  1.4408
 9400TIP3   OH249614   3.666   4.540  13.719  0.0280  0.2192 -0.4858
 9400TIP3    H149615   3.607   4.469  13.743  1.2116 -0.4142  0.6196
 9400TIP3    H249616   3.625   4.618  13.757 -0.1383 -0.2028  0.2188
 9401TIP3   OH249617   4.541   3.496  13.627 -0.6632  0.9633  0.0946
 9401TIP3    H149618   4.625   3.515  13.670 -0.7773  0.3453  0.5828
 9401TIP3    H249619   4.566   3.457  13.543 -0.4650  0.3559  0.4333
 9402TIP3   OH249620   2.937   3.425  15.720 -0.2018  0.0879  0.0021
 9402TIP3    H149621   2.848   3.427  15.755 -0.4387 -0.2121 -0.5702
 9402TIP3    H249622   2.994   3.424  15.797 -0.6914  0.3451  0.3703
 9403TIP3   OH249623   2.454   1.077   3.926 -0.0012  0.5260 -0.1036
 9403TIP3    H149624   2.535   1.092   3.976  0.8071  1.7230 -1.7220
 9403TIP3    H249625   2.463   1.133   3.849 -2.5798  1.0006 -0.1002
 9404TIP3   OH249626   3.633   2.956  15.261 -0.6870 -0.3129 -0.0462
 9404TIP3    H149627   3.567   2.969  15.330  0.2226  0.2430  0.7357
 9404TIP3    H249628   3.698   3.024  15.277 -0.7476  0.1844 -1.8211
 9405TIP3   OH249629   5.199   0.643   5.280  0.5950  0.4489 -0.3165
 9405TIP3    H149630   5.244   0.723   5.254 -0.8977  1.8747  1.3159
 9405TIP3    H249631   5.120   0.641   5.226 -0.2715  1.0779  0.8756
 9406TIP3   OH249632   3.848   1.316   4.375 -0.3131  0.1801 -0.0474
 9406TIP3    H149633   3.775   1.254   4.369  0.9323 -1.1859 -1.3464
 9406TIP3    H249634   3.863   1.325   4.469 -0.2623 -1.7802  0.1415
 9407TIP3   OH249635   6.747   4.044  13.074  0.4002 -0.0886  0.0821
 9407TIP3    H149636   6.692   4.114  13.110  0.7886  0.1076  0.2921
 9407TIP3    H249637   6.818   4.034  13.137  0.5223 -0.4540 -0.1115
 9408TIP3   OH249638   5.782   0.800  15.540  1.0850  0.2531 -0.3737
 9408TIP3    H149639   5.747   0.871  15.594 -0.3863 -0.0560 -0.8980
 9408TIP3    H249640   5.872   0.827  15.520  0.1159  2.6677 -1.7421
 9409TIP3   OH249641   3.069   5.307  16.285 -0.3339  0.9045  0.0593
 9409TIP3    H149642   3.066   5.293  16.379  0.1542 -0.0120 -0.0572
 9409TIP3    H249643   3.046   5.223  16.247 -0.4519  1.2449 -0.6454
 9410TIP3   OH249644   6.178   3.043  12.112  0.1749  0.5787  0.4853
 9410TIP3    H149645   6.145   3.023  12.024 -0.8134  1.3895  0.6541
 9410TIP3    H249646   6.242   3.112  12.098  1.2426 -0.4562  0.2323
 9411TIP3   OH249647   4.637   3.833   4.234  0.7632 -0.1616  0.7145
 9411TIP3    H149648   4.602   3.855   4.321 -1.9228  2.5818 -0.9683
 9411TIP3    H249649   4.561   3.801   4.185  2.1691 -1.2714 -0.7903
 9412TIP3   OH249650   6.455   6.575  15.654  0.0950  0.0017  0.2459
 9412TIP3    H149651   6.363   6.575  15.678  0.3535 -0.1657  1.2860
 9412TIP3    H249652   6.458   6.533  15.569 -0.7409 -0.4065  0.4125
 9413TIP3   OH249653   0.838   5.471  16.399  0.5687 -0.0231  0.0243
 9413TIP3    H149654   0.864   5.548  16.349  0.6621 -1.1953 -1.8141
 9413TIP3    H249655   0.907   5.407  16.383  0.6628 -0.3919  1.7884
 9414TIP3   OH249656   3.907   1.098  16.168  0.2160 -0.0650 -0.5119
 9414TIP3    H149657   3.933   1.089  16.259  0.7368 -1.1242 -0.7525
 9414TIP3    H249658   3.824   1.147  16.171  0.0855 -0.3364  0.5393
 9415TIP3   OH249659   5.533   5.237  16.639  0.2468 -0.0960  0.6569
 9415TIP3    H149660   5.519   5.161  16.696  0.1959  0.5187  1.4677
 9415TIP3    H249661   5.476   5.221  16.564 -0.5141 -0.3847  1.2818
 9416TIP3   OH249662   3.645   0.160  14.076  0.0321  0.3819 -0.0282
 9416TIP3    H149663   3.627   0.206  14.158  2.2350 -0.0742  0.7394
 9416TIP3    H249664   3.703   0.219  14.028  1.1121 -0.6205  0.0192
 9417TIP3   OH249665   6.473   6.604   4.098  0.4561  0.2016 -0.7567
 9417TIP3    H149666   6.440   6.514   4.102 -0.8726  0.6935 -0.6325
 9417TIP3    H249667   6.474   6.633   4.190  0.4201  0.4850 -0.8453
 9418TIP3   OH249668   1.159   0.993   4.490  0.3842  0.1189  0.1513
 9418TIP3    H149669   1.159   1.078   4.533  1.3424 -0.2732  0.9493
 9418TIP3    H249670   1.220   1.003   4.417  1.6945 -0.3303  1.1721
 9419TIP3   OH249671   4.514   1.361   0.728 -0.0127  0.4769 -0.1935
 9419TIP3    H149672   4.579   1.333   0.793 -0.4577  0.0818  0.0905
 9419TIP3    H249673   4.554   1.436   0.684  0.4793  0.4681  0.2346
 9420TIP3   OH249674   2.138   1.681   2.944  0.0150 -0.2606 -0.3676
 9420TIP3    H149675   2.149   1.718   3.032  2.5540  1.9481 -1.5420
 9420TIP3    H249676   2.166   1.590   2.953 -0.6648 -0.3279  1.2950
 9421TIP3   OH249677   2.748   3.684   1.384 -0.1342 -0.5204  0.2731
 9421TIP3    H149678   2.791   3.599   1.378  0.3508 -0.3578  1.2536
 9421TIP3    H249679   2.809   3.746   1.344  1.0998 -0.1161  2.6542
 9422TIP3   OH249680   4.788   1.964   6.227 -0.1363 -0.2787 -0.0061
 9422TIP3    H149681   4.717   2.007   6.273  0.8649 -0.0717  1.3838
 9422TIP3    H249682   4.809   1.887   6.281  0.5552 -0.4381 -0.4901
 9423TIP3   OH249683   2.093   5.504   0.305 -0.0742  0.1993  0.3856
 9423TIP3    H149684   2.150   5.527   0.231  0.8163  1.0835  1.3186
 9423TIP3    H249685   2.125   5.418   0.334  0.1820  0.2707  0.3184
 9424TIP3   OH249686   0.672   6.275   4.990  0.5639  0.5757 -0.1683
 9424TIP3    H149687   0.722   6.331   4.930  0.1199 -0.7205 -1.7791
 9424TIP3    H249688   0.584   6.273   4.953 -0.1268  1.0237  1.4219
 9425TIP3   OH249689   5.771   2.509  13.513  0.0814  0.5602 -0.8017
 9425TIP3    H149690   5.685   2.542  13.540 -0.5925 -1.1697 -0.7820
 9425TIP3    H249691   5.829   2.528  13.587 -0.3114  1.5925 -0.7552
 9426TIP3   OH249692   1.285   1.068   2.218  1.0430  0.4581 -0.4327
 9426TIP3    H149693   1.321   1.156   2.233  1.7639  0.0604  0.1380
 9426TIP3    H249694   1.355   1.008   2.242 -0.2410 -0.3393  1.4226
 9427TIP3   OH249695   2.068   2.509   5.694  0.6026 -0.1690 -0.0810
 9427TIP3    H149696   2.030   2.551   5.616  1.6320 -0.8993 -0.9919
 9427TIP3    H249697   2.124   2.576   5.733  0.2406  0.1341 -0.0729
 9428TIP3   OH249698   4.497   6.463  14.241 -0.1102  0.4966 -0.0994
 9428TIP3    H149699   4.526   6.459  14.332 -3.1995 -0.5052  0.9188
 9428TIP3    H249700   4.451   6.547  14.234  1.0518  1.0771 -1.0714
 9429TIP3   OH249701   4.112   2.483  11.586  0.6607 -0.1438  0.2457
 9429TIP3    H149702   4.205   2.501  11.600  0.6615 -1.0284  1.4613
 9429TIP3    H249703   4.105   2.466  11.492  1.7572 -0.2371  0.1732
 9430TIP3   OH249704   1.094   1.486   5.749 -0.1962 -0.5198 -0.3456
 9430TIP3    H149705   1.151   1.421   5.709  1.2781 -0.9092  2.2388
 9430TIP3    H249706   1.118   1.569   5.708  0.8656 -0.9801 -0.6566
 9431TIP3   OH249707   3.197   2.672   2.068 -0.3913 -0.3814 -0.6027
 9431TIP3    H149708   3.257   2.696   1.998  0.5183  0.7804  0.5468
 9431TIP3    H249709   3.146   2.752   2.084 -1.4695 -1.0179 -0.8003
 9432TIP3   OH249710   4.969   0.838   1.411  0.5798  0.5804  0.0944
 9432TIP3    H149711   5.053   0.842   1.364 -0.9270 -2.8314 -3.2282
 9432TIP3    H249712   4.967   0.750   1.449 -1.4078  0.6675  0.2605
 9433TIP3   OH249713   3.115   5.481  15.174 -0.1154 -0.0513  0.1169
 9433TIP3    H149714   3.199   5.456  15.136 -0.9545  0.6370 -2.3118
 9433TIP3    H249715   3.136   5.556  15.230  0.9762 -0.2699  0.0122
 9434TIP3   OH249716   5.860   1.853   0.049  0.1621  0.4697  0.4161
 9434TIP3    H149717   5.778   1.900   0.058  0.9427  1.3258  3.7207
 9434TIP3    H249718   5.868   1.802   0.129  1.1438 -2.4450 -1.4543
 9435TIP3   OH249719   3.343   6.584   2.399  0.2775  0.5204 -0.1786
 9435TIP3    H149720   3.267   6.640   2.412  1.2565  1.8839 -0.2258
 9435TIP3    H249721   3.418   6.640   2.417  1.2901 -0.7046 -0.4870
 9436TIP3   OH249722   5.097   2.552  11.258 -0.7279 -0.1092  0.2320
 9436TIP3    H149723   5.072   2.485  11.194 -2.0694  0.1740  0.4489
 9436TIP3    H249724   5.152   2.613  11.208 -0.1455 -0.9422 -0.1575
 9437TIP3   OH249725   2.721   0.917   3.348  0.3300  0.0963 -0.9676
 9437TIP3    H149726   2.748   0.861   3.421  0.5337  1.6656  0.1640
 9437TIP3    H249727   2.728   0.859   3.271  1.0809 -1.2758  0.0970
 9438TIP3   OH249728   1.708   3.937   0.698 -0.3046  0.0913  0.2371
 9438TIP3    H149729   1.661   3.939   0.615 -1.3258  1.8306  0.8180
 9438TIP3    H249730   1.665   4.004   0.751 -0.2242 -1.5854  2.4792
 9439TIP3   OH249731   6.652   1.670  13.427  0.0030  0.2074  0.0356
 9439TIP3    H149732   6.683   1.720  13.503 -0.2463  0.0694  0.2264
 9439TIP3    H249733   6.652   1.734  13.356  1.8546 -0.0687 -0.2446
 9440TIP3   OH249734   0.688   0.708  16.913 -0.7259 -0.3229  0.1939
 9440TIP3    H149735   0.597   0.740  16.914 -0.2627  1.2250 -2.0737
 9440TIP3    H249736   0.690   0.641  16.980 -3.6011 -0.4538  0.2464
 9441TIP3   OH249737   5.098   1.264   2.757 -0.3012 -0.7137 -0.5277
 9441TIP3    H149738   5.035   1.279   2.687 -1.1390 -0.6184  0.2383
 9441TIP3    H249739   5.091   1.342   2.813 -1.5197 -1.9367  1.0775
 9442TIP3   OH249740   6.033   2.119   0.615 -0.5034  0.0092 -0.1766
 9442TIP3    H149741   6.040   2.174   0.694 -1.5254  0.8963 -0.6904
 9442TIP3    H249742   6.095   2.158   0.554  0.3422 -0.7223  0.1948
 9443TIP3   OH249743   5.261   4.963  15.967  0.0975  0.2411 -0.5738
 9443TIP3    H149744   5.338   4.921  15.928  0.8079 -0.0894  1.1067
 9443TIP3    H249745   5.290   5.051  15.990  0.4133 -0.2984  1.2440
 9444TIP3   OH249746   0.924   0.352   3.719 -0.1067 -0.0620 -0.5105
 9444TIP3    H149747   0.914   0.292   3.792 -1.3023  0.1995 -0.4429
 9444TIP3    H249748   0.869   0.427   3.742 -0.4923  0.0207 -1.6641
 9445TIP3   OH249749   2.291   6.579  12.348 -0.2716  0.7006  0.2012
 9445TIP3    H149750   2.209   6.530  12.352  0.8458 -1.2123  0.4300
 9445TIP3    H249751   2.335   6.561  12.431  1.8607 -1.0642 -1.2184
 9446TIP3   OH249752   3.493   6.235   4.260  0.6531 -0.7639 -0.0131
 9446TIP3    H149753   3.468   6.176   4.190  0.8700 -0.6415 -0.1916
 9446TIP3    H249754   3.431   6.308   4.253  1.5861 -0.0528 -0.9856
 9447TIP3   OH249755   5.953   5.286   4.638 -0.2443  0.3124  0.6007
 9447TIP3    H149756   5.863   5.290   4.668 -0.5030  0.5696 -0.1850
 9447TIP3    H249757   6.002   5.248   4.711 -0.5748  2.3717  1.9433
 9448TIP3   OH249758   1.567   5.440   2.986 -0.5113  0.1553  0.2965
 9448TIP3    H149759   1.498   5.481   3.039 -0.8978 -2.0548  1.5564
 9448TIP3    H249760   1.649   5.471   3.024 -0.7902  1.7088 -0.3412
 9449TIP3   OH249761   2.354   6.563   3.417  0.1419  0.9438 -0.0457
 9449TIP3    H149762   2.429   6.623   3.417  0.4430  0.5707  0.2473
 9449TIP3    H249763   2.335   6.549   3.510 -1.2236  2.1869 -0.1133
 9450TIP3   OH249764   2.467   5.301   1.587  0.5297 -0.8451  0.0929
 9450TIP3    H149765   2.491   5.393   1.597  0.0825 -0.7741  0.4833
 9450TIP3    H249766   2.525   5.270   1.517 -0.1953  0.0609 -0.9320
 9451TIP3   OH249767   2.941   6.384  15.497 -0.7866  0.4116  0.0086
 9451TIP3    H149768   2.922   6.432  15.416 -0.4085  2.0679  0.8889
 9451TIP3    H249769   2.936   6.292  15.471  1.2395  0.9025 -2.3528
 9452TIP3   OH249770   3.041   0.020  12.945 -0.0484  0.0201  0.1486
 9452TIP3    H149771   3.014   0.112  12.946  1.7465  0.5474  1.8045
 9452TIP3    H249772   3.087   0.007  13.028 -0.7194 -2.5190  0.1535
 9453TIP3   OH249773   0.863   0.200  15.496 -0.4103  0.2519  0.0769
 9453TIP3    H149774   0.905   0.154  15.570 -0.8018  1.1105  0.8392
 9453TIP3    H249775   0.787   0.146  15.475 -0.2480 -0.0479  0.2484
 9454TIP3   OH249776   3.048   0.177   0.986 -0.3328  0.3080  0.5221
 9454TIP3    H149777   3.086   0.095   0.954 -2.1892 -0.4225  0.1398
 9454TIP3    H249778   3.124   0.230   1.012  0.9181 -1.2626  0.1532
 9455TIP3   OH249779   5.439   6.274   3.011  0.3695  0.2690  0.0315
 9455TIP3    H149780   5.440   6.268   2.915 -2.0288  0.0691 -0.0015
 9455TIP3    H249781   5.426   6.184   3.040 -0.2064  0.5028  0.5051
 9456TIP3   OH249782   5.906   4.386  13.945  0.1295 -0.1713 -0.2093
 9456TIP3    H149783   5.865   4.300  13.932 -1.1269  0.1343  1.5020
 9456TIP3    H249784   5.999   4.367  13.956 -0.2944 -1.4354  1.3011
 9457TIP3   OH249785   5.959   5.583   1.077 -0.3647  0.1110  0.4464
 9457TIP3    H149786   5.865   5.592   1.066 -0.3599  1.5745  1.5385
 9457TIP3    H249787   5.996   5.609   0.992 -0.8532  1.2274  0.5719
 9458TIP3   OH249788   3.756   2.569   2.281 -0.0870 -0.3455 -0.0362
 9458TIP3    H149789   3.822   2.620   2.327 -2.1376  1.0025  1.5351
 9458TIP3    H249790   3.793   2.481   2.273  1.4383  0.1204  1.7673
 9459TIP3   OH249791   1.637   5.324  14.496  0.0862  0.6126  0.2823
 9459TIP3    H149792   1.706   5.327  14.429  0.6763  1.6515  0.9248
 9459TIP3    H249793   1.559   5.296  14.448  0.2251  2.5027 -1.1041
 9460TIP3   OH249794   6.433   1.026   0.253 -0.3457  0.3400  0.3207
 9460TIP3    H149795   6.457   1.079   0.177  1.0039  0.5879  0.9047
 9460TIP3    H249796   6.440   1.086   0.327 -1.3680  0.0201  0.6953
 9461TIP3   OH249797   1.520   6.479  13.683 -0.5262 -0.2905 -0.2508
 9461TIP3    H149798   1.524   6.438  13.769 -0.1916 -0.9272 -0.5660
 9461TIP3    H249799   1.426   6.483  13.663 -0.6629  0.7483  0.5557
 9462TIP3   OH249800   5.048   0.970   6.233  0.5402 -0.2636 -0.0982
 9462TIP3    H149801   5.119   1.032   6.219  1.0667 -0.7413  0.4037
 9462TIP3    H249802   4.968   1.018   6.211  1.1761 -0.4035 -2.8130
 9463TIP3   OH249803   3.247   3.724  13.487  0.1483 -0.0297  0.3275
 9463TIP3    H149804   3.339   3.702  13.496  0.4740  0.5726 -1.2229
 9463TIP3    H249805   3.201   3.641  13.499  0.7767 -0.0859  2.4995
 9464TIP3   OH249806   4.967   3.303  12.853  0.1473 -0.6619  0.1180
 9464TIP3    H149807   4.979   3.344  12.938  3.1897 -2.7242  0.7461
 9464TIP3    H249808   5.033   3.344  12.797 -1.3533  0.1538 -1.0958
 9465TIP3   OH249809   3.993   2.584  14.371  0.4052 -0.2635 -0.0375
 9465TIP3    H149810   3.959   2.671  14.395 -0.1911 -0.2161 -1.0025
 9465TIP3    H249811   4.019   2.545  14.454 -1.8993 -0.2273  0.7342
 9466TIP3   OH249812   4.798   2.482   5.880  0.3076  0.3243 -0.2156
 9466TIP3    H149813   4.770   2.391   5.870  0.4686  0.1201  1.0154
 9466TIP3    H249814   4.730   2.533   5.837 -2.1168 -0.1438  2.8401
 9467TIP3   OH249815   3.531   6.407  12.422  0.5815  0.1411  0.1132
 9467TIP3    H149816   3.501   6.493  12.393 -1.5113 -0.1756  1.1771
 9467TIP3    H249817   3.498   6.347  12.355 -0.0127 -0.0655  0.5816
 9468TIP3   OH249818   1.415   4.743  16.400  0.2918 -0.0262 -0.3938
 9468TIP3    H149819   1.324   4.762  16.425 -0.5307  1.0803 -4.0014
 9468TIP3    H249820   1.417   4.648  16.386 -0.3556 -0.0324 -0.4570
 9469TIP3   OH249821   3.150   1.515  11.730  0.1945 -0.5425 -0.0892
 9469TIP3    H149822   3.153   1.557  11.817  0.4426  0.0147 -0.3648
 9469TIP3    H249823   3.088   1.569  11.680 -0.7014 -1.4359  0.0329
 9470TIP3   OH249824   3.334   5.934  16.123  0.6918  0.1925  0.1981
 9470TIP3    H149825   3.325   5.903  16.214  2.4073 -3.3475 -0.7127
 9470TIP3    H249826   3.426   5.957  16.116  0.2399  1.8658 -0.2614
 9471TIP3   OH249827   6.716   5.149   0.197  0.1103  0.4304  0.3000
 9471TIP3    H149828   6.768   5.226   0.174 -1.0873  0.7268 -1.4861
 9471TIP3    H249829   6.766   5.075   0.161 -0.6420  0.7082 -1.3518
 9472TIP3   OH249830   1.884   6.742  15.887 -0.1624  0.0913  0.1451
 9472TIP3    H149831   1.844   6.824  15.858  0.6298  0.3736 -0.1735
 9472TIP3    H249832   1.847   6.727  15.974 -0.0824  0.9612  0.3401
 9473TIP3   OH249833   0.139   3.570  11.507 -0.2212 -0.0505  0.3879
 9473TIP3    H149834   0.128   3.491  11.561  0.0932 -0.1357  0.3236
 9473TIP3    H249835   0.130   3.642  11.569  1.3620 -0.1679  0.7659
 9474TIP3   OH249836   3.233   4.463   4.042 -0.1111 -0.1724 -0.3997
 9474TIP3    H149837   3.281   4.497   4.117 -1.3777  3.3083 -1.1080
 9474TIP3    H249838   3.159   4.416   4.079 -0.1031  0.5580  0.5382
 9475TIP3   OH249839   1.953   0.324  13.075 -0.2288 -0.0685  0.1571
 9475TIP3    H149840   1.859   0.308  13.075 -0.3114 -0.6229 -5.1362
 9475TIP3    H249841   1.993   0.238  13.083 -0.2437 -0.1596 -0.7050
 9476TIP3   OH249842   5.831   3.341  15.150 -0.1963 -0.6660 -0.0575
 9476TIP3    H149843   5.774   3.356  15.075  0.7316 -2.2612 -1.1131
 9476TIP3    H249844   5.902   3.404  15.139 -0.3699 -0.4970 -0.2076
 9477TIP3   OH249845   6.758   1.162   4.407  0.4277  0.2992  0.8487
 9477TIP3    H149846   6.809   1.082   4.396 -0.8951 -0.5493  0.8379
 9477TIP3    H249847   6.765   1.207   4.323  0.9241  0.0562  0.7596
 9478TIP3   OH249848   1.662   0.597   0.874 -0.0680  0.5526 -0.7461
 9478TIP3    H149849   1.630   0.673   0.922 -1.5022 -1.7433  2.1278
 9478TIP3    H249850   1.754   0.589   0.898 -0.2082  0.7392 -0.1565
 9479TIP3   OH249851   6.599   4.127  12.031  0.5172  0.2822 -0.6861
 9479TIP3    H149852   6.513   4.150  11.997  1.0564  0.0729 -2.2485
 9479TIP3    H249853   6.585   4.046  12.080 -0.7210  1.9046  1.7500
 9480TIP3   OH249854   1.074   0.762   5.748 -0.0609 -0.6297  0.6077
 9480TIP3    H149855   1.132   0.687   5.733 -1.0071 -1.6341  1.8876
 9480TIP3    H249856   1.053   0.758   5.841 -1.7664  0.0460  0.2576
 9481TIP3   OH249857   4.210   1.661   4.324  0.2290 -0.1173 -0.1894
 9481TIP3    H149858   4.244   1.574   4.305 -0.7386 -0.3663 -0.8133
 9481TIP3    H249859   4.233   1.713   4.247 -0.1841 -0.1110 -0.3087
 9482TIP3   OH249860   1.498   5.248  14.047 -0.0221  0.0823  0.4184
 9482TIP3    H149861   1.403   5.259  14.048  0.0883  1.0373  0.6524
 9482TIP3    H249862   1.532   5.329  14.085  0.9261  0.2228 -0.7104
 9483TIP3   OH249863   2.902   5.857  14.015 -0.2845 -0.9942 -0.2993
 9483TIP3    H149864   2.952   5.777  14.030  0.2212 -0.4286  1.0711
 9483TIP3    H249865   2.830   5.830  13.957 -1.3888 -2.9187  1.9162
 9484TIP3   OH249866   6.372   3.509   4.021 -0.3494 -0.3986  0.1298
 9484TIP3    H149867   6.411   3.588   3.985  1.4776 -0.2393  2.3235
 9484TIP3    H249868   6.379   3.521   4.116  0.4435 -3.3993  0.4916
 9485TIP3   OH249869   0.428   0.900   1.600  0.3872 -0.2564 -0.0919
 9485TIP3    H149870   0.373   0.914   1.677 -0.5995 -1.8155 -0.4931
 9485TIP3    H249871   0.465   0.986   1.581 -1.1865  0.6282  0.7429
 9486TIP3   OH249872   2.454   3.679  12.961 -0.4183  0.1614 -0.6895
 9486TIP3    H149873   2.453   3.643  13.050 -0.6651  0.4801 -0.5621
 9486TIP3    H249874   2.364   3.664  12.930 -0.4239  0.3544 -0.7628
 9487TIP3   OH249875   4.005   4.433   5.798  0.1764 -0.7436  0.7386
 9487TIP3    H149876   4.056   4.513   5.791 -0.0412 -0.5076  1.7617
 9487TIP3    H249877   4.055   4.377   5.858 -0.8776 -0.4008  1.9728
 9488TIP3   OH249878   2.722   0.303   1.147  0.0377  0.2827 -0.0600
 9488TIP3    H149879   2.783   0.365   1.107  0.2539  0.3854  0.4274
 9488TIP3    H249880   2.671   0.355   1.209 -0.9096  0.3060 -0.8410
 9489TIP3   OH249881   2.425   4.054   0.589 -0.2242  0.2670  0.1248
 9489TIP3    H149882   2.402   3.962   0.578  0.5075  0.1649 -0.5984
 9489TIP3    H249883   2.508   4.052   0.637 -0.5684  0.5711  0.7385
 9490TIP3   OH249884   5.117   1.868   0.392 -0.2416  0.1625 -0.8360
 9490TIP3    H149885   5.148   1.825   0.312  0.3232  0.1803 -0.6274
 9490TIP3    H249886   5.022   1.864   0.386 -0.2069  0.6870 -1.7873
 9491TIP3   OH249887   5.225   5.899  12.033  0.4613  0.3576 -0.1406
 9491TIP3    H149888   5.144   5.887  12.084 -2.0020  0.9566 -3.7062
 9491TIP3    H249889   5.229   5.993  12.017  1.5507  0.2539 -0.4703
 9492TIP3   OH249890   5.367   1.317  13.733  0.2148 -0.4722  0.0770
 9492TIP3    H149891   5.362   1.238  13.679 -3.4846 -1.5072  1.7717
 9492TIP3    H249892   5.426   1.294  13.804  0.8333 -0.9664 -0.5964
 9493TIP3   OH249893   0.406   1.963   3.129 -0.1261 -0.2564 -0.1465
 9493TIP3    H149894   0.367   2.012   3.056 -0.7556  0.8331  0.8999
 9493TIP3    H249895   0.464   1.900   3.087 -1.5278 -0.5686 -1.6479
 9494TIP3   OH249896   3.421   0.125  11.555 -0.3402  0.1718  0.2083
 9494TIP3    H149897   3.510   0.101  11.579 -0.3694 -0.3284 -0.1714
 9494TIP3    H249898   3.367   0.053  11.586 -0.5444  0.2000 -0.0746
 9495TIP3   OH249899   3.055   4.931  13.552 -0.0355  0.5755  0.2540
 9495TIP3    H149900   2.978   4.988  13.559  0.8260  2.2350 -2.7171
 9495TIP3    H249901   3.023   4.844  13.577 -2.2259  1.7049  1.5559
 9496TIP3   OH249902   6.459   5.369  12.507 -0.0125  0.6110 -0.9379
 9496TIP3    H149903   6.383   5.321  12.476 -0.4639  1.3897 -1.0518
 9496TIP3    H249904   6.423   5.447  12.550  0.7274  1.1880 -1.3494
 9497TIP3   OH249905   2.404   2.151  10.653  0.6289  0.2952  0.1057
 9497TIP3    H149906   2.395   2.199  10.571  0.4145 -1.6305 -1.0081
 9497TIP3    H249907   2.491   2.112  10.649  1.1697  1.2949  1.4179
 9498TIP3   OH249908   5.899   1.450   1.055  0.0676  0.5750 -0.0253
 9498TIP3    H149909   5.969   1.447   0.989 -1.7430 -0.3237 -1.9565
 9498TIP3    H249910   5.855   1.533   1.038 -3.8840 -2.0395 -3.7717
 9499TIP3   OH249911   3.170   3.883  15.562  0.6851 -0.0921  0.1660
 9499TIP3    H149912   3.134   3.939  15.631  1.3739  1.7595 -0.9458
 9499TIP3    H249913   3.098   3.825  15.537 -1.0659  2.5269 -0.9573
 9500TIP3   OH249914   3.075   1.817   6.108 -0.2363  0.0525 -0.2874
 9500TIP3    H149915   3.160   1.780   6.132 -0.8269 -1.2934 -0.2352
 9500TIP3    H249916   3.025   1.817   6.189 -1.3404 -2.0900 -0.9281
 9501TIP3   OH249917   5.986   4.461   2.171  0.1022  0.2566 -0.0189
 9501TIP3    H149918   6.066   4.408   2.171 -0.3517 -0.4432 -0.9458
 9501TIP3    H249919   5.920   4.404   2.209 -1.0544 -0.9278 -3.5561
 9502TIP3   OH249920   6.256   3.723   2.227  0.1881  0.0952  0.1518
 9502TIP3    H149921   6.163   3.708   2.206  0.5937 -1.0638 -0.8622
 9502TIP3    H249922   6.254   3.768   2.312 -1.2180 -2.6110  1.6339
 9503TIP3   OH249923   5.213   3.919   5.145 -0.3847 -0.2576 -0.8563
 9503TIP3    H149924   5.137   3.897   5.092 -0.1787 -1.3086 -0.7411
 9503TIP3    H249925   5.287   3.882   5.097 -0.0811 -0.2798 -0.3775
 9504TIP3   OH249926   1.325   4.384  14.434  0.3300 -0.7419 -0.1426
 9504TIP3    H149927   1.281   4.468  14.423  1.4621 -0.3684 -2.1096
 9504TIP3    H249928   1.414   4.407  14.463  0.0600 -1.3517  1.1709
 9505TIP3   OH249929   1.457   6.742  10.819 -0.4874  0.1485 -0.0277
 9505TIP3    H149930   1.388   6.679  10.844 -0.3123 -0.3193 -0.6978
 9505TIP3    H249931   1.451   6.747  10.724  0.8977 -0.4578 -0.1575
 9506TIP3   OH249932   2.841   0.770   0.099 -0.3255  0.0590  0.4443
 9506TIP3    H149933   2.908   0.710   0.132  0.5551  2.0322  2.3477
 9506TIP3    H249934   2.890   0.840   0.056 -1.2544  0.6590  0.3425
 9507TIP3   OH249935   1.895   0.072   1.502 -0.5350 -0.3385 -0.2932
 9507TIP3    H149936   1.871  -0.020   1.506 -0.0571 -0.4289  0.8212
 9507TIP3    H249937   1.922   0.087   1.411 -1.7737 -0.9938 -0.7687
 9508TIP3   OH249938   4.729   5.553  12.738 -0.2847  0.5430  0.7134
 9508TIP3    H149939   4.760   5.469  12.705  0.2699  0.7325  0.7556
 9508TIP3    H249940   4.653   5.531  12.792  1.5520 -0.2167  3.0676
 9509TIP3   OH249941   6.518   2.986  11.934  0.0950  0.2618  0.4890
 9509TIP3    H149942   6.471   3.068  11.949  1.1012  1.0838 -0.8355
 9509TIP3    H249943   6.465   2.940  11.869 -0.0008  0.2463  0.5777
 9510TIP3   OH249944   0.442   1.319  16.340 -0.6440  0.6394  0.8497
 9510TIP3    H149945   0.447   1.303  16.246 -3.8617  0.8449  0.5869
 9510TIP3    H249946   0.471   1.410  16.350 -2.4830  1.3681 -0.2507
 9511TIP3   OH249947   5.488   1.048  16.311  0.3949  0.1623  0.0649
 9511TIP3    H149948   5.561   1.007  16.264 -1.3376 -2.9640 -0.0353
 9511TIP3    H249949   5.479   1.134  16.271  1.3475 -1.0214 -2.8485
 9512TIP3   OH249950   6.527   4.108   0.518  0.5095  0.2971 -0.0238
 9512TIP3    H149951   6.599   4.147   0.567  0.7589  0.7163 -0.7094
 9512TIP3    H249952   6.499   4.176   0.457 -1.9803  0.9399  1.7569
 9513TIP3   OH249953   5.211   1.864  12.709 -0.0770 -0.0852 -0.3277
 9513TIP3    H149954   5.177   1.775  12.716  1.4681 -0.6687 -0.0947
 9513TIP3    H249955   5.146   1.910  12.656  0.2778 -1.9899 -2.5275
 9514TIP3   OH249956   0.521   0.254   6.036 -0.3538 -0.5968 -0.4746
 9514TIP3    H149957   0.614   0.277   6.033 -0.4324 -0.1586  0.3029
 9514TIP3    H249958   0.481   0.325   6.086 -1.2171 -0.4382 -1.3824
 9515TIP3   OH249959   1.309   6.302   4.240 -0.0609  0.1099 -0.1403
 9515TIP3    H149960   1.337   6.248   4.166 -1.1655  1.1886 -1.3725
 9515TIP3    H249961   1.390   6.339   4.274  0.5038 -0.7304 -0.5539
 9516TIP3   OH249962   6.718   0.962  15.005  0.0308  0.7493  0.2768
 9516TIP3    H149963   6.764   1.046  15.007 -0.4462  1.0349 -0.6615
 9516TIP3    H249964   6.655   0.970  14.934 -0.9750  0.0871  1.0720
 9517TIP3   OH249965   2.050   5.514  12.111 -0.3110  0.0927  0.7700
 9517TIP3    H149966   2.052   5.610  12.119 -1.7342  0.2684 -0.9227
 9517TIP3    H249967   2.035   5.484  12.201  0.1680  1.4385  1.3272
 9518TIP3   OH249968   4.166   5.098   1.681  0.1146  0.1662 -0.7783
 9518TIP3    H149969   4.176   5.120   1.774  0.7053  0.4347 -0.9011
 9518TIP3    H249970   4.072   5.108   1.664  0.2230  1.6148 -0.5754
 9519TIP3   OH249971   4.882   5.002  10.892  0.1500  0.4934 -0.1631
 9519TIP3    H149972   4.837   5.087  10.895 -0.6736  0.1655 -2.3815
 9519TIP3    H249973   4.953   5.015  10.830  0.2356 -0.3515 -0.2456
 9520TIP3   OH249974   0.886   5.756   1.706 -0.4049 -0.0757 -0.5374
 9520TIP3    H149975   0.957   5.693   1.716 -0.8120 -0.4130  0.2703
 9520TIP3    H249976   0.927   5.832   1.665  0.2244 -0.6200 -0.9294
 9521TIP3   OH249977   5.235   3.221   5.734  0.3630 -0.4001 -0.1490
 9521TIP3    H149978   5.272   3.300   5.693  1.5504 -0.7382  0.2391
 9521TIP3    H249979   5.253   3.233   5.827 -1.8205  0.0971  0.2209
 9522TIP3   OH249980   6.779   1.011  13.391 -0.0195  0.2529 -0.9442
 9522TIP3    H149981   6.686   1.023  13.412  0.2852 -0.9408  1.1982
 9522TIP3    H249982   6.780   0.934  13.333 -0.2002 -1.0609  0.7610
 9523TIP3   OH249983   3.583   0.101   4.146 -0.1634 -0.0593  0.4035
 9523TIP3    H149984   3.672   0.067   4.146  0.4986  1.5719  2.1475
 9523TIP3    H249985   3.547   0.076   4.231 -0.8743  0.4952  0.2787
 9524TIP3   OH249986   0.972   2.369   4.163  0.2716 -0.1468  0.3136
 9524TIP3    H149987   1.036   2.415   4.110  1.5749 -0.1403  1.8595
 9524TIP3    H249988   0.898   2.355   4.104  2.2386 -1.4518 -1.9161
 9525TIP3   OH249989   3.703   0.005  12.339 -0.1452  0.3764 -0.1241
 9525TIP3    H149990   3.660   0.076  12.387 -2.2981 -0.3579 -0.9267
 9525TIP3    H249991   3.669  -0.075  12.380  0.0512 -0.2181 -1.1277
 9526TIP3   OH249992   4.499   2.608  17.180 -0.5145 -0.5739 -0.0623
 9526TIP3    H149993   4.528   2.666  17.110 -1.9394  2.1866  1.5709
 9526TIP3    H249994   4.409   2.584  17.155  0.6211 -3.5961 -1.6133
 9527TIP3   OH249995   0.338   0.184   5.568  0.2286  0.0621 -0.1813
 9527TIP3    H149996   0.380   0.137   5.495  3.3444  1.4861  0.5990
 9527TIP3    H249997   0.365   0.136   5.646 -2.6293 -1.1070  0.1594
 9528TIP3   OH249998   5.960   4.589  14.778  0.1242  0.5965  0.0871
 9528TIP3    H149999   5.903   4.657  14.815 -0.2094  0.8041 -0.7905
 9528TIP3    H250000   6.010   4.635  14.710 -1.0906 -0.3327 -1.4533
 9529TIP3   OH250001   6.240   4.124   2.314 -0.5064 -0.1064  0.4228
 9529TIP3    H150002   6.271   4.036   2.335 -1.2398 -0.5434 -0.3111
 9529TIP3    H250003   6.223   4.122   2.220 -1.8410  0.3987  0.6379
 9530TIP3   OH250004   3.479   1.443  12.552 -0.3283  0.4627  0.3383
 9530TIP3    H150005   3.544   1.395  12.500 -2.6389 -1.0585 -1.2769
 9530TIP3    H250006   3.411   1.468  12.489 -1.3627  1.9401  1.9801
 9531TIP3   OH250007   0.287   3.507   6.303  0.3505  0.0215 -0.6509
 9531TIP3    H150008   0.345   3.433   6.279  0.4028  0.0765 -0.6944
 9531TIP3    H250009   0.269   3.550   6.219  1.0011  0.5559 -0.5153
 9532TIP3   OH250010   3.845   0.553   0.320  0.4444 -0.1723 -0.1583
 9532TIP3    H150011   3.824   0.531   0.411  3.2567 -0.1461  0.5304
 9532TIP3    H250012   3.902   0.481   0.291  0.4264  0.3665 -1.5579
 9533TIP3   OH250013   3.025   4.933   3.210  0.4010 -0.1820 -0.2093
 9533TIP3    H150014   3.017   4.966   3.300  2.3315 -0.3515  0.0478
 9533TIP3    H250015   2.965   4.859   3.206 -2.3499  1.9378 -0.1295
 9534TIP3   OH250016   4.554   4.666   4.279  0.0072 -0.0820 -0.0582
 9534TIP3    H150017   4.619   4.722   4.321  0.2115  1.1293 -1.9332
 9534TIP3    H250018   4.580   4.662   4.187 -1.4801 -1.1526 -0.4713
 9535TIP3   OH250019   6.532   4.137   3.638 -0.8492  0.4626  0.2185
 9535TIP3    H150020   6.535   4.081   3.561 -0.1329 -0.3233  0.8205
 9535TIP3    H250021   6.573   4.219   3.609 -3.7317  1.4754 -1.2785
 9536TIP3   OH250022   2.807   5.212   1.698  0.7442 -0.7915 -0.4343
 9536TIP3    H150023   2.762   5.263   1.766 -2.8034 -2.5793 -1.3578
 9536TIP3    H250024   2.837   5.133   1.743  1.5563 -0.3526 -0.1897
 9537TIP3   OH250025   1.283   1.264   5.731  0.0024 -0.1891 -0.4414
 9537TIP3    H150026   1.377   1.248   5.723 -0.0611 -1.0102  0.4474
 9537TIP3    H250027   1.261   1.239   5.821 -1.1544 -0.4315 -0.7798
 9538TIP3   OH250028   2.490   0.146   2.599  0.6036 -0.2632 -0.3013
 9538TIP3    H150029   2.535   0.062   2.587  2.1869  0.6345 -0.8053
 9538TIP3    H250030   2.545   0.209   2.553 -0.4377  1.0983  0.2942
 9539TIP3   OH250031   5.314   2.459  15.885 -0.0354  0.2758 -0.9839
 9539TIP3    H150032   5.255   2.408  15.830  0.5680 -0.9529 -0.5012
 9539TIP3    H250033   5.357   2.395  15.942 -1.3167  1.5998  1.5851
 9540TIP3   OH250034   6.577   5.295  16.890  0.1777  0.5654 -0.6715
 9540TIP3    H150035   6.497   5.308  16.839 -0.0523  0.3883 -0.3622
 9540TIP3    H250036   6.641   5.264  16.827 -0.7237 -1.8574 -0.4729
 9541TIP3   OH250037   0.882   5.478  12.755  0.1184 -0.3339 -0.3947
 9541TIP3    H150038   0.969   5.477  12.796 -0.1091  0.3888  0.1075
 9541TIP3    H250039   0.832   5.412  12.803  0.0019  0.1634  0.1673
 9542TIP3   OH250040   5.493   0.842  11.731  0.3370 -0.0585 -0.1108
 9542TIP3    H150041   5.475   0.936  11.724  1.0217  0.0934  0.2094
 9542TIP3    H250042   5.569   0.835  11.787 -1.0108 -0.9344  1.6554
 9543TIP3   OH250043   5.264   4.130   3.706 -0.2905 -0.1669 -0.5129
 9543TIP3    H150044   5.227   4.216   3.686 -1.5108 -1.2935 -3.3241
 9543TIP3    H250045   5.357   4.139   3.688 -0.4852  0.4562 -1.2328
 9544TIP3   OH250046   5.686   0.647  15.186  0.7015  0.2134 -0.3574
 9544TIP3    H150047   5.594   0.657  15.212  1.1661 -0.6400  1.7164
 9544TIP3    H250048   5.684   0.582  15.116 -0.1522 -0.8896  0.6610
 9545TIP3   OH250049   5.927   1.120   5.138  0.0074 -0.1810 -0.0213
 9545TIP3    H150050   5.914   1.060   5.064 -0.3855  0.5288 -0.5309
 9545TIP3    H250051   5.906   1.067   5.215  2.0540 -1.4306 -0.2760
 9546TIP3   OH250052   6.097   6.734  15.456 -0.2749  0.5248  0.2639
 9546TIP3    H150053   6.007   6.704  15.443  1.1139 -3.7578 -0.4051
 9546TIP3    H250054   6.102   6.756  15.549 -1.5187 -1.2026  0.7685
 9547TIP3   OH250055   5.113   6.396   5.546  0.2885  0.1517 -0.1683
 9547TIP3    H150056   5.203   6.403   5.578  0.3076 -0.4054 -0.0945
 9547TIP3    H250057   5.063   6.368   5.623  0.1880 -0.3291 -0.4099
 9548TIP3   OH250058   6.682   0.631   3.054 -0.0097  0.0269 -0.4892
 9548TIP3    H150059   6.647   0.589   3.133 -1.2575  1.8574 -0.0465
 9548TIP3    H250060   6.761   0.580   3.034  0.0869 -0.7562  1.6694
 9549TIP3   OH250061   5.185   3.314  14.239  0.3581  0.0727  0.4670
 9549TIP3    H150062   5.238   3.362  14.175  0.0161 -0.3486 -0.1437
 9549TIP3    H250063   5.117   3.375  14.266 -1.6823 -0.8744 -2.2905
 9550TIP3   OH250064   4.463   5.340   5.302 -0.2024  0.1214 -0.1179
 9550TIP3    H150065   4.446   5.359   5.394 -1.6186 -0.2951 -0.2628
 9550TIP3    H250066   4.431   5.417   5.255  0.7358  0.4319 -0.2363
 9551TIP3   OH250067   2.545   4.918  15.036 -0.0607 -0.3568  0.1552
 9551TIP3    H150068   2.640   4.918  15.026  0.0710 -0.5414  1.3172
 9551TIP3    H250069   2.526   4.995  15.089 -0.6963  0.4174 -1.1861
 9552TIP3   OH250070   4.164   6.762  11.604 -0.2960 -0.6059 -0.3470
 9552TIP3    H150071   4.188   6.673  11.627  0.8578  0.1248  1.4260
 9552TIP3    H250072   4.244   6.798  11.564 -0.6351 -0.2686 -0.7214
 9553TIP3   OH250073   2.253   0.170   0.064 -0.1885  0.3398 -0.2106
 9553TIP3    H150074   2.162   0.154   0.041 -0.2369 -0.0267  0.2189
 9553TIP3    H250075   2.297   0.086   0.047  0.1753  0.6790 -0.9466
 9554TIP3   OH250076   6.754   5.106  14.781  0.0346 -0.2830 -0.1690
 9554TIP3    H150077   6.673   5.149  14.806 -1.2987 -3.4964  1.3349
 9554TIP3    H250078   6.728   5.015  14.762  3.0050 -0.9656 -1.2859
 9555TIP3   OH250079   1.638   3.288  12.384 -0.3957 -0.0859 -0.1335
 9555TIP3    H150080   1.633   3.295  12.480  1.0878 -1.1994  0.0309
 9555TIP3    H250081   1.580   3.358  12.353 -1.3466 -0.0635  1.5713
 9556TIP3   OH250082   1.482   3.230   2.033 -0.1435  0.0550 -0.1383
 9556TIP3    H150083   1.394   3.262   2.014  0.6036  1.4162 -1.3668
 9556TIP3    H250084   1.501   3.261   2.121  0.0216  1.8250 -0.7839
 9557TIP3   OH250085   6.641   1.692   1.380 -0.3465  0.0659  0.2504
 9557TIP3    H150086   6.587   1.623   1.418 -0.1709  0.9098  2.1312
 9557TIP3    H250087   6.729   1.673   1.412 -0.0093  0.2438 -0.5646
 9558TIP3   OH250088   4.660   6.252  10.990 -0.1614 -0.4837  0.2390
 9558TIP3    H150089   4.688   6.318  11.053  0.2600 -0.6562  0.2362
 9558TIP3    H250090   4.742   6.210  10.961 -0.3580 -0.4846 -0.3282
 9559TIP3   OH250091   1.930   4.654   4.293 -0.2296 -0.1103  0.0928
 9559TIP3    H150092   1.934   4.731   4.351 -2.2243 -0.5959  0.9367
 9559TIP3    H250093   1.840   4.655   4.259  0.6742 -0.2843 -2.4160
 9560TIP3   OH250094   1.319   1.846   4.270 -0.0214 -0.2640 -0.1213
 9560TIP3    H150095   1.412   1.869   4.277 -0.1148 -0.4912  2.2648
 9560TIP3    H250096   1.275   1.928   4.250  0.7570 -0.2825 -1.9765
 9561TIP3   OH250097   0.877   3.350   1.254 -0.4171  0.8081 -0.0766
 9561TIP3    H150098   0.938   3.353   1.328 -0.3270 -0.3951 -0.0883
 9561TIP3    H250099   0.904   3.422   1.198  1.3539 -0.0438 -0.3500
 9562TIP3   OH250100   6.549   5.637   3.339  0.6977 -0.4484  0.5892
 9562TIP3    H150101   6.557   5.631   3.434  1.1967 -4.8450  0.3771
 9562TIP3    H250102   6.636   5.613   3.306  0.8241  1.9957 -1.0385
 9563TIP3   OH250103   6.155   2.158   4.141 -0.1160  0.0541  0.4151
 9563TIP3    H150104   6.250   2.164   4.145  0.0061 -0.9335 -0.7987
 9563TIP3    H250105   6.137   2.097   4.070 -1.6474 -0.2894  1.0627
 9564TIP3   OH250106   4.772   3.402  14.489  0.0419 -0.4493  0.2775
 9564TIP3    H150107   4.717   3.334  14.528  0.2719 -0.6626  0.2304
 9564TIP3    H250108   4.730   3.484  14.515  0.1830 -0.5870  0.9534
 9565TIP3   OH250109   4.816   6.093  12.288 -0.2914  0.1847  0.3366
 9565TIP3    H150110   4.895   6.100  12.234 -0.2961 -2.1442  0.0069
 9565TIP3    H250111   4.780   6.182  12.288  2.5259  1.3782  0.8292
 9566TIP3   OH250112   6.478   6.631   5.113  0.4679  0.0045 -0.5663
 9566TIP3    H150113   6.448   6.571   5.045  0.1766 -2.0293  1.2698
 9566TIP3    H250114   6.398   6.666   5.151  0.5426 -0.9890  0.5303
 9567TIP3   OH250115   1.402   6.165  13.942  0.3717 -0.0075 -0.3415
 9567TIP3    H150116   1.432   6.254  13.961  0.2162  0.3570 -1.7333
 9567TIP3    H250117   1.470   6.128  13.885  0.3065 -0.6854  0.0182
 9568TIP3   OH250118   0.595   6.406  12.170  0.2653  0.1137  0.1901
 9568TIP3    H150119   0.686   6.405  12.140  0.5861 -2.3093  1.0652
 9568TIP3    H250120   0.551   6.470  12.114  2.3556  0.7805 -0.7248
 9569TIP3   OH250121   0.549   5.699   1.154  0.3651  0.2298 -0.4203
 9569TIP3    H150122   0.610   5.771   1.141 -1.9470  1.9307 -2.2148
 9569TIP3    H250123   0.545   5.656   1.069  1.0350 -1.5031  0.4012
 9570TIP3   OH250124   3.172   6.084  15.428  0.2998  0.4412  0.1524
 9570TIP3    H150125   3.239   6.142  15.465 -0.6299  1.1301  0.7980
 9570TIP3    H250126   3.140   6.130  15.350 -0.6563  0.9592  0.8384
 9571TIP3   OH250127   0.288   0.256   1.704  0.0084 -0.4948  0.2206
 9571TIP3    H150128   0.339   0.308   1.642 -0.9495  1.9499  1.4132
 9571TIP3    H250129   0.273   0.173   1.659  0.1801  0.8418 -2.4128
 9572TIP3   OH250130   0.785   5.680   2.236 -0.4762  0.0463 -0.0827
 9572TIP3    H150131   0.817   5.602   2.280 -0.7996 -0.2223 -0.3241
 9572TIP3    H250132   0.857   5.742   2.241 -0.3593 -0.1339  0.4521
 9573TIP3   OH250133   4.735   4.857   1.702 -0.0716  0.0094 -0.9532
 9573TIP3    H150134   4.746   4.764   1.686  2.2508 -0.3171  1.9906
 9573TIP3    H250135   4.640   4.869   1.711 -0.2530 -2.6317  1.3615
 9574TIP3   OH250136   6.639   6.157  16.246 -0.6620  0.0535 -0.5905
 9574TIP3    H150137   6.567   6.103  16.277 -0.6013 -0.1225 -0.7624
 9574TIP3    H250138   6.635   6.151  16.151 -0.0807 -0.4055 -0.5900
 9575TIP3   OH250139   0.141   6.482  17.023 -0.3727 -0.6296  0.0338
 9575TIP3    H150140   0.118   6.534  16.947  0.5970 -0.0511  0.1311
 9575TIP3    H250141   0.057   6.460  17.064 -0.8712 -0.6492 -0.9994
 9576TIP3   OH250142   1.661   5.333   3.613 -0.4222 -0.5859 -0.0055
 9576TIP3    H150143   1.605   5.372   3.547  0.3999 -0.1329 -0.4453
 9576TIP3    H250144   1.693   5.407   3.665 -0.9170 -0.9218  0.7767
 9577TIP3   OH250145   4.737   5.135  14.157  0.0264  0.1086  0.1587
 9577TIP3    H150146   4.779   5.219  14.141  1.1782 -0.1367  1.6834
 9577TIP3    H250147   4.810   5.074  14.169 -0.7844 -0.8854  0.0853
 9578TIP3   OH250148   0.007   2.342  11.223  0.1426 -0.1681  0.4249
 9578TIP3    H150149   0.027   2.272  11.286  1.1915  1.1177  1.5651
 9578TIP3    H250150  -0.088   2.340  11.213  0.0043 -0.6696  1.7401
 9579TIP3   OH250151   4.923   5.277  12.247  0.1109  0.0762 -0.1709
 9579TIP3    H150152   4.970   5.196  12.266  0.6071  0.5283  0.5485
 9579TIP3    H250153   4.847   5.275  12.305 -0.1276 -0.0915 -0.4861
 9580TIP3   OH250154   5.721   4.003  13.356 -0.0083 -0.4036  0.3311
 9580TIP3    H150155   5.644   3.994  13.412 -0.5132 -1.9842 -0.5983
 9580TIP3    H250156   5.691   3.975  13.269  1.3915 -0.2194 -0.2247
 9581TIP3   OH250157   4.335   5.932   1.633  0.1725 -0.0584 -0.0578
 9581TIP3    H150158   4.263   5.926   1.696 -0.1783  0.7659 -0.3781
 9581TIP3    H250159   4.406   5.974   1.681  0.1983 -0.2025  0.0339
 9582TIP3   OH250160   0.176   6.522  14.759  0.2786 -0.1845 -0.2204
 9582TIP3    H150161   0.205   6.477  14.839 -0.0104 -0.6023 -0.3446
 9582TIP3    H250162   0.125   6.455  14.712  0.5453  0.0244 -0.8064
 9583TIP3   OH250163   2.268   0.862   0.641  0.5332  0.2293  0.4087
 9583TIP3    H150164   2.347   0.911   0.665  0.3101  0.2589  1.0869
 9583TIP3    H250165   2.246   0.812   0.719  1.1346 -1.4708 -0.4818
 9584TIP3   OH250166   4.956   0.385   2.119 -0.3415 -0.1070  0.3387
 9584TIP3    H150167   5.046   0.416   2.113  0.5881 -2.4323  1.5204
 9584TIP3    H250168   4.922   0.390   2.030  0.8917  0.9222 -0.0899
 9585TIP3   OH250169   0.602   0.438  16.451 -0.1157 -0.2302 -0.0639
 9585TIP3    H150170   0.626   0.510  16.508 -1.2540 -0.8003  1.1720
 9585TIP3    H250171   0.635   0.463  16.365 -1.5381  2.3231  0.0944
 9586TIP3   OH250172   6.635   3.412   3.030  0.3644 -0.2736 -0.7257
 9586TIP3    H150173   6.711   3.364   3.065  0.0206 -0.8116 -0.7185
 9586TIP3    H250174   6.669   3.456   2.952  1.1982  1.1373  0.4067
 9587TIP3   OH250175   3.632   1.373  11.400  0.2396  0.1954  0.3348
 9587TIP3    H150176   3.581   1.292  11.391  0.5289  0.1408 -0.9629
 9587TIP3    H250177   3.568   1.439  11.428 -0.5237  0.0962 -1.1505
 9588TIP3   OH250178   0.516   5.770  13.888 -0.1101 -0.5713 -0.7236
 9588TIP3    H150179   0.544   5.854  13.852 -2.0531  0.0308 -0.8836
 9588TIP3    H250180   0.573   5.757  13.964  0.5389  0.6508 -0.9782
 9589TIP3   OH250181   0.548   5.459  14.310 -0.0747  0.8001  0.4458
 9589TIP3    H150182   0.580   5.400  14.242 -1.0730 -1.4624  1.8916
 9589TIP3    H250183   0.627   5.490  14.355  0.4403  0.3490 -0.1401
 9590TIP3   OH250184   3.155   3.785  12.555  0.4410  0.2491 -0.2708
 9590TIP3    H150185   3.205   3.861  12.585  0.5178  0.0466  0.1196
 9590TIP3    H250186   3.198   3.710  12.596 -1.8178  0.2845  2.3279
 9591TIP3   OH250187   4.139   5.536  12.205 -0.3947 -0.3679  0.2608
 9591TIP3    H150188   4.166   5.450  12.173  0.9311  0.7487 -1.7341
 9591TIP3    H250189   4.047   5.543  12.179 -0.4657 -1.1128  0.2983
 9592TIP3   OH250190   2.235   0.369  13.531 -0.2223  0.0765 -0.7245
 9592TIP3    H150191   2.318   0.352  13.486 -0.1035 -2.7798  0.4751
 9592TIP3    H250192   2.258   0.427  13.603  0.8325 -1.1712 -0.0547
 9593TIP3   OH250193   6.621   6.161   4.268 -0.3220  0.1410 -0.0460
 9593TIP3    H150194   6.552   6.220   4.238 -1.5319 -1.6659 -0.9492
 9593TIP3    H250195   6.593   6.131   4.354 -1.3671 -1.6253 -0.9758
 9594TIP3   OH250196   0.762   5.348   0.141  0.0883  0.0008 -0.5211
 9594TIP3    H150197   0.776   5.363   0.048  2.0441 -0.9046 -0.3875
 9594TIP3    H250198   0.796   5.260   0.157  0.9435  0.6398  1.3045
 9595TIP3   OH250199   3.052   0.777   3.351 -0.0176  0.0174  0.4746
 9595TIP3    H150200   3.124   0.743   3.298 -1.2106  0.3175 -1.4295
 9595TIP3    H250201   2.988   0.706   3.354 -0.1250  0.1443  1.1721
 9596TIP3   OH250202   6.219   5.714   4.983  1.1957 -0.5562  0.2047
 9596TIP3    H150203   6.186   5.723   5.072  1.4588 -1.2629  0.3808
 9596TIP3    H250204   6.152   5.662   4.938  0.8080  0.2488 -0.1570
 9597TIP3   OH250205   0.989   4.187  16.888 -0.0946  0.0448 -0.0363
 9597TIP3    H150206   0.946   4.270  16.865  2.0041  1.1148 -0.1586
 9597TIP3    H250207   1.041   4.207  16.966 -2.0468 -1.9677  1.8711
 9598TIP3   OH250208   6.733   1.274   4.144  0.1464 -0.1480  0.4485
 9598TIP3    H150209   6.815   1.264   4.096 -0.0759 -0.2454  0.0835
 9598TIP3    H250210   6.681   1.198   4.119 -1.4290  1.6948 -2.0864
 9599TIP3   OH250211   6.762   4.040  12.784 -0.1602 -0.5188  0.6217
 9599TIP3    H150212   6.677   4.039  12.740 -0.2264 -1.5537  0.7697
 9599TIP3    H250213   6.742   4.067  12.873 -0.1196  0.8442  0.2335
 9600TIP3   OH250214   6.522   4.397  13.857 -0.1337 -0.1269 -0.1390
 9600TIP3    H150215   6.434   4.386  13.894  0.2620 -0.6061  0.6779
 9600TIP3    H250216   6.543   4.489  13.871  0.1430 -0.3705  1.1490
 9601TIP3   OH250217   2.007   2.394   4.170  0.1306 -0.4298 -0.5047
 9601TIP3    H150218   1.970   2.433   4.090 -1.7668 -1.2392 -0.0417
 9601TIP3    H250219   2.019   2.302   4.149 -2.5225 -1.1258  0.8501
 9602TIP3   OH250220   1.132   0.051  13.467  0.2784  0.1616 -0.0096
 9602TIP3    H150221   1.183   0.102  13.529 -0.4618  2.4989 -1.2602
 9602TIP3    H250222   1.048   0.037  13.510  0.1418  0.8385 -0.0644
 9603TIP3   OH250223   0.513   4.842  11.225  0.2737 -0.2768  0.2918
 9603TIP3    H150224   0.438   4.888  11.262 -1.4965 -3.3539  0.6755
 9603TIP3    H250225   0.480   4.803  11.144  1.6980 -0.9059 -0.0080
 9604TIP3   OH250226   2.289   6.462  16.279  0.7589  0.4318 -0.1763
 9604TIP3    H150227   2.260   6.464  16.187 -0.3243 -0.6767  0.1191
 9604TIP3    H250228   2.339   6.543  16.290 -0.3840  1.3365 -1.3391
 9605TIP3   OH250229   0.536   2.585   4.086 -0.0975 -0.1910 -0.3845
 9605TIP3    H150230   0.539   2.574   4.181  0.4223 -0.6383 -0.4554
 9605TIP3    H250231   0.508   2.676   4.074  2.2440  0.6265  0.1996
 9606TIP3   OH250232   6.224   1.699   3.187 -0.2672  0.3781  0.1270
 9606TIP3    H150233   6.201   1.646   3.263  1.5483 -1.8352 -0.8246
 9606TIP3    H250234   6.180   1.658   3.113  1.1523  0.1378 -0.6142
 9607TIP3   OH250235   4.769   2.169   0.157  0.1397 -0.3350  0.1484
 9607TIP3    H150236   4.742   2.201   0.071  2.2058 -2.7795 -1.4788
 9607TIP3    H250237   4.711   2.095   0.174 -0.4602  0.3294  1.0085
 9608TIP3   OH250238   2.361   4.461   3.609 -0.1415 -0.3757 -0.6555
 9608TIP3    H150239   2.294   4.398   3.635 -0.9075 -0.6064 -3.0727
 9608TIP3    H250240   2.388   4.433   3.522  1.0405  1.3901 -0.8769
 9609TIP3   OH250241   4.934   4.922  14.945 -0.3720 -0.0070  0.2166
 9609TIP3    H150242   4.988   4.903  14.867  2.0597  1.4400  1.4799
 9609TIP3    H250243   4.973   4.868  15.014 -1.2753  0.2193  0.9059
 9610TIP3   OH250244   1.826   0.258  16.851 -0.3018 -0.5147 -0.4270
 9610TIP3    H150245   1.738   0.266  16.890 -0.3116  0.3619 -0.6264
 9610TIP3    H250246   1.821   0.308  16.770  0.7420  0.5632  0.1653
 9611TIP3   OH250247   4.967   1.141  15.935  0.2236 -0.0241  0.3577
 9611TIP3    H150248   5.013   1.129  15.852  2.1524 -0.6563  1.4805
 9611TIP3    H250249   4.911   1.064  15.943  1.0106 -0.6037  0.2606
 9612TIP3   OH250250   4.408   1.944   5.736 -0.6711 -0.2925 -0.3371
 9612TIP3    H150251   4.370   1.988   5.660  0.6726  1.2317 -0.1536
 9612TIP3    H250252   4.483   1.896   5.701 -0.0884  0.3577  0.0068
 9613TIP3   OH250253   4.239   0.326   3.048  1.0528 -0.5384 -0.3096
 9613TIP3    H150254   4.185   0.266   3.100 -0.4260  0.5266 -0.5578
 9613TIP3    H250255   4.246   0.284   2.962  0.6629 -0.7096 -0.2593
 9614TIP3   OH250256   6.538   4.674   2.957 -0.1653  0.1478  0.0390
 9614TIP3    H150257   6.560   4.593   3.003  0.1039  0.0683 -0.2270
 9614TIP3    H250258   6.444   4.685   2.971 -0.1807 -0.1536  0.1702
 9615TIP3   OH250259   1.552   1.870  14.339  0.5282  0.4292 -0.3461
 9615TIP3    H150260   1.641   1.868  14.375  0.5264 -1.7683 -0.4086
 9615TIP3    H250261   1.497   1.838  14.410 -0.0241  0.2608 -0.8509
 9616TIP3   OH250262   1.353   1.050  12.197  0.3657  0.4851  0.0250
 9616TIP3    H150263   1.284   1.081  12.256  0.9584  0.9048  0.4954
 9616TIP3    H250264   1.427   1.109  12.212  0.1818  1.2396 -1.8979
 9617TIP3   OH250265   3.037   2.407   6.511 -0.2949 -0.3561  0.0523
 9617TIP3    H150266   3.039   2.322   6.556 -2.6385 -0.8165 -0.6419
 9617TIP3    H250267   3.068   2.469   6.577  2.2801 -1.8250  0.2995
 9618TIP3   OH250268   0.826   2.585  11.592  0.1580 -0.4242 -0.0835
 9618TIP3    H150269   0.876   2.649  11.540 -0.2358 -0.2249 -0.2165
 9618TIP3    H250270   0.804   2.631  11.672  0.4749 -0.6238  0.1219
 9619TIP3   OH250271   4.192   4.790   3.170  0.4073 -0.7905 -0.1200
 9619TIP3    H150272   4.146   4.706   3.180 -2.1372  0.8294  2.2897
 9619TIP3    H250273   4.263   4.786   3.235 -0.8197 -0.3625  1.2581
 9620TIP3   OH250274   1.416   6.480   4.862  0.0934 -0.3283  0.4238
 9620TIP3    H150275   1.348   6.547   4.867 -0.1552 -0.5916  0.5985
 9620TIP3    H250276   1.494   6.522   4.898 -0.3700 -0.5204  1.6774
 9621TIP3   OH250277   2.478   2.751   5.759  0.3467 -0.1265  0.2988
 9621TIP3    H150278   2.383   2.766   5.753  0.5163  0.2070 -1.8811
 9621TIP3    H250279   2.489   2.658   5.740  0.4694 -0.1661  0.5565
 9622TIP3   OH250280   4.994   2.744  13.135  0.3843 -0.0882 -0.1717
 9622TIP3    H150281   5.076   2.764  13.089  0.2074  0.4134 -0.2703
 9622TIP3    H250282   4.942   2.695  13.071  1.8865 -3.2493  0.9594
 9623TIP3   OH250283   3.758   3.220   1.654 -0.1984  0.2303  0.1879
 9623TIP3    H150284   3.847   3.246   1.632  0.0671 -0.7606  0.0479
 9623TIP3    H250285   3.759   3.210   1.750  0.2106 -1.0914  0.0528
 9624TIP3   OH250286   3.078   4.463   5.869 -0.2069 -0.6695 -0.2934
 9624TIP3    H150287   3.043   4.538   5.822 -1.0707 -0.5985  0.4479
 9624TIP3    H250288   3.017   4.392   5.850 -1.2549 -0.3427  1.6542
 9625TIP3   OH250289   5.177   0.730   6.239  0.3272 -0.2883  0.1049
 9625TIP3    H150290   5.253   0.749   6.294 -0.0697 -1.2090  0.9967
 9625TIP3    H250291   5.124   0.809   6.243  0.9513  0.1395 -0.0427
 9626TIP3   OH250292   3.821   2.617  12.009  0.6219 -0.1176  0.1613
 9626TIP3    H150293   3.732   2.592  11.983  0.2450  0.1071  1.2260
 9626TIP3    H250294   3.822   2.609  12.104  1.8744 -0.5348  0.1210
 9627TIP3   OH250295   4.198   6.603   5.712 -0.2627  0.0976 -0.1026
 9627TIP3    H150296   4.155   6.674   5.665  1.0647  0.0260 -1.4608
 9627TIP3    H250297   4.164   6.609   5.802 -1.5524  1.2765 -0.6569
 9628TIP3   OH250298   1.231   1.786  13.213 -0.4612  0.0169 -0.2099
 9628TIP3    H150299   1.222   1.746  13.299 -0.5172  0.2756 -0.0943
 9628TIP3    H250300   1.303   1.849  13.223 -2.0037  1.7402  0.2910
 9629TIP3   OH250301   6.551   3.852  12.102 -0.0562 -0.1363  0.0128
 9629TIP3    H150302   6.535   3.781  12.040  2.0248 -1.2234  0.6941
 9629TIP3    H250303   6.642   3.878  12.086  0.1141  0.4179  1.7563
 9630TIP3   OH250304   2.318   0.820  10.704  0.0180  0.3745  0.4854
 9630TIP3    H150305   2.369   0.797  10.626 -1.8662  0.9670 -0.9528
 9630TIP3    H250306   2.383   0.840  10.770  1.6766  1.8283 -1.5256
 9631TIP3   OH250307   4.707   3.146   1.437 -0.5534 -1.3288 -0.2315
 9631TIP3    H150308   4.646   3.215   1.412 -0.1505 -1.0061 -0.3139
 9631TIP3    H250309   4.749   3.178   1.516  1.5194 -0.3342 -1.6963
 9632TIP3   OH250310   3.041   0.076  11.138 -0.1144 -0.5227 -0.2868
 9632TIP3    H150311   3.036   0.161  11.181 -1.1096 -1.2888  1.1440
 9632TIP3    H250312   3.133   0.067  11.113  0.2523  0.4154  0.7009
 9633TIP3   OH250313   4.945   5.289   6.327 -0.6230 -0.2576 -0.2556
 9633TIP3    H150314   4.960   5.369   6.377 -2.4443  0.9611 -1.5773
 9633TIP3    H250315   5.027   5.240   6.333  0.2108  1.3063  1.2902
 9634TIP3   OH250316   5.697   5.415   1.426 -0.2908 -0.2550  0.0013
 9634TIP3    H150317   5.757   5.343   1.407 -0.6941 -0.2310 -1.4359
 9634TIP3    H250318   5.749   5.477   1.476  0.4154 -0.9760  0.1736
 9635TIP3   OH250319   4.569   2.707   2.383  0.0652  0.3610  0.0701
 9635TIP3    H150320   4.520   2.738   2.459 -0.4614 -1.8063  0.6672
 9635TIP3    H250321   4.506   2.654   2.334  1.0531 -0.2413 -0.5793
 9636TIP3   OH250322   4.286   2.242   1.186 -0.0050  0.5627  0.1539
 9636TIP3    H150323   4.235   2.272   1.261  0.8144  1.0406  0.5328
 9636TIP3    H250324   4.252   2.155   1.167 -2.1801  1.5625 -0.7380
 9637TIP3   OH250325   5.351   2.497   0.737  0.4320 -0.3639 -1.0745
 9637TIP3    H150326   5.301   2.416   0.723 -0.7401  0.3062 -0.8682
 9637TIP3    H250327   5.345   2.543   0.653  0.8893 -0.3761 -1.1142
 9638TIP3   OH250328   4.541   3.883  16.659 -0.8079  0.0518  0.0330
 9638TIP3    H150329   4.446   3.881  16.672 -0.7419  0.2122  0.5612
 9638TIP3    H250330   4.564   3.793  16.638 -1.4515  0.5134 -2.9141
 9639TIP3   OH250331   0.404   3.039   3.590  0.6670  0.0936  0.6156
 9639TIP3    H150332   0.373   3.008   3.676 -1.0756  0.9414  0.3254
 9639TIP3    H250333   0.332   3.093   3.558  1.2163 -0.4074 -1.4954
 9640TIP3   OH250334   1.555   4.317   3.179  0.2410 -0.0482  0.0157
 9640TIP3    H150335   1.604   4.391   3.215  1.9406 -1.1066 -0.0645
 9640TIP3    H250336   1.598   4.297   3.096 -0.1186 -1.2176  0.0949
 9641TIP3   OH250337   2.865   3.160  16.617  0.0826 -0.4019 -0.0254
 9641TIP3    H150338   2.886   3.117  16.534  1.5146 -1.0114  0.6396
 9641TIP3    H250339   2.918   3.240  16.617 -0.8504  0.2326 -0.2295
 9642TIP3   OH250340   6.329   3.097   4.986  0.4660  0.2532  0.0849
 9642TIP3    H150341   6.242   3.058   4.993  0.5946 -0.0646 -0.0716
 9642TIP3    H250342   6.349   3.128   5.074  0.5604 -0.4713  0.3254
 9643TIP3   OH250343   2.336   0.426   4.874  0.2322  0.2231  0.2354
 9643TIP3    H150344   2.344   0.383   4.788 -0.3188  2.2713 -0.8674
 9643TIP3    H250345   2.292   0.361   4.929  1.7744 -1.6119 -0.6636
 9644TIP3   OH250346   4.168   4.302   2.763  0.0501 -0.3491  0.3700
 9644TIP3    H150347   4.210   4.217   2.748 -0.4208 -0.3616 -1.0298
 9644TIP3    H250348   4.236   4.366   2.741  1.1967 -0.3052  3.7384
 9645TIP3   OH250349   4.583   2.623  15.180  0.5154 -0.3008 -0.5656
 9645TIP3    H150350   4.677   2.626  15.193  0.2068 -0.5042  1.9014
 9645TIP3    H250351   4.564   2.530  15.165  0.5967 -0.4047 -0.0456
 9646TIP3   OH250352   3.499   4.513  11.259  0.3412 -0.2145 -0.1998
 9646TIP3    H150353   3.414   4.499  11.218  0.1849 -1.9957  0.6713
 9646TIP3    H250354   3.528   4.598  11.226 -1.8099  0.4641 -0.4110
 9647TIP3   OH250355   6.248   1.201   0.776  0.6307  0.1315 -0.1739
 9647TIP3    H150356   6.194   1.208   0.855  2.4640 -2.2089  1.3221
 9647TIP3    H250357   6.234   1.284   0.730 -0.4906  1.5064  2.5770
 9648TIP3   OH250358   5.687   0.646  16.764  0.0433 -0.4406 -0.4615
 9648TIP3    H150359   5.652   0.654  16.853  1.0247 -1.0191 -0.0092
 9648TIP3    H250360   5.611   0.658  16.707 -0.3848  1.2130  0.4173
 9649TIP3   OH250361   1.024   0.663  10.708 -0.3400 -0.1430  0.1377
 9649TIP3    H150362   1.084   0.684  10.637 -1.7287  2.1012 -0.4293
 9649TIP3    H250363   1.049   0.575  10.736  0.5574 -0.8614 -2.7940
 9650TIP3   OH250364   5.262   2.926   0.565  0.0345  0.1344 -0.0351
 9650TIP3    H150365   5.179   2.896   0.528 -0.1807  0.4368  0.1959
 9650TIP3    H250366   5.237   2.987   0.634  0.4517  0.2915 -0.0182
 9651TIP3   OH250367   2.856   6.561  14.621 -0.2804  0.3070  0.1683
 9651TIP3    H150368   2.793   6.512  14.567  1.6000 -1.1490 -0.7783
 9651TIP3    H250369   2.865   6.508  14.701 -0.1232  0.4187  0.2246
 9652TIP3   OH250370   5.983   1.924   1.097  0.2006 -0.6730 -0.2512
 9652TIP3    H150371   5.957   1.836   1.067 -0.5037 -0.7600  0.5829
 9652TIP3    H250372   6.046   1.908   1.167  0.7772 -0.4957 -0.7300
 9653TIP3   OH250373   1.434   2.294   1.871 -0.0084  0.0297  0.0135
 9653TIP3    H150374   1.513   2.300   1.925 -0.3716  1.4105  0.4018
 9653TIP3    H250375   1.397   2.382   1.873 -1.4660 -0.5653 -0.3112
 9654TIP3   OH250376   0.711   4.720  14.709  0.3953 -0.2509  0.5634
 9654TIP3    H150377   0.711   4.693  14.801  0.9014 -0.2893  0.5508
 9654TIP3    H250378   0.654   4.797  14.708 -0.7542 -1.0730  0.6661
 9655TIP3   OH250379   3.144   2.441   5.857  0.1966 -0.3724  0.1070
 9655TIP3    H150380   3.154   2.383   5.933 -1.5395 -2.1822 -1.0130
 9655TIP3    H250381   3.060   2.484   5.870  0.8045  0.8020  0.1850
 9656TIP3   OH250382   5.552   1.712   5.951  0.0315  0.5717 -0.0161
 9656TIP3    H150383   5.527   1.730   6.042 -1.9278 -1.1160 -0.1720
 9656TIP3    H250384   5.599   1.629   5.955  0.7636  0.9716 -0.4235
 9657TIP3   OH250385   4.526   5.705  15.349 -0.1685  0.3906  0.4110
 9657TIP3    H150386   4.539   5.643  15.277  0.8303 -0.9292  1.7240
 9657TIP3    H250387   4.431   5.710  15.360 -0.2813 -0.2079 -0.2841
 9658TIP3   OH250388   0.969   1.405   1.441  0.0717 -0.2320  0.7208
 9658TIP3    H150389   0.895   1.420   1.381 -0.8040 -2.4056  1.2297
 9658TIP3    H250390   0.947   1.458   1.518 -1.1824 -1.1853  1.0403
 9659TIP3   OH250391   4.734   6.337   3.160 -0.4813  0.2690 -0.1635
 9659TIP3    H150392   4.713   6.324   3.252 -0.6103  0.6103 -0.1420
 9659TIP3    H250393   4.658   6.385   3.125 -0.5709 -0.1274 -0.5152
 9660TIP3   OH250394   2.528   0.349   0.095  0.1057  0.0537  0.6808
 9660TIP3    H150395   2.444   0.304   0.087  0.3510 -0.5232  1.2859
 9660TIP3    H250396   2.564   0.318   0.179  0.1539  1.5965  1.2374
 9661TIP3   OH250397   1.296   2.153  13.393  0.2575 -0.4594 -0.1921
 9661TIP3    H150398   1.360   2.195  13.451  1.8200 -1.7268 -0.9429
 9661TIP3    H250399   1.246   2.226  13.356  1.5494  0.6144  0.1039
 9662TIP3   OH250400   0.832   4.063  15.719  0.1243 -0.2953 -0.4688
 9662TIP3    H150401   0.876   4.128  15.664  0.6682  1.7519  2.3033
 9662TIP3    H250402   0.891   3.987  15.716  2.9673  1.7028  1.5677
 9663TIP3   OH250403   5.113   0.942   0.466 -0.5811 -0.0882  0.3513
 9663TIP3    H150404   5.196   0.895   0.472 -0.4935  0.0923  0.5411
 9663TIP3    H250405   5.056   0.882   0.418 -0.3347 -0.2007  0.1949
 9664TIP3   OH250406   0.772   0.771  15.890  0.1165 -0.5695  0.1594
 9664TIP3    H150407   0.826   0.694  15.906  3.5744  1.4310 -1.2680
 9664TIP3    H250408   0.696   0.737  15.841  1.6809 -2.9997 -0.6722
 9665TIP3   OH250409   5.750   2.199   0.340  0.5390 -0.1232  0.2879
 9665TIP3    H150410   5.825   2.256   0.357  0.4637  0.3426 -0.8872
 9665TIP3    H250411   5.749   2.189   0.245 -1.2616  0.3874  0.2414
 9666TIP3   OH250412   3.220   0.099   5.364  0.1862 -0.5281 -0.0590
 9666TIP3    H150413   3.220   0.006   5.388 -0.5804 -0.3416  0.7024
 9666TIP3    H250414   3.303   0.112   5.318  0.7494 -1.3643  0.7017
 9667TIP3   OH250415   1.264   5.845   4.138  0.2283  0.2965 -0.1691
 9667TIP3    H150416   1.223   5.904   4.202  0.6491  0.2015  0.1878
 9667TIP3    H250417   1.354   5.877   4.130  1.3752 -2.1518  2.3193
 9668TIP3   OH250418   0.846   0.007  12.304  0.6875 -0.2336  0.1141
 9668TIP3    H150419   0.821  -0.012  12.213  1.3542 -0.0774 -0.1095
 9668TIP3    H250420   0.812   0.095  12.320  2.1032  0.4596 -0.5826
 9669TIP3   OH250421   1.315   1.382  11.302 -0.1194 -0.0999  0.8685
 9669TIP3    H150422   1.311   1.379  11.206  0.3945 -1.4078  0.8883
 9669TIP3    H250423   1.355   1.467  11.321 -0.1652  0.1406 -0.0772
 9670TIP3   OH250424   0.311   6.573  13.648 -0.0609  0.1721  0.0358
 9670TIP3    H150425   0.390   6.595  13.598  0.2365 -1.8890 -0.4524
 9670TIP3    H250426   0.254   6.649  13.636  1.3023  1.1260 -0.7078
 9671TIP3   OH250427   6.688   3.579   5.450 -0.6161  0.7327 -0.2954
 9671TIP3    H150428   6.620   3.609   5.510 -1.3538 -1.1628 -0.1514
 9671TIP3    H250429   6.652   3.594   5.363 -1.4523 -0.7105 -0.2181
 9672TIP3   OH250430   5.025   6.559  13.271 -0.3325 -0.2777 -0.4840
 9672TIP3    H150431   5.096   6.561  13.207  2.2158  0.9090  2.3064
 9672TIP3    H250432   4.975   6.639  13.254  1.5258  1.0771  0.2769
 9673TIP3   OH250433   2.492   2.116   5.504 -0.3060  0.7638  0.3132
 9673TIP3    H150434   2.550   2.105   5.579  0.9370  1.4607 -0.5181
 9673TIP3    H250435   2.414   2.066   5.526  0.9510 -0.9085  1.1107
 9674TIP3   OH250436   3.618   0.170   5.610 -0.2099 -0.4218 -0.1794
 9674TIP3    H150437   3.645   0.190   5.699  1.9962 -1.2490 -0.6186
 9674TIP3    H250438   3.657   0.240   5.557 -0.9813 -0.2781 -0.5593
 9675TIP3   OH250439   1.758   5.688  14.802  0.3306 -0.6656  0.3748
 9675TIP3    H150440   1.798   5.761  14.849 -0.1480  1.0269 -1.7655
 9675TIP3    H250441   1.812   5.612  14.826  2.3661  0.8266  0.6888
 9676TIP3   OH250442   4.271   3.234   1.981 -0.1191 -1.1543 -0.6828
 9676TIP3    H150443   4.207   3.234   1.909  0.0956 -0.8518 -0.8732
 9676TIP3    H250444   4.355   3.218   1.939  0.3018  1.0641 -0.7662
 9677TIP3   OH250445   4.000   6.652   0.123  0.0452  0.6334  0.0766
 9677TIP3    H150446   3.929   6.593   0.097  0.7963  0.3517 -1.4021
 9677TIP3    H250447   3.985   6.732   0.073  1.3284  0.2041 -1.0435
 9678TIP3   OH250448   6.502   6.163   0.900  0.0352  0.3972 -0.1912
 9678TIP3    H150449   6.493   6.107   0.977  0.8307  1.0483  0.3948
 9678TIP3    H250450   6.414   6.194   0.881 -0.1699  0.1851  0.4237
 9679TIP3   OH250451   5.252   6.424  15.508 -0.0204  0.9177 -0.1679
 9679TIP3    H150452   5.254   6.508  15.463 -1.2546  0.7795 -0.4944
 9679TIP3    H250453   5.173   6.381  15.476 -0.1436  0.2128  1.0342
 9680TIP3   OH250454   5.599   5.444   2.219 -0.2438 -0.2914  0.3658
 9680TIP3    H150455   5.560   5.466   2.134 -1.7124  1.2575  1.4106
 9680TIP3    H250456   5.555   5.502   2.281  0.0318 -2.1715  2.3606
 9681TIP3   OH250457   0.539   6.409   5.697  0.2518 -0.2590 -0.7707
 9681TIP3    H150458   0.598   6.483   5.685  1.1761 -0.8885 -0.1390
 9681TIP3    H250459   0.597   6.333   5.704 -0.7262 -1.1494 -2.2463
 9682TIP3   OH250460   5.143   4.391  15.278  0.0451  0.1022  0.2813
 9682TIP3    H150461   5.236   4.412  15.287 -0.0890  0.5894  0.5291
 9682TIP3    H250462   5.099   4.476  15.279 -0.4680 -0.1698  0.9044
 9683TIP3   OH250463   5.384   4.911  13.565 -0.0077  0.4766 -0.2419
 9683TIP3    H150464   5.466   4.934  13.522  0.2569  1.2763  0.6545
 9683TIP3    H250465   5.382   4.816  13.566  0.6507  0.4568 -0.7565
 9684TIP3   OH250466   4.736   4.372  16.176 -0.1192  0.8001 -0.5365
 9684TIP3    H150467   4.763   4.369  16.268 -1.2713  0.5520 -0.2048
 9684TIP3    H250468   4.816   4.349  16.127  0.1328 -0.5446  0.4701
 9685TIP3   OH250469   0.125   4.469  12.914  0.1611 -0.2257 -0.1332
 9685TIP3    H150470   0.167   4.547  12.878 -1.4608  0.1110 -1.3584
 9685TIP3    H250471   0.101   4.417  12.837 -0.0888 -1.2307  0.6130
 9686TIP3   OH250472   1.587   3.028   1.854 -0.2359  0.0133 -0.1703
 9686TIP3    H150473   1.605   3.096   1.789 -0.6523  0.0004 -0.2984
 9686TIP3    H250474   1.570   3.078   1.935 -1.5041  0.1154 -0.4821
 9687TIP3   OH250475   3.085   1.969   3.572  0.0064 -0.5211 -0.0199
 9687TIP3    H150476   3.127   2.035   3.516  1.0297 -0.3676  0.9006
 9687TIP3    H250477   3.105   1.998   3.661  0.0576 -1.8145  0.3998
 9688TIP3   OH250478   4.544   3.134   3.101 -0.3321  0.0372  0.4572
 9688TIP3    H150479   4.521   3.102   3.189 -0.9222  1.1613  0.7157
 9688TIP3    H250480   4.594   3.062   3.062 -0.7447 -0.7869  1.4226
 9689TIP3   OH250481   5.345   2.990   4.384  0.3785  0.3935  0.1001
 9689TIP3    H150482   5.403   3.056   4.345 -0.2333  0.8168 -0.1201
 9689TIP3    H250483   5.355   2.913   4.328 -0.5852  1.0378 -0.9917
 9690TIP3   OH250484   1.674   3.579   3.470 -0.2367 -0.2260  0.3740
 9690TIP3    H150485   1.767   3.599   3.465 -0.2471  0.0752  1.2868
 9690TIP3    H250486   1.631   3.653   3.426  0.0511 -1.4469 -2.0391
 9691TIP3   OH250487   1.079   5.812   0.799 -0.4306  0.4235  0.0181
 9691TIP3    H150488   1.042   5.855   0.722 -0.1240 -1.1090 -1.0289
 9691TIP3    H250489   1.010   5.818   0.865 -1.8808 -0.8144 -1.3239
 9692TIP3   OH250490   2.249   1.880   3.954 -0.2934  0.6062 -0.6170
 9692TIP3    H150491   2.202   1.875   4.037  0.1592  2.2912 -0.2589
 9692TIP3    H250492   2.290   1.793   3.945 -0.7208  0.2556  0.6800
 9693TIP3   OH250493   3.889   2.556  15.867 -0.1475  0.4402  0.1811
 9693TIP3    H150494   3.863   2.598  15.785 -1.6856 -0.3519  0.2357
 9693TIP3    H250495   3.887   2.626  15.931 -1.6554  0.5298  0.0618
 9694TIP3   OH250496   4.655   1.430   1.574  0.2590  0.1332 -0.1017
 9694TIP3    H150497   4.590   1.500   1.575  1.1024  0.9247 -0.7429
 9694TIP3    H250498   4.725   1.461   1.632  0.2071 -0.5958  0.3656
 9695TIP3   OH250499   2.911   2.622  16.700 -0.4620  0.1719 -0.5111
 9695TIP3    H150500   2.921   2.693  16.637  2.2517 -0.5399 -0.9526
 9695TIP3    H250501   2.914   2.542  16.648 -1.5107 -0.3265  0.1804
 9696TIP3   OH250502   0.748   0.923   2.657 -0.1460 -0.2476  0.4968
 9696TIP3    H150503   0.774   0.851   2.599  1.6232  0.0752  0.8711
 9696TIP3    H250504   0.790   0.903   2.741  1.4667  1.8839  0.2391
 9697TIP3   OH250505   1.178   4.772  11.979  0.1032  0.1720  0.3325
 9697TIP3    H150506   1.100   4.813  11.941 -1.3340 -1.9787  0.8897
 9697TIP3    H250507   1.192   4.820  12.060 -0.9296  0.2650  0.4688
 9698TIP3   OH250508   3.798   3.959  14.113 -0.4437  0.1360  0.5746
 9698TIP3    H150509   3.705   3.933  14.109 -0.8918  1.3733  2.3945
 9698TIP3    H250510   3.843   3.881  14.145 -0.9610 -0.2018  0.4869
 9699TIP3   OH250511   6.727   2.777   3.777 -0.3619  0.1237  0.4936
 9699TIP3    H150512   6.665   2.712   3.745  1.1138 -1.0021 -0.1080
 9699TIP3    H250513   6.810   2.730   3.785  1.3796  2.4908 -2.4223
 9700TIP3   OH250514   1.534   4.897   5.405 -0.0594  0.2671 -0.4145
 9700TIP3    H150515   1.509   4.822   5.351 -0.2735 -0.1984  0.3326
 9700TIP3    H250516   1.452   4.928   5.443  0.2120  0.0458  0.3526
 9701TIP3   OH250517   3.133   0.323   0.590  0.0914 -0.2109  0.2065
 9701TIP3    H150518   3.161   0.388   0.525 -1.0114  0.4384  0.3561
 9701TIP3    H250519   3.144   0.239   0.546  0.1160  0.1739 -0.5462
 9702TIP3   OH250520   0.979   4.906  11.847 -0.0989 -0.0125  0.3068
 9702TIP3    H150521   0.948   4.980  11.899 -0.3230  0.8785 -1.0678
 9702TIP3    H250522   0.979   4.938  11.757 -0.5584 -1.8073 -0.3579
 9703TIP3   OH250523   2.067   3.835  12.318 -0.0773 -0.0118 -0.1844
 9703TIP3    H150524   1.991   3.826  12.261  0.2538 -0.9724 -0.4896
 9703TIP3    H250525   2.142   3.813  12.262  0.4087  0.7125  0.1696
 9704TIP3   OH250526   4.020   3.666  11.891  0.0543 -0.0084 -1.2954
 9704TIP3    H150527   3.962   3.591  11.898  1.1158 -0.7809 -0.6341
 9704TIP3    H250528   4.106   3.633  11.918  0.4560  1.5346 -0.6239
 9705TIP3   OH250529   4.658   3.158  11.605  0.1087 -0.1185  0.2123
 9705TIP3    H150530   4.661   3.066  11.634  1.9275 -0.4158 -0.8376
 9705TIP3    H250531   4.654   3.152  11.510 -0.0565  0.8982  0.1601
 9706TIP3   OH250532   3.668   6.378   5.423  0.2276  0.4238  0.4158
 9706TIP3    H150533   3.758   6.406   5.439  0.8121  0.0622 -2.0030
 9706TIP3    H250534   3.676   6.310   5.356 -1.9003  0.9361 -0.3945
 9707TIP3   OH250535   4.167   1.255  15.993 -0.0230 -0.3608 -0.0801
 9707TIP3    H150536   4.233   1.186  15.997 -0.0418 -0.3932 -0.3247
 9707TIP3    H250537   4.094   1.215  15.945 -0.3197 -0.4087  0.4109
 9708TIP3   OH250538   2.812   2.575   3.529 -0.1193  0.2904 -0.0982
 9708TIP3    H150539   2.825   2.489   3.488 -2.3668 -0.1599  0.0889
 9708TIP3    H250540   2.870   2.574   3.606 -0.4856 -1.2489  0.1660
 9709TIP3   OH250541   6.541   3.938   5.514 -0.5137  0.6746  0.1832
 9709TIP3    H150542   6.535   3.906   5.424  2.2583  0.2061  0.1065
 9709TIP3    H250543   6.510   3.864   5.567 -1.7489  0.7992 -0.3401
 9710TIP3   OH250544   5.868   5.817   3.594  0.1696 -0.0771 -0.8389
 9710TIP3    H150545   5.903   5.902   3.566 -0.3311  0.7110  0.8516
 9710TIP3    H250546   5.931   5.753   3.561  0.3156  0.9083 -2.5219
 9711TIP3   OH250547   4.406   2.964   3.271  0.0490 -0.3378 -0.1270
 9711TIP3    H150548   4.324   2.980   3.224 -0.6982  0.1955  1.3371
 9711TIP3    H250549   4.406   2.870   3.288  0.5503 -0.6156 -1.5822
 9712TIP3   OH250550   1.904   4.537   1.385 -0.0783  0.1186  0.1870
 9712TIP3    H150551   1.914   4.616   1.332  2.0076  0.0692  0.4816
 9712TIP3    H250552   1.993   4.509   1.405 -0.7956 -1.6748  1.0511
 9713TIP3   OH250553   4.116   6.324  16.822 -0.2969  0.4760  0.3547
 9713TIP3    H150554   4.149   6.260  16.884  1.6171  1.0098 -0.0714
 9713TIP3    H250555   4.022   6.329  16.839  0.2339  0.7879  3.3587
 9714TIP3   OH250556   0.214   3.427   4.393 -0.2035  0.4194 -0.2970
 9714TIP3    H150557   0.283   3.478   4.350 -0.5289 -0.5151 -1.9702
 9714TIP3    H250558   0.251   3.339   4.400 -0.4981  0.3601  0.5577
 9715TIP3   OH250559   2.381   4.566  13.584  0.0701 -0.0984 -0.3665
 9715TIP3    H150560   2.332   4.600  13.509  0.0078  1.3665  0.3171
 9715TIP3    H250561   2.322   4.581  13.659  0.4655 -0.8004  0.0888
 9716TIP3   OH250562   2.362   0.995   0.311  0.2830 -0.0422 -0.1484
 9716TIP3    H150563   2.316   0.989   0.227 -1.6029 -0.4911  0.8922
 9716TIP3    H250564   2.318   0.932   0.368  1.8028 -0.0360  1.0804
 9717TIP3   OH250565   0.116   1.907   5.192 -0.1949  0.0955 -0.7225
 9717TIP3    H150566   0.049   1.949   5.246  0.5084  1.0422 -0.5700
 9717TIP3    H250567   0.192   1.965   5.198  1.1356 -1.7166  0.2915
 9718TIP3   OH250568   4.262   6.068  15.411 -0.0941 -0.5147  0.1665
 9718TIP3    H150569   4.192   6.132  15.398 -0.0925 -0.1584  1.7918
 9718TIP3    H250570   4.313   6.072  15.330  0.2373  1.9480  0.4530
 9719TIP3   OH250571   3.467   3.748   4.945  0.2558  0.1727 -0.0711
 9719TIP3    H150572   3.412   3.702   4.882 -0.6863 -0.2864  1.0592
 9719TIP3    H250573   3.531   3.796   4.892 -1.8146  1.4737 -1.4562
 9720TIP3   OH250574   6.673   4.531  12.714 -0.0358 -0.2216 -0.0024
 9720TIP3    H150575   6.622   4.480  12.651  0.1152  1.0524 -1.1785
 9720TIP3    H250576   6.764   4.511  12.693  0.0038 -0.3200  0.2609
 9721TIP3   OH250577   1.016   1.445  12.027  0.3566  0.3834 -0.4344
 9721TIP3    H150578   1.046   1.358  12.054  0.8807  0.7932  0.3001
 9721TIP3    H250579   1.095   1.498  12.024 -0.2458  1.4436  1.4367
 9722TIP3   OH250580   2.730   6.104  15.652 -0.0642  0.3817 -0.2735
 9722TIP3    H150581   2.731   6.090  15.557 -2.0128  0.0622 -0.2753
 9722TIP3    H250582   2.821   6.123  15.674  0.4865  0.0943 -2.1497
 9723TIP3   OH250583   5.417   4.453  15.233  0.7295  0.1747 -0.0029
 9723TIP3    H150584   5.406   4.486  15.144  2.4288  2.0688  0.4677
 9723TIP3    H250585   5.458   4.367  15.221 -1.3080 -0.6725 -1.1227
 9724TIP3   OH250586   0.539   4.000  16.165 -0.1437 -0.3852  0.2552
 9724TIP3    H150587   0.506   3.943  16.234 -0.7815  0.5878  0.7645
 9724TIP3    H250588   0.478   3.988  16.092  0.2081 -0.9900  0.0629
 9725TIP3   OH250589   4.838   5.730  17.058 -0.2595  0.3116  0.8244
 9725TIP3    H150590   4.850   5.810  17.006 -0.6795 -0.8638 -1.1492
 9725TIP3    H250591   4.890   5.745  17.137 -0.3436  2.5382  0.4971
 9726TIP3   OH250592   2.744   6.609  11.746 -0.1286  0.6875 -0.4252
 9726TIP3    H150593   2.658   6.636  11.716 -0.5635 -0.4670 -0.2321
 9726TIP3    H250594   2.752   6.518  11.718  0.2636  0.1985  1.2061
 9727TIP3   OH250595   1.668   0.016  13.689 -0.0333  0.4242  0.1568
 9727TIP3    H150596   1.701   0.104  13.670  0.7323 -0.0006 -0.4965
 9727TIP3    H250597   1.697  -0.037  13.615 -0.2715 -0.4368  0.6756
 9728TIP3   OH250598   0.249   6.588   5.292  0.1821 -0.3384  0.0901
 9728TIP3    H150599   0.299   6.524   5.342  0.0414 -0.8634 -0.4389
 9728TIP3    H250600   0.315   6.649   5.260  0.2456  0.1362  1.1048
 9729TIP3   OH250601   2.412   6.478   5.129 -0.3003 -0.1252  0.0052
 9729TIP3    H150602   2.468   6.548   5.162 -0.3195 -0.2560  0.3169
 9729TIP3    H250603   2.344   6.524   5.079 -0.9084  0.1468  1.0797
 9730TIP3   OH250604   1.196   3.469  16.056 -0.2054 -0.1081  0.0654
 9730TIP3    H150605   1.172   3.377  16.073 -1.0721  0.2209  0.6523
 9730TIP3    H250606   1.122   3.519  16.090  0.6984  0.8628  0.6214
 9731TIP3   OH250607   1.558   6.113   3.027 -0.2150  0.5725  0.4916
 9731TIP3    H150608   1.537   6.144   3.116 -1.1199  1.2197  0.0532
 9731TIP3    H250609   1.629   6.171   2.998  0.4695  0.0052  0.9938
 9732TIP3   OH250610   2.941   0.158   2.547  0.4738  0.4727 -0.0367
 9732TIP3    H150611   2.940   0.189   2.456  1.8499  0.9242  0.0925
 9732TIP3    H250612   2.999   0.083   2.546 -0.7513 -0.4977  0.1836
 9733TIP3   OH250613   0.422   1.800  12.754 -0.5465 -0.1615  0.2993
 9733TIP3    H150614   0.349   1.810  12.815 -0.9341 -0.6064 -0.0858
 9733TIP3    H250615   0.447   1.708  12.762 -0.1829 -0.0648  0.2596
 9734TIP3   OH250616   6.494   6.469  12.617  0.2179  0.6796  0.3172
 9734TIP3    H150617   6.583   6.496  12.596  0.0366  1.4250  0.4769
 9734TIP3    H250618   6.457   6.439  12.534  0.6835  0.1669  0.2931
 9735TIP3   OH250619   5.881   6.481  11.390 -0.5577  0.2594 -0.3822
 9735TIP3    H150620   5.953   6.418  11.386 -0.5600  0.2795 -0.7340
 9735TIP3    H250621   5.898   6.542  11.319 -1.0417  0.1362 -0.6060
 9736TIP3   OH250622   2.901   0.088   0.286  0.2917 -0.5929  0.2308
 9736TIP3    H150623   2.894   0.184   0.282 -1.3484 -0.6983  0.3377
 9736TIP3    H250624   2.887   0.059   0.196 -0.1947 -0.7949  0.3732
 9737TIP3   OH250625   2.631   2.283   3.113  0.2866 -0.4159 -0.4050
 9737TIP3    H150626   2.651   2.217   3.181  0.8477 -0.5640 -0.7096
 9737TIP3    H250627   2.549   2.253   3.074 -1.0314  0.6546  1.4381
 9738TIP3   OH250628   4.377   6.739  14.236  0.7837  0.2895 -0.1653
 9738TIP3    H150629   4.314   6.807  14.213  1.6053  1.0543 -0.1427
 9738TIP3    H250630   4.418   6.770  14.317  0.6394 -0.5753  0.2500
 9739TIP3   OH250631   2.479   5.770  11.813 -0.3881  0.6771 -0.0103
 9739TIP3    H150632   2.493   5.818  11.731 -1.8027  0.7012 -0.2514
 9739TIP3    H250633   2.471   5.679  11.786 -0.2347  0.6067  0.1798
 9740TIP3   OH250634   1.377   6.093   1.972 -0.8663  0.5361 -0.4789
 9740TIP3    H150635   1.323   6.059   1.901  0.0896 -1.1686 -0.3979
 9740TIP3    H250636   1.315   6.140   2.028 -1.9950 -0.0254 -1.2355
 9741TIP3   OH250637   4.221   4.610  11.019 -0.1578 -0.0409 -0.4167
 9741TIP3    H150638   4.253   4.611  10.929  0.8143  1.3539 -0.0763
 9741TIP3    H250639   4.245   4.523  11.052 -0.8082 -0.6695 -1.5972
 9742TIP3   OH250640   5.864   5.914   5.096 -0.0648  0.2928  0.3181
 9742TIP3    H150641   5.935   5.861   5.132  0.6589  0.3951 -0.9056
 9742TIP3    H250642   5.836   5.866   5.018 -1.8732 -0.1364  1.2091
 9743TIP3   OH250643   6.184   5.142  14.779 -0.4903  0.5910  0.0237
 9743TIP3    H150644   6.109   5.132  14.838 -2.1420 -2.2279 -2.3780
 9743TIP3    H250645   6.233   5.060  14.789  1.0902  1.5039 -0.0554
 9744TIP3   OH250646   0.081   1.261  12.943 -0.1943 -0.3290  0.8191
 9744TIP3    H150647   0.034   1.331  12.897  0.1257  0.2332  1.3447
 9744TIP3    H250648   0.070   1.282  13.036  1.0506 -0.2297  0.9422
 9745TIP3   OH250649   5.252   3.561  12.484  0.1988 -0.6196  0.3531
 9745TIP3    H150650   5.273   3.607  12.565 -1.5016  2.6976 -0.9651
 9745TIP3    H250651   5.210   3.628  12.429  0.0944 -3.1071 -2.7419
 9746TIP3   OH250652   0.485   2.252   1.033  0.4689 -0.2022  0.7455
 9746TIP3    H150653   0.423   2.263   1.105 -0.4421 -0.5237  0.0308
 9746TIP3    H250654   0.430   2.234   0.957  1.3717  0.8684 -0.1864
 9747TIP3   OH250655   6.333   2.480   2.520  0.1566  0.4954 -0.6355
 9747TIP3    H150656   6.323   2.567   2.482  1.6807 -0.1825 -2.6415
 9747TIP3    H250657   6.386   2.495   2.599 -2.7065  1.8430  1.1407
 9748TIP3   OH250658   0.782   0.052   4.158 -0.1008 -0.3708 -0.6747
 9748TIP3    H150659   0.735   0.132   4.134 -0.8757 -1.1052 -1.6579
 9748TIP3    H250660   0.871   0.067   4.127  0.6168  1.4220  2.0563
 9749TIP3   OH250661   3.949   5.092  15.553  0.2550  0.8352 -0.1734
 9749TIP3    H150662   3.937   5.002  15.582  0.1710  1.1976  0.9239
 9749TIP3    H250663   4.034   5.118  15.589  0.8277  0.8211 -1.4610
 9750TIP3   OH250664   1.595   1.547   2.509  0.2020 -0.3259  0.6583
 9750TIP3    H150665   1.686   1.516   2.512  0.3070  0.0776  2.1826
 9750TIP3    H250666   1.579   1.583   2.596 -1.0686  0.6377  0.0471
 9751TIP3   OH250667   6.327   3.595   5.351 -0.3549  0.2489  0.0517
 9751TIP3    H150668   6.270   3.614   5.425  1.0310  0.0546  1.1727
 9751TIP3    H250669   6.364   3.679   5.326  0.4523  0.0639  0.6267
 9752TIP3   OH250670   2.926   5.144  14.040 -0.0333  0.0315  0.4682
 9752TIP3    H150671   2.908   5.070  13.982  1.6356  0.2704 -0.3788
 9752TIP3    H250672   2.937   5.104  14.127  2.6789 -0.9813 -0.2842
 9753TIP3   OH250673   2.790   0.744   6.221  0.0346  0.2985  0.3394
 9753TIP3    H150674   2.712   0.794   6.245 -0.5559  0.1942 -1.2702
 9753TIP3    H250675   2.863   0.801   6.244 -0.6228  1.8715 -1.3496
 9754TIP3   OH250676   2.973   2.144   3.843  0.1950 -0.3598 -0.3949
 9754TIP3    H150677   2.894   2.107   3.804 -0.7525  0.4649  0.7138
 9754TIP3    H250678   2.963   2.127   3.937 -0.4558  3.0388  0.1909
 9755TIP3   OH250679   5.360   0.727   3.064 -0.2156  0.1294  0.4883
 9755TIP3    H150680   5.324   0.695   3.147  0.9992 -0.4514  0.7999
 9755TIP3    H250681   5.401   0.811   3.087  1.7808 -0.9166  0.8895
 9756TIP3   OH250682   1.419   6.463  11.718  0.5300 -0.0009  0.5763
 9756TIP3    H150683   1.383   6.442  11.805  0.0040  0.0469  0.3691
 9756TIP3    H250684   1.462   6.548  11.729 -1.0747  0.8466  0.3567
 9757TIP3   OH250685   1.307   3.627   3.314  0.1043  0.4977  0.0058
 9757TIP3    H150686   1.302   3.591   3.225  0.0140 -1.3576  0.7319
 9757TIP3    H250687   1.386   3.680   3.315  0.0113  0.6645 -1.2303
 9758TIP3   OH250688   3.016   3.738  15.845 -0.4869 -0.7267 -0.3892
 9758TIP3    H150689   3.088   3.677  15.831 -1.0166 -1.4810  0.1531
 9758TIP3    H250690   3.026   3.767  15.936  0.0857  0.4292 -0.8038
 9759TIP3   OH250691   5.983   6.184  15.017 -0.6547  0.5469 -0.2841
 9759TIP3    H150692   5.974   6.113  14.954  0.4123  1.7589 -1.8403
 9759TIP3    H250693   6.055   6.157  15.074 -1.3409 -0.3610  0.1514
 9760TIP3   OH250694   2.271   3.614   4.023  0.4024 -0.1185  0.2003
 9760TIP3    H150695   2.267   3.650   3.935  1.5177  0.1828  0.2725
 9760TIP3    H250696   2.187   3.638   4.062 -0.8479 -1.7905 -1.3545
 9761TIP3   OH250697   2.523   1.534  15.856 -0.0366  0.1929  0.2722
 9761TIP3    H150698   2.557   1.462  15.804  1.3347  0.8831  0.2071
 9761TIP3    H250699   2.445   1.498  15.899  0.4459 -1.2098 -0.0201
 9762TIP3   OH250700   6.656   0.820   1.654 -0.0935 -0.1804  0.0729
 9762TIP3    H150701   6.605   0.749   1.616 -0.7443  0.1478  0.3259
 9762TIP3    H250702   6.710   0.851   1.582 -0.1092 -0.6573 -0.1473
 9763TIP3   OH250703   5.394   4.670  12.926  0.0401 -0.1276 -0.2013
 9763TIP3    H150704   5.427   4.595  12.975  1.4338  0.1054 -0.7715
 9763TIP3    H250705   5.470   4.727  12.913 -0.3962  0.0525 -2.1929
 9764TIP3   OH250706   0.873   3.972   6.392 -0.1769  0.4015  0.3431
 9764TIP3    H150707   0.791   4.006   6.429 -1.0862 -0.9068 -0.4153
 9764TIP3    H250708   0.901   3.904   6.454 -0.4768 -0.1900 -0.1586
 9765TIP3   OH250709   2.022   3.804  14.689 -0.8460 -0.2257  0.5374
 9765TIP3    H150710   1.955   3.817  14.622 -0.0424 -0.0578 -0.2366
 9765TIP3    H250711   2.093   3.864  14.665 -0.1214 -0.9059  0.9557
 9766TIP3   OH250712   0.227   4.483   2.041  0.0245 -0.4353  0.6215
 9766TIP3    H150713   0.263   4.402   2.006 -1.8689 -1.0764  0.0803
 9766TIP3    H250714   0.293   4.514   2.103  3.1242  0.2982 -2.8336
 9767TIP3   OH250715   0.454   1.912  16.357  0.2378 -0.1652 -0.1365
 9767TIP3    H150716   0.400   1.945  16.429  0.9514 -1.3345  0.9607
 9767TIP3    H250717   0.518   1.855  16.399  0.9935 -0.4696 -1.6536
 9768TIP3   OH250718   3.361   0.641  15.138 -0.2579  0.3017 -0.3060
 9768TIP3    H150719   3.314   0.672  15.215 -0.0397 -0.5749  0.1866
 9768TIP3    H250720   3.311   0.675  15.064 -0.5910  0.9680  0.2201
 9769TIP3   OH250721   4.362   3.027  14.041 -0.2924  0.2378 -0.0158
 9769TIP3    H150722   4.370   2.988  14.128  2.5672  1.2645  0.2299
 9769TIP3    H250723   4.358   2.952  13.982  1.3064 -0.4976  0.7667
 9770TIP3   OH250724   6.402   0.972   5.015 -0.6341  0.0830  0.7963
 9770TIP3    H150725   6.405   0.918   5.094  4.6056 -0.7261  0.2206
 9770TIP3    H250726   6.457   1.047   5.035 -2.1216  1.6936 -0.9218
 9771TIP3   OH250727   3.462   4.667  16.793 -0.0375 -0.6728 -0.4896
 9771TIP3    H150728   3.399   4.716  16.740  0.0257 -1.5124 -1.3549
 9771TIP3    H250729   3.445   4.696  16.882 -0.8632 -0.0278 -0.8425
 9772TIP3   OH250730   1.001   0.190   0.474 -0.8368  0.2260  0.3770
 9772TIP3    H150731   0.994   0.171   0.568  0.7715  1.2687  0.7388
 9772TIP3    H250732   1.052   0.271   0.470 -0.6972  0.0693 -1.4053
 9773TIP3   OH250733   3.429   0.851   3.844 -0.3034  0.5690  0.1335
 9773TIP3    H150734   3.462   0.921   3.901 -1.6000  0.3683  1.1656
 9773TIP3    H250735   3.334   0.866   3.841 -0.2207  0.8571 -2.3854
 9774TIP3   OH250736   6.697   0.572   2.216 -0.4021 -0.3234 -0.2647
 9774TIP3    H150737   6.641   0.495   2.225 -0.8947  0.2496  1.9437
 9774TIP3    H250738   6.781   0.545   2.252 -0.3615 -0.0619 -0.1623
 9775TIP3   OH250739   3.886   3.739   4.340 -0.4930 -0.1795 -0.3510
 9775TIP3    H150740   3.914   3.685   4.413 -1.5604  1.3794  1.2459
 9775TIP3    H250741   3.851   3.677   4.276  0.2626 -1.5357  0.5286
 9776TIP3   OH250742   6.505   5.500  10.866 -0.4783  0.3960  0.7566
 9776TIP3    H150743   6.543   5.412  10.861 -0.0645  0.5087  1.7829
 9776TIP3    H250744   6.459   5.511  10.783 -2.6765 -1.7683  1.6326
 9777TIP3   OH250745   6.654   0.069  16.198  0.2352 -0.7820  0.0576
 9777TIP3    H150746   6.665  -0.019  16.161  1.0111 -0.1161 -1.3474
 9777TIP3    H250747   6.713   0.124  16.147  0.5237  0.3837  1.6043
 9778TIP3   OH250748   4.286   5.358  11.293 -0.2845 -0.6361  0.7659
 9778TIP3    H150749   4.243   5.303  11.359  0.2288 -0.3865  1.3089
 9778TIP3    H250750   4.214   5.389  11.238 -0.5269 -2.2147  0.1802
 9779TIP3   OH250751   2.519   6.711  10.777  0.1831  0.1669  0.3305
 9779TIP3    H150752   2.565   6.697  10.694  1.7785 -0.2126  1.2385
 9779TIP3    H250753   2.430   6.734  10.752  0.2040 -1.5190 -1.4607
 9780TIP3   OH250754   3.927   1.996   0.649 -0.1726 -0.1943 -0.0385
 9780TIP3    H150755   4.021   2.012   0.647 -0.2988  0.4284 -1.4327
 9780TIP3    H250756   3.910   1.938   0.575 -0.7962 -0.7922  0.5685
 9781TIP3   OH250757   1.048   5.241  12.184 -0.1099 -0.3614  0.1773
 9781TIP3    H150758   0.970   5.227  12.130  0.2162 -0.1772 -0.3564
 9781TIP3    H250759   1.016   5.240  12.274 -0.7242 -0.3178 -0.0349
 9782TIP3   OH250760   1.771   0.784  12.089  0.0939  0.2088  0.0981
 9782TIP3    H150761   1.707   0.817  12.151 -0.4192 -0.1872 -0.2149
 9782TIP3    H250762   1.855   0.791  12.135 -0.2203  0.3616  0.6544
 9783TIP3   OH250763   5.299   4.781  11.724 -0.1821  0.2436  0.4084
 9783TIP3    H150764   5.370   4.720  11.705  0.3494  0.2681  2.2295
 9783TIP3    H250765   5.221   4.725  11.731  0.1024 -0.1065  0.8867
 9784TIP3   OH250766   4.871   3.331  14.787  0.2130  0.2192  0.2153
 9784TIP3    H150767   4.815   3.253  14.785  0.7827 -0.1761 -0.1494
 9784TIP3    H250768   4.957   3.299  14.812  0.1581  0.9139  1.3401
 9785TIP3   OH250769   1.997   5.258   3.377 -0.1875 -0.4254  0.0388
 9785TIP3    H150770   2.075   5.275   3.429  0.4392 -2.6016 -0.1716
 9785TIP3    H250771   1.935   5.218   3.439 -0.7727  0.3471 -0.0383
 9786TIP3   OH250772   3.049   5.904  11.820 -0.1499  0.0216 -0.2296
 9786TIP3    H150773   3.055   5.955  11.901  1.4431  1.5343 -1.2625
 9786TIP3    H250774   3.025   5.968  11.753  3.1903 -0.2882 -1.7906
 9787TIP3   OH250775   1.869   1.156   1.482  0.0609 -0.0028 -0.4275
 9787TIP3    H150776   1.834   1.237   1.445 -0.2507 -0.4319 -1.0874
 9787TIP3    H250777   1.936   1.128   1.420 -2.0467 -1.9492 -1.9234
 9788TIP3   OH250778   1.810   4.642  16.264 -0.2499  0.6504 -0.2983
 9788TIP3    H150779   1.808   4.648  16.169 -1.3991  0.5703 -0.2844
 9788TIP3    H250780   1.791   4.550  16.282 -0.6947  0.8007  0.0180
 9789TIP3   OH250781   3.796   0.032  15.199 -0.0753 -0.0948  0.0243
 9789TIP3    H150782   3.848   0.072  15.130 -2.3548  0.8305 -1.2037
 9789TIP3    H250783   3.795  -0.061  15.177  0.7771 -0.0721 -0.1274
 9790TIP3   OH250784   4.144   0.088  12.275 -0.2168  0.1021  0.1511
 9790TIP3    H150785   4.118   0.136  12.196  1.8471  1.7761  0.4667
 9790TIP3    H250786   4.236   0.065  12.260 -0.6806 -2.2841  0.7578
 9791TIP3   OH250787   1.659   1.018  14.506 -0.1805 -0.5026 -0.5488
 9791TIP3    H150788   1.720   0.963  14.555 -1.1120 -1.0140  0.0514
 9791TIP3    H250789   1.689   1.108  14.522  0.9772 -0.7953 -1.0385
 9792TIP3   OH250790   0.914   6.225  13.548  0.5809 -0.6144  0.2280
 9792TIP3    H150791   0.934   6.133  13.533  1.4642 -0.6744  1.6364
 9792TIP3    H250792   0.913   6.234  13.643 -1.7249  0.3678  0.1379
 9793TIP3   OH250793   3.758   2.796  14.244 -0.6828 -0.4739 -0.6047
 9793TIP3    H150794   3.749   2.701  14.234  1.6761 -0.7858 -0.1426
 9793TIP3    H250795   3.716   2.832  14.166 -0.6222 -1.9471 -1.3473
 9794TIP3   OH250796   2.259   0.301  17.024 -0.0417 -0.4035  0.0419
 9794TIP3    H150797   2.276   0.378  17.078 -2.5306 -2.0987  3.4972
 9794TIP3    H250798   2.171   0.273  17.050  0.2330 -3.5594 -2.1728
 9795TIP3   OH250799   5.246   4.060  16.847  0.0113 -0.0580 -0.3630
 9795TIP3    H150800   5.157   4.027  16.862  0.8602 -2.5574 -0.5636
 9795TIP3    H250801   5.298   4.017  16.915  1.3159  0.2177 -1.1849
 9796TIP3   OH250802   2.671   3.632  12.805 -0.5179 -0.6369  0.6771
 9796TIP3    H150803   2.719   3.714  12.813 -2.0992  0.4099 -0.3497
 9796TIP3    H250804   2.602   3.639  12.871 -0.5197 -1.2482  0.7433
 9797TIP3   OH250805   2.974   2.287  12.645 -0.5570  0.1873 -1.0179
 9797TIP3    H150806   3.047   2.347  12.655 -2.0705  2.2277 -1.6768
 9797TIP3    H250807   2.902   2.329  12.692 -1.5301 -1.3355 -1.1168
 9798TIP3   OH250808   4.794   3.538  16.323 -0.6036 -0.1782 -0.3831
 9798TIP3    H150809   4.709   3.499  16.302 -0.7137  0.3865 -1.0233
 9798TIP3    H250810   4.779   3.584  16.406 -0.2332 -2.2170  0.8453
 9799TIP3   OH250811   4.968   4.857  17.231 -0.0948 -0.0836  0.5582
 9799TIP3    H150812   4.874   4.862  17.247  0.1862  0.5980  2.0965
 9799TIP3    H250813   4.997   4.948  17.223  0.7490 -0.1726  2.2030
 9800TIP3   OH250814   0.621   4.882  16.495 -0.0862  0.0315 -0.3631
 9800TIP3    H150815   0.556   4.882  16.425 -1.1639 -0.1033  0.6252
 9800TIP3    H250816   0.664   4.967  16.487 -0.7733  0.3583 -0.6605
 9801TIP3   OH250817   5.391   0.277  12.338 -0.0253 -0.5463  0.3225
 9801TIP3    H150818   5.405   0.189  12.302 -0.4547 -0.7463  0.6348
 9801TIP3    H250819   5.442   0.277  12.420 -0.0190 -0.4997  0.3188
 9802TIP3   OH250820   6.290   2.368  11.158 -0.1351  0.2118 -0.1958
 9802TIP3    H150821   6.208   2.337  11.197  0.6038  0.5245  1.7000
 9802TIP3    H250822   6.266   2.399  11.071 -1.7367 -1.2170 -0.2998
 9803TIP3   OH250823   2.752   6.481  16.089 -0.3544  0.4166 -0.0802
 9803TIP3    H150824   2.673   6.462  16.140 -0.3209  0.3068 -0.0673
 9803TIP3    H250825   2.816   6.510  16.154  0.3841 -1.8524  0.2693
 9804TIP3   OH250826   2.069   1.690   2.236 -0.6759  0.0607 -0.2602
 9804TIP3    H150827   2.002   1.736   2.285  0.4892  0.4144  1.0277
 9804TIP3    H250828   2.093   1.750   2.165 -2.5260 -0.5529 -1.4500
 9805TIP3   OH250829   1.692   5.779   5.093 -0.4657 -0.0495 -0.6467
 9805TIP3    H150830   1.758   5.718   5.060  0.2533 -0.4422  1.4446
 9805TIP3    H250831   1.740   5.861   5.106 -1.0533  0.5017 -1.8197
 9806TIP3   OH250832   3.216   2.846  15.239 -0.3612 -0.0312  0.2772
 9806TIP3    H150833   3.175   2.932  15.254 -0.8274 -0.2391  0.1870
 9806TIP3    H250834   3.287   2.864  15.178 -0.2231  0.3553  0.5472
 9807TIP3   OH250835   2.214   1.542  16.430 -0.1689  0.1856  0.1581
 9807TIP3    H150836   2.224   1.576  16.519  2.3219  2.5366 -0.9509
 9807TIP3    H250837   2.200   1.620  16.376 -0.5206 -1.1142 -1.6799
 9808TIP3   OH250838   3.330   0.664   1.170 -0.4972  0.6627  0.3851
 9808TIP3    H150839   3.280   0.746   1.163 -2.0909 -0.0926  2.5317
 9808TIP3    H250840   3.395   0.681   1.239 -0.3338  0.3475  0.3114
 9809TIP3   OH250841   0.059   1.972   0.096  0.1304 -0.2312  0.5778
 9809TIP3    H150842  -0.016   1.912   0.107  0.5902 -0.8387  0.4552
 9809TIP3    H250843   0.095   1.980   0.184 -0.4103  0.5087  0.7376
 9810TIP3   OH250844   0.735   5.278  16.142 -0.0064 -0.0456  0.4371
 9810TIP3    H150845   0.732   5.363  16.097  0.7659 -0.0002  0.4730
 9810TIP3    H250846   0.828   5.258  16.149 -0.1837 -0.8013  0.6166
 9811TIP3   OH250847   4.556   3.014   5.285  0.0702 -0.3645 -0.1293
 9811TIP3    H150848   4.594   3.026   5.198  0.9769 -0.4952  0.2471
 9811TIP3    H250849   4.623   3.046   5.345 -0.5800 -0.2154  0.5249
 9812TIP3   OH250850   2.388   3.610  12.332  0.2702 -0.2595  0.0831
 9812TIP3    H150851   2.344   3.538  12.288 -1.2214  1.3149 -1.0854
 9812TIP3    H250852   2.479   3.605  12.304  0.2363 -1.8246  0.2241
 9813TIP3   OH250853   0.467   4.028  16.939 -0.3322 -0.0189 -0.0055
 9813TIP3    H150854   0.429   3.965  16.878  0.7912 -1.2185  0.5083
 9813TIP3    H250855   0.556   4.043  16.906 -0.8424  1.9465 -0.5865
 9814TIP3   OH250856   0.427   2.189  14.497 -0.4846  0.1307 -0.3615
 9814TIP3    H150857   0.502   2.187  14.556 -1.0227 -0.6058  0.3152
 9814TIP3    H250858   0.463   2.166  14.411  0.0214 -0.4912  0.0095
 9815TIP3   OH250859   5.838   6.406   0.121  0.0797  0.0932  0.1547
 9815TIP3    H150860   5.758   6.446   0.087  0.0930 -0.1359 -0.1513
 9815TIP3    H250861   5.808   6.348   0.190 -0.2227 -1.4723 -1.2606
 9816TIP3   OH250862   2.089   0.267   4.591 -0.0027  0.6801 -0.2071
 9816TIP3    H150863   2.154   0.251   4.660 -0.2128  0.1964 -0.1152
 9816TIP3    H250864   2.008   0.285   4.637  0.1001  1.4511 -0.3211
 9817TIP3   OH250865   0.804   5.766   3.284 -0.6673  0.0669  0.4045
 9817TIP3    H150866   0.819   5.702   3.215 -1.9586  0.0297  0.1468
 9817TIP3    H250867   0.815   5.716   3.366  0.9553  0.1364  0.2432
 9818TIP3   OH250868   3.994   4.261   2.537  0.7126  0.2095  0.1368
 9818TIP3    H150869   4.067   4.284   2.594  0.0289  1.5950  0.4511
 9818TIP3    H250870   3.922   4.239   2.596 -0.4095  2.9473 -0.1518
 9819TIP3   OH250871   1.507   2.776   1.701 -0.3546  0.3823  0.0460
 9819TIP3    H150872   1.540   2.711   1.763 -0.3315  0.2770 -0.0772
 9819TIP3    H250873   1.527   2.860   1.743  0.5416  0.3330 -0.2581
 9820TIP3   OH250874   2.711   2.301   2.387  0.5441  0.1427  0.5262
 9820TIP3    H150875   2.649   2.230   2.369  1.7655 -1.4616  2.4590
 9820TIP3    H250876   2.659   2.368   2.432 -0.6064  0.5159 -1.2860
 9821TIP3   OH250877   6.718   1.725  11.854  0.9382 -0.1510 -0.0747
 9821TIP3    H150878   6.725   1.713  11.948  3.7442 -0.3369 -0.2762
 9821TIP3    H250879   6.715   1.637  11.818 -2.8386 -0.1265 -0.0632
 9822TIP3   OH250880   5.873   5.244  16.975 -0.1379  0.1565  0.6284
 9822TIP3    H150881   5.893   5.323  16.925 -1.9953  0.7145  0.7377
 9822TIP3    H250882   5.789   5.262  17.017 -0.8801 -2.0976  0.1736
 9823TIP3   OH250883   0.001   3.222   6.058 -0.2343 -0.3706 -0.4856
 9823TIP3    H150884   0.000   3.184   6.146  0.1624  0.4392 -0.1323
 9823TIP3    H250885  -0.071   3.285   6.058  0.0512 -0.0477 -0.6066
 9824TIP3   OH250886   4.745   1.436   4.242  0.1793  0.1818  0.2205
 9824TIP3    H150887   4.817   1.496   4.263  0.5634  0.1281 -0.9511
 9824TIP3    H250888   4.679   1.456   4.308  1.4494 -0.1065  1.6049
 9825TIP3   OH250889   4.056   3.498  16.841  0.6691  0.6634 -0.4009
 9825TIP3    H150890   4.001   3.548  16.902 -0.1949  0.9322 -1.3887
 9825TIP3    H250891   4.130   3.470  16.894  0.6068  2.0443  0.4515
 9826TIP3   OH250892   3.890   2.242   3.984  0.0085  0.1247 -0.4108
 9826TIP3    H150893   3.798   2.263   4.000 -0.0430 -1.0810  0.9144
 9826TIP3    H250894   3.887   2.161   3.933  0.3632 -0.4262  0.4489
 9827TIP3   OH250895   4.586   5.831   1.497 -0.0891  0.4126  0.0904
 9827TIP3    H150896   4.512   5.876   1.538  0.1154 -1.3027  2.4908
 9827TIP3    H250897   4.547   5.756   1.452  0.1257 -0.4680  1.3208
 9828TIP3   OH250898   5.288   5.432   4.955 -0.0134  0.3760 -0.2920
 9828TIP3    H150899   5.321   5.512   4.997 -1.5322  1.5638 -1.2971
 9828TIP3    H250900   5.254   5.379   5.026 -0.1840  1.2048  0.2503
 9829TIP3   OH250901   4.216   2.185  12.254  0.7956  0.1943  0.5194
 9829TIP3    H150902   4.160   2.108  12.247 -0.1487  0.7932  1.4805
 9829TIP3    H250903   4.297   2.160  12.208  0.3240 -1.1979  0.4386
 9830TIP3   OH250904   1.009   1.049   0.683 -0.8061 -0.2086 -0.0147
 9830TIP3    H150905   1.094   1.029   0.722 -0.4129  0.1177 -0.6956
 9830TIP3    H250906   0.986   1.134   0.720  0.9743  1.5543 -2.7346
 9831TIP3   OH250907   2.670   4.260   5.097  0.4682 -0.3622 -0.0973
 9831TIP3    H150908   2.702   4.289   5.182  0.7156 -0.3762 -0.1847
 9831TIP3    H250909   2.728   4.187   5.074 -0.0329 -0.8019  0.0384
 9832TIP3   OH250910   0.397   6.070   5.321 -0.6026 -0.3562  0.2002
 9832TIP3    H150911   0.334   5.999   5.305 -2.3497  1.6036 -1.8474
 9832TIP3    H250912   0.372   6.105   5.406 -1.2065 -0.6898  0.1637
 9833TIP3   OH250913   4.702   5.267  12.419  0.4143 -0.2218  0.5872
 9833TIP3    H150914   4.681   5.198  12.356 -0.2992 -0.4949  1.1206
 9833TIP3    H250915   4.632   5.331  12.411  0.2578 -0.3121  1.1794
 9834TIP3   OH250916   0.435   1.554  15.215 -0.4043  0.1627 -0.0515
 9834TIP3    H150917   0.522   1.533  15.180  0.2649  1.9748  0.5152
 9834TIP3    H250918   0.416   1.482  15.275 -0.2462 -1.3912 -1.8066
 9835TIP3   OH250919   4.281   5.371   2.568 -0.0979  0.4308  0.3766
 9835TIP3    H150920   4.249   5.372   2.478 -0.7944 -1.9752  0.5703
 9835TIP3    H250921   4.226   5.435   2.613 -0.8782  0.4135 -0.5341
 9836TIP3   OH250922   5.584   6.069   3.391 -1.2404 -0.2496  0.0803
 9836TIP3    H150923   5.622   6.128   3.326 -0.5516 -1.8382 -0.9848
 9836TIP3    H250924   5.595   5.981   3.354  0.6327 -1.3404  3.0456
 9837TIP3   OH250925   2.766   1.559   2.388 -0.2509 -0.1126  0.2009
 9837TIP3    H150926   2.745   1.527   2.475  0.7748 -1.3790  0.0101
 9837TIP3    H250927   2.818   1.488   2.349  1.8485  1.6857 -0.3585
 9838TIP3   OH250928   6.043   0.075  12.634  0.0294 -0.1746 -1.0032
 9838TIP3    H150929   5.971   0.015  12.617 -0.1353 -0.2621 -0.0466
 9838TIP3    H250930   6.020   0.117  12.717  0.8840  0.0726 -0.8825
 9839TIP3   OH250931   5.746   5.893  15.774  0.4464  0.7288 -0.2966
 9839TIP3    H150932   5.732   5.803  15.745  0.2474  1.0366 -1.1971
 9839TIP3    H250933   5.774   5.939  15.694  1.5478  1.2361  0.3780
 9840TIP3   OH250934   1.714   0.784   3.194 -0.9146  0.6303  0.0584
 9840TIP3    H150935   1.675   0.866   3.164 -0.8043  0.5982 -0.1762
 9840TIP3    H250936   1.741   0.801   3.284 -1.3094  0.7069  0.1644
 9841TIP3   OH250937   1.678   3.570   0.460 -0.2611 -0.2091  0.0117
 9841TIP3    H150938   1.627   3.642   0.423  0.5454  0.1432 -0.4134
 9841TIP3    H250939   1.676   3.586   0.555 -1.1576 -0.3502  0.0256
 9842TIP3   OH250940   1.303   2.701  15.975  0.4711  0.5656 -0.3955
 9842TIP3    H150941   1.272   2.693  15.885 -0.5007  0.6938 -0.0742
 9842TIP3    H250942   1.226   2.727  16.025  0.3696 -2.1116  0.9322
 9843TIP3   OH250943   0.805   1.624  14.071 -0.6875 -0.6707 -0.6003
 9843TIP3    H150944   0.764   1.663  14.148 -1.0460 -1.0305 -0.6058
 9843TIP3    H250945   0.751   1.653  13.998 -0.2865 -0.2445 -0.7309
 9844TIP3   OH250946   1.414   3.846  12.037 -0.1128  0.0871  0.8044
 9844TIP3    H150947   1.429   3.801  11.954 -0.1593  1.7401 -0.1355
 9844TIP3    H250948   1.459   3.930  12.027  1.7020 -0.5155  3.2623
 9845TIP3   OH250949   6.306   0.268   4.308  0.8085 -0.0358  0.1917
 9845TIP3    H150950   6.354   0.240   4.230 -0.1004  1.2139 -0.8503
 9845TIP3    H250951   6.230   0.210   4.311  0.2588  0.6296 -0.5117
 9846TIP3   OH250952   5.453   1.387  12.121  0.1665  0.3854  0.2443
 9846TIP3    H150953   5.449   1.373  12.026  1.4921 -1.4686  0.4401
 9846TIP3    H250954   5.383   1.331  12.155 -0.4298  1.1920  0.3683
 9847TIP3   OH250955   1.156   3.063  10.644 -0.0116  0.0672  0.2439
 9847TIP3    H150956   1.095   3.034  10.575  0.1290  1.2760 -0.3875
 9847TIP3    H250957   1.195   2.981  10.677 -0.8227 -0.5950 -0.4109
 9848TIP3   OH250958   1.401   5.557  13.869 -0.1225  0.2472 -0.7169
 9848TIP3    H150959   1.492   5.540  13.845 -0.0661  0.4797 -0.6761
 9848TIP3    H250960   1.365   5.603  13.794  0.2465  1.5900 -0.0903
 9849TIP3   OH250961   4.634   2.852  16.614  0.1270 -0.2669  0.1379
 9849TIP3    H150962   4.695   2.874  16.544 -0.8832 -3.1545 -1.7630
 9849TIP3    H250963   4.659   2.763  16.640 -0.4895  0.1912  2.4427
 9850TIP3   OH250964   0.960   5.326  14.737 -0.4948  0.3056  0.0088
 9850TIP3    H150965   0.976   5.286  14.823  1.5643 -0.3170 -0.6445
 9850TIP3    H250966   0.888   5.276  14.700  0.9018 -1.7026 -0.0578
 9851TIP3   OH250967   1.049   0.080  10.794  0.0917 -0.6388 -0.1802
 9851TIP3    H150968   1.031   0.116  10.881  0.7402 -0.7813  0.0157
 9851TIP3    H250969   1.124   0.022  10.807 -0.1131 -1.0298 -0.7468
 9852TIP3   OH250970   5.334   6.260   4.233 -0.6371  0.0380 -0.2585
 9852TIP3    H150971   5.370   6.291   4.150 -2.0828  0.4217 -0.7608
 9852TIP3    H250972   5.243   6.289   4.231 -1.2090 -1.6698  0.5856
 9853TIP3   OH250973   2.601   6.763   5.917  0.1862  0.2456  0.7275
 9853TIP3    H150974   2.564   6.695   5.973  0.2745  1.8698  2.8438
 9853TIP3    H250975   2.660   6.812   5.975  0.6261  1.7069 -0.9078
 9854TIP3   OH250976   1.339   4.980  15.888  0.3927 -0.2654 -0.1956
 9854TIP3    H150977   1.400   4.921  15.934  0.5775  0.5086  0.5560
 9854TIP3    H250978   1.395   5.031  15.830  0.0372 -2.0124 -2.1510
 9855TIP3   OH250979   6.764   3.897   1.754  0.1555 -0.1556 -0.5576
 9855TIP3    H150980   6.837   3.866   1.807 -0.1013 -1.1093 -0.7468
 9855TIP3    H250981   6.692   3.838   1.776  0.2749 -1.1044 -2.5770
 9856TIP3   OH250982   5.400   4.162  15.071 -0.1155  0.2831 -0.3324
 9856TIP3    H150983   5.424   4.247  15.032 -0.3347  1.3553  1.7873
 9856TIP3    H250984   5.480   4.111  15.067  0.8011  1.5879  0.9032
 9857TIP3   OH250985   1.887   4.413  14.109  0.3938  0.7301 -0.7046
 9857TIP3    H150986   1.839   4.461  14.041  0.4662  0.8080 -0.6999
 9857TIP3    H250987   1.850   4.324  14.106 -0.6825  1.1412  0.2017
 9858TIP3   OH250988   4.888   3.819   3.734  0.0601  0.6877 -0.5881
 9858TIP3    H150989   4.874   3.911   3.712  0.2587  1.0350  0.6896
 9858TIP3    H250990   4.844   3.807   3.818  0.3020 -0.3035 -0.5956
 9859TIP3   OH250991   1.252   5.232  14.919  0.2005  0.3098  0.4311
 9859TIP3    H150992   1.337   5.189  14.924 -0.7286 -1.4743  1.4786
 9859TIP3    H250993   1.197   5.183  14.980 -2.2302 -0.0380 -1.9630
 9860TIP3   OH250994   3.176   3.095  10.599  0.0397  0.2737 -0.2193
 9860TIP3    H150995   3.252   3.133  10.554 -0.5961  1.8017 -0.0217
 9860TIP3    H250996   3.151   3.161  10.664 -1.0287 -0.5234  0.1929
 9861TIP3   OH250997   2.914   4.290   5.725  0.2979  0.1177  0.2475
 9861TIP3    H150998   2.928   4.197   5.744  2.5336  0.6010  1.1657
 9861TIP3    H250999   2.824   4.295   5.694  0.3316 -2.4529 -0.4048
 9862TIP3   OH251000   1.282   6.509   6.004 -0.2195 -0.1606 -0.3192
 9862TIP3    H151001   1.243   6.565   6.071 -0.7969  0.9165 -1.5136
 9862TIP3    H251002   1.219   6.438   5.993  0.0956 -0.5822  0.5957
 9863TIP3   OH251003   4.359   2.416   6.145 -0.2599  0.3875 -0.0864
 9863TIP3    H151004   4.342   2.501   6.186  0.8994 -0.3174  1.9149
 9863TIP3    H251005   4.278   2.368   6.157 -0.5212  0.7995 -0.1712
 9864TIP3   OH251006   3.216   0.210   4.895  0.1263 -0.8187  0.2029
 9864TIP3    H151007   3.125   0.237   4.909 -0.4761 -3.0266  0.7234
 9864TIP3    H251008   3.267   0.273   4.947 -1.1770 -0.2298  0.8113
 9865TIP3   OH251009   3.715   2.942   1.545 -0.6056  0.3753  0.5263
 9865TIP3    H151010   3.763   2.976   1.470  0.0949  1.0932  1.2854
 9865TIP3    H251011   3.687   3.020   1.593 -0.4253 -0.0822  1.3970
 9866TIP3   OH251012   0.783   4.959   2.564 -0.2598  0.2327  0.0989
 9866TIP3    H151013   0.763   4.895   2.632  1.4972 -0.2733  0.1702
 9866TIP3    H251014   0.786   4.907   2.483 -0.3294  0.4838 -0.0630
 9867TIP3   OH251015   4.210   1.723   2.800 -0.2017  0.3254  0.3581
 9867TIP3    H151016   4.270   1.722   2.874  2.5335  1.0796 -1.7916
 9867TIP3    H251017   4.201   1.815   2.776 -1.6263  0.1544  0.1572
 9868TIP3   OH251018   2.596   0.013  11.113  0.9936 -0.0965  0.8188
 9868TIP3    H151019   2.507   0.029  11.080  0.9577 -1.6839  0.0836
 9868TIP3    H251020   2.582  -0.018  11.203  0.5130 -3.9147 -0.4885
 9869TIP3   OH251021   1.841   6.735  12.391 -0.3224 -0.1752 -0.2243
 9869TIP3    H151022   1.788   6.659  12.367  0.4105 -0.8030  0.1197
 9869TIP3    H251023   1.781   6.791  12.440  0.3290 -2.7385  3.7049
 9870TIP3   OH251024   5.508   3.186   4.682  0.2079  0.9667 -0.1063
 9870TIP3    H151025   5.543   3.126   4.616  0.3305  0.4579  0.4147
 9870TIP3    H251026   5.574   3.185   4.752 -0.8202  0.0402  0.8629
 9871TIP3   OH251027   2.668   3.345   2.433 -0.3933 -0.1492  0.5397
 9871TIP3    H151028   2.709   3.305   2.509 -1.0478 -0.0197  0.9680
 9871TIP3    H251029   2.598   3.399   2.469 -1.2866 -0.7938 -0.2093
 9872TIP3   OH251030   4.050   0.660  10.955 -0.1982  0.2305 -0.0803
 9872TIP3    H151031   4.058   0.634  11.047 -0.6027 -0.7296 -0.3110
 9872TIP3    H251032   4.133   0.632  10.916  1.0248  2.8440  0.4904
 9873TIP3   OH251033   0.539   6.269   1.883 -0.1472 -0.0455  0.1916
 9873TIP3    H151034   0.532   6.364   1.888 -0.3767 -0.1709  2.3183
 9873TIP3    H251035   0.520   6.249   1.791 -0.0142  1.9576 -0.2899
 9874TIP3   OH251036   4.569   1.108   4.494 -0.1204 -0.1020  0.2315
 9874TIP3    H151037   4.647   1.099   4.440 -1.3059 -0.0909 -1.5498
 9874TIP3    H251038   4.558   1.022   4.535 -0.4448 -0.8152 -1.3248
 9875TIP3   OH251039   2.443   0.201   5.414 -0.0542 -0.1299 -0.3371
 9875TIP3    H151040   2.454   0.188   5.508  1.2501 -1.0297 -0.5935
 9875TIP3    H251041   2.488   0.126   5.374  0.0648  0.6403 -1.6962
 9876TIP3   OH251042   1.336   6.600   5.358 -0.0062 -0.2872 -0.2405
 9876TIP3    H151043   1.378   6.676   5.319 -0.0655 -0.3572 -0.4403
 9876TIP3    H251044   1.365   6.601   5.449  2.5114 -1.8071 -0.9851
 9877TIP3   OH251045   3.903   5.363  14.150 -0.0291  0.1352 -0.6146
 9877TIP3    H151046   3.919   5.369  14.056  0.3997  1.0391 -0.4923
 9877TIP3    H251047   3.901   5.454  14.180  4.4757 -0.1540  0.9769
 9878TIP3   OH251048   5.772   6.197   2.009  0.1169 -0.2933  0.3194
 9878TIP3    H151049   5.786   6.261   2.079  0.6727 -0.5653  0.4536
 9878TIP3    H251050   5.732   6.248   1.938 -1.1932 -0.1705  1.1271
 9879TIP3   OH251051   3.675   0.705  12.857  0.1723  0.3013 -0.3808
 9879TIP3    H151052   3.702   0.779  12.912  0.1388  0.2569 -0.3053
 9879TIP3    H251053   3.584   0.723  12.836  0.2292  0.3975 -0.5521
 9880TIP3   OH251054   6.449   4.957   4.019 -0.0382  0.3471  0.1226
 9880TIP3    H151055   6.535   4.934   4.053  0.6345  0.4808 -1.4804
 9880TIP3    H251056   6.390   4.943   4.093  0.9874 -2.1186  0.5122
 9881TIP3   OH251057   0.646   2.307   6.052 -0.1134  0.4899 -0.0842
 9881TIP3    H151058   0.658   2.226   6.101 -0.3984  1.8414  2.2825
 9881TIP3    H251059   0.730   2.322   6.008  0.1650 -0.6947  0.0545
 9882TIP3   OH251060   0.163   1.198  11.780 -0.2540 -0.0273  0.4056
 9882TIP3    H151061   0.125   1.118  11.815  0.3784 -1.0747 -1.2728
 9882TIP3    H251062   0.234   1.168  11.722  0.9455  1.7746  0.8908
 9883TIP3   OH251063   4.365   0.053  11.796 -0.1553  0.0606  0.2724
 9883TIP3    H151064   4.450   0.009  11.785  0.1398  0.8239 -0.6131
 9883TIP3    H251065   4.384   0.130  11.849 -0.3370  0.1008  0.2810
 9884TIP3   OH251066   0.528   4.964  11.579  0.3044  0.0667  0.1433
 9884TIP3    H151067   0.454   4.958  11.519 -0.6347 -0.9785  1.3735
 9884TIP3    H251068   0.519   4.887  11.636  2.5203 -0.2675  0.1015
 9885TIP3   OH251069   5.014   4.421  11.442  0.5699 -0.0217  0.4479
 9885TIP3    H151070   4.928   4.440  11.478  1.0499  0.2637  1.4699
 9885TIP3    H251071   4.997   4.362  11.369 -0.5102  0.2609  0.4631
 9886TIP3   OH251072   4.486   5.456  12.380 -0.1284 -0.6160 -0.0441
 9886TIP3    H151073   4.517   5.535  12.336  1.2477 -0.5749  0.9818
 9886TIP3    H251074   4.403   5.483  12.420 -0.6359 -0.2385 -1.2909
 9887TIP3   OH251075   6.647   5.498   1.774 -0.0741  0.1212  0.2140
 9887TIP3    H151076   6.657   5.402   1.779  1.0599  0.2395  0.5120
 9887TIP3    H251077   6.584   5.519   1.842  1.4310 -0.1960  1.7659
 9888TIP3   OH251078   6.693   6.572  11.411 -0.8177 -0.3434 -0.0124
 9888TIP3    H151079   6.636   6.497  11.429  0.6451 -1.2712  0.8218
 9888TIP3    H251080   6.691   6.624  11.491 -1.6608  0.4215 -0.5139
 9889TIP3   OH251081   1.746   1.446   5.859 -0.1539  0.5306 -0.0914
 9889TIP3    H151082   1.760   1.397   5.778  0.7107  2.5359 -1.1682
 9889TIP3    H251083   1.676   1.508   5.838  1.0484  2.0247  0.2691
 9890TIP3   OH251084   1.471   4.549  15.477 -0.1126 -0.2689  0.5674
 9890TIP3    H151085   1.390   4.553  15.528  1.1834  0.4461  2.6362
 9890TIP3    H251086   1.447   4.499  15.398 -2.4624 -0.3536  1.2837
 9891TIP3   OH251087   2.707   1.177  13.153  0.1131  0.8818 -0.0634
 9891TIP3    H151088   2.623   1.199  13.193 -0.2700  3.1807 -1.9642
 9891TIP3    H251089   2.767   1.245  13.185  1.4547 -1.1270  1.8090
 9892TIP3   OH251090   5.674   0.231   1.234  0.6635 -0.2408  0.4265
 9892TIP3    H151091   5.747   0.181   1.198 -0.2438 -0.6717 -0.8506
 9892TIP3    H251092   5.602   0.168   1.240 -0.6402  0.9877 -1.6683
 9893TIP3   OH251093   5.659   6.751  12.827 -0.1468  0.6209 -0.2938
 9893TIP3    H151094   5.578   6.756  12.878  0.4340  0.0068  0.7177
 9893TIP3    H251095   5.711   6.685  12.873  1.1201  1.3613 -0.6585
 9894TIP3   OH251096   6.729   0.668   1.872  0.2978 -0.2996  0.0208
 9894TIP3    H151097   6.740   0.710   1.787  2.2707  2.0866  1.3842
 9894TIP3    H251098   6.705   0.739   1.931  0.3697 -1.6694  1.7395
 9895TIP3   OH251099   6.162   3.125  16.877 -0.0002 -0.0873  0.1404
 9895TIP3    H151100   6.179   3.040  16.917  1.0186  0.0963  0.1173
 9895TIP3    H251101   6.231   3.135  16.811  0.0542  0.8603  0.3309
 9896TIP3   OH251102   6.177   5.860   0.563 -0.0278  0.0185 -0.4602
 9896TIP3    H151103   6.122   5.901   0.631 -0.1517  0.3012 -0.7274
 9896TIP3    H251104   6.236   5.931   0.535  0.0789 -0.1214 -0.5872
 9897TIP3   OH251105   0.433   0.197  16.437  0.6194  0.0135  0.4552
 9897TIP3    H151106   0.461   0.287  16.454  1.9620 -0.2188 -0.5045
 9897TIP3    H251107   0.355   0.206  16.381  2.0341  0.5354 -1.4673
 9898TIP3   OH251108   1.006   5.088   1.578 -0.0537 -0.6203  0.0804
 9898TIP3    H151109   0.913   5.066   1.575 -0.6663  1.4091  2.4183
 9898TIP3    H251110   1.014   5.164   1.520  0.2683 -1.1287 -0.5485
 9899TIP3   OH251111   4.840   0.609   3.731  0.0430 -0.0368  0.2451
 9899TIP3    H151112   4.902   0.646   3.668 -1.0875  0.3164 -0.6720
 9899TIP3    H251113   4.895   0.576   3.802  1.2169  1.1838 -0.0815
 9900TIP3   OH251114   4.909   3.408   3.573  0.4976  0.0562 -0.2501
 9900TIP3    H151115   4.966   3.469   3.525  1.6635 -1.0174 -0.2540
 9900TIP3    H251116   4.969   3.342   3.608 -0.3626  0.6152  2.4235
 9901TIP3   OH251117   1.141   1.513  15.321  0.0049 -0.4151  1.0270
 9901TIP3    H151118   1.161   1.604  15.303  1.9710 -1.0740 -0.2247
 9901TIP3    H251119   1.139   1.471  15.235 -3.0952 -1.1579  1.3818
 9902TIP3   OH251120   2.231   3.422  13.509 -0.0604  0.5138  0.2109
 9902TIP3    H151121   2.212   3.448  13.419  1.5500  0.3257 -0.1939
 9902TIP3    H251122   2.246   3.328  13.505 -1.4932  0.2368  0.9435
 9903TIP3   OH251123   6.344   6.779   1.367  0.7320 -0.2623  0.1036
 9903TIP3    H151124   6.406   6.716   1.403 -0.0361  0.6707  3.2273
 9903TIP3    H251125   6.395   6.858   1.352  0.9760 -0.5426 -0.5910
 9904TIP3   OH251126   6.253   0.742  12.554  0.3171 -0.1521 -0.0387
 9904TIP3    H151127   6.265   0.826  12.511  0.3722  1.2268  2.5491
 9904TIP3    H251128   6.171   0.708  12.519  0.3016  0.9583 -1.1112
 9905TIP3   OH251129   5.664   1.123  13.049  0.1587  0.2654 -0.3611
 9905TIP3    H151130   5.686   1.031  13.064 -2.4055 -0.0274  2.1080
 9905TIP3    H251131   5.690   1.139  12.958  1.8739 -2.5009 -0.4348
 9906TIP3   OH251132   4.397   1.236  11.142 -0.7778 -0.2567 -0.1325
 9906TIP3    H151133   4.311   1.275  11.127 -0.0294  0.4352 -2.8086
 9906TIP3    H251134   4.395   1.154  11.092 -0.3898 -0.9626  0.9963
 9907TIP3   OH251135   5.079   4.802  13.982  0.2631 -0.0558 -0.0972
 9907TIP3    H151136   5.173   4.798  13.967 -0.1601 -1.1822 -2.6820
 9907TIP3    H251137   5.050   4.711  13.982 -1.1519  0.3512 -1.8195
 9908TIP3   OH251138   2.005   5.967  10.446  0.1569  0.9004  0.0021
 9908TIP3    H151139   1.969   6.031  10.507 -3.8205 -1.7793  0.6315
 9908TIP3    H251140   2.019   6.016  10.365 -1.6713  2.8520  0.8344
 9909TIP3   OH251141   4.110   0.737   0.528 -0.0411 -0.5549 -0.4204
 9909TIP3    H151142   4.204   0.720   0.526  0.8825  3.9709 -1.0638
 9909TIP3    H251143   4.086   0.751   0.436 -1.1328 -0.7662 -0.1702
 9910TIP3   OH251144   0.002   4.492  16.346 -0.1784 -0.1874  0.3521
 9910TIP3    H151145   0.014   4.457  16.257  2.0346 -0.1307  0.6101
 9910TIP3    H251146   0.029   4.420  16.404  2.1618  1.0835  0.9073
 9911TIP3   OH251147   4.214   2.411   3.735  0.2926  0.3739 -0.4967
 9911TIP3    H151148   4.218   2.393   3.641  0.1025 -0.9663 -0.2488
 9911TIP3    H251149   4.295   2.458   3.754  1.2651 -1.1227 -0.9432
 9912TIP3   OH251150   0.745   1.167   1.257 -0.0815  0.1060 -0.4742
 9912TIP3    H151151   0.698   1.218   1.190 -0.4482 -0.4415 -0.6360
 9912TIP3    H251152   0.837   1.179   1.235 -0.2325 -1.0359 -1.7958
 9913TIP3   OH251153   3.577   2.262   3.056  0.2456 -0.5054  0.0742
 9913TIP3    H151154   3.624   2.182   3.034  1.3168  0.0137  0.4408
 9913TIP3    H251155   3.544   2.247   3.145  0.3592 -0.5753  0.1037
 9914TIP3   OH251156   4.059   3.290  12.113  0.4450 -0.1268 -0.0041
 9914TIP3    H151157   4.131   3.341  12.150  1.3945 -0.1526 -1.7393
 9914TIP3    H251158   4.001   3.355  12.074  1.3621 -0.3084 -1.7131
 9915TIP3   OH251159   1.513   5.147  10.826  0.5520  0.0241  0.6363
 9915TIP3    H151160   1.464   5.209  10.880  0.4554 -1.4365  2.2738
 9915TIP3    H251161   1.484   5.061  10.856 -0.2852 -0.8526 -2.4917
 9916TIP3   OH251162   0.219   3.339   0.014 -0.3159  0.2675  0.2803
 9916TIP3    H151163   0.190   3.264   0.066 -1.7081  1.0631  0.6935
 9916TIP3    H251164   0.300   3.310  -0.028 -1.2562 -1.7394 -0.2040
 9917TIP3   OH251165   3.901   4.854  11.765 -0.4546  0.5693 -0.1064
 9917TIP3    H151166   3.958   4.802  11.710 -0.5564  0.8732 -0.5004
 9917TIP3    H251167   3.887   4.801  11.844 -1.0075 -0.2348 -0.7407
 9918TIP3   OH251168   5.332   1.250  14.594 -0.2509 -0.7604 -0.1708
 9918TIP3    H151169   5.367   1.239  14.682  1.0752 -1.3467 -0.7547
 9918TIP3    H251170   5.251   1.198  14.594  0.7276 -2.3351  0.1465
 9919TIP3   OH251171   0.030   1.948   0.747  0.0464 -0.3784  0.0337
 9919TIP3    H151172   0.029   2.028   0.799  0.6125 -0.0957 -0.3892
 9919TIP3    H251173  -0.057   1.910   0.760  0.2427 -0.4061  1.3352
 9920TIP3   OH251174   4.630   2.233  17.118  0.3661 -0.1734  0.4250
 9920TIP3    H151175   4.556   2.251  17.177  0.8719 -0.6027  1.1945
 9920TIP3    H251176   4.593   2.176  17.050 -0.3180  0.6490  0.0844
 9921TIP3   OH251177   2.491   3.201  11.783  0.2993 -0.2237  0.3249
 9921TIP3    H151178   2.553   3.238  11.846  1.4051 -1.3923 -0.0623
 9921TIP3    H251179   2.464   3.118  11.823 -1.5270  0.5751  0.8028
 9922TIP3   OH251180   5.266   5.999  15.020  0.2161  0.1305  0.2626
 9922TIP3    H151181   5.317   6.077  14.996  4.1920 -3.0136 -2.1154
 9922TIP3    H251182   5.266   5.946  14.941 -3.1969 -1.9624  1.5764
 9923TIP3   OH251183   6.671   2.299   2.298  0.1984  0.2817 -0.1606
 9923TIP3    H151184   6.755   2.254   2.288  0.0498 -0.0581  0.0714
 9923TIP3    H251185   6.628   2.251   2.369  0.6304  1.6978  1.0956
 9924TIP3   OH251186   5.865   1.958  11.677 -0.2643 -0.5155  0.0990
 9924TIP3    H151187   5.945   2.008  11.664  0.2986 -1.1356  1.0582
 9924TIP3    H251188   5.866   1.936  11.770 -0.5902 -2.1360 -0.2640
 9925TIP3   OH251189   3.884   4.818   1.230  0.2448  0.3698 -0.2302
 9925TIP3    H151190   3.832   4.896   1.212  2.3407  1.5068 -1.6093
 9925TIP3    H251191   3.866   4.759   1.156  0.8116  0.7392 -0.6759
 9926TIP3   OH251192   1.711   5.392  13.060 -0.1609 -0.3346 -0.3950
 9926TIP3    H151193   1.745   5.404  12.971 -1.0882  0.3317 -0.6605
 9926TIP3    H251194   1.632   5.339  13.048  0.3147 -1.1769  0.1445
 9927TIP3   OH251195   1.060   1.053   2.449 -0.0528 -0.2596 -0.1048
 9927TIP3    H151196   1.017   1.136   2.429 -1.1867 -1.2213 -1.7501
 9927TIP3    H251197   1.149   1.063   2.415 -0.3736  0.0540 -0.8502
 9928TIP3   OH251198   2.412   5.183   1.105 -0.0082  0.1379  0.1282
 9928TIP3    H151199   2.359   5.189   1.026 -0.0828 -1.9188 -0.0014
 9928TIP3    H251200   2.442   5.273   1.121 -2.9557  1.2132 -0.1688
 9929TIP3   OH251201   0.098   3.038   6.524  0.3278 -0.8359  0.6220
 9929TIP3    H151202   0.182   3.081   6.515  0.2940 -1.0820 -1.0496
 9929TIP3    H251203   0.073   3.051   6.616  0.3609  2.5772  0.1889
 9930TIP3   OH251204   3.342   6.350  14.028  0.0954 -0.2288 -0.2008
 9930TIP3    H151205   3.324   6.364  13.935 -1.0212  0.9473  0.1709
 9930TIP3    H251206   3.373   6.436  14.059  0.4769 -0.6190  0.5106
 9931TIP3   OH251207   0.733   0.064   5.255 -0.4016  0.0746 -0.1931
 9931TIP3    H151208   0.785   0.070   5.175 -2.2548  2.1906 -1.2984
 9931TIP3    H251209   0.782   0.117   5.318 -0.5234  0.9607 -0.8336
 9932TIP3   OH251210   3.726   3.793   2.210  0.3789 -0.1470  0.2287
 9932TIP3    H151211   3.777   3.713   2.223 -0.4657 -0.9314 -1.1582
 9932TIP3    H251212   3.692   3.814   2.297 -0.4766 -2.0380  0.3777
 9933TIP3   OH251213   6.305   5.710   5.405  0.1967  0.2670 -0.0442
 9933TIP3    H151214   6.298   5.659   5.486 -0.4335  0.6928  0.1773
 9933TIP3    H251215   6.357   5.787   5.429 -0.8057  0.8755  0.2052
 9934TIP3   OH251216   4.054   2.657  17.173 -0.2233 -0.0155  0.1113
 9934TIP3    H151217   4.141   2.628  17.147 -0.3034  1.4712 -1.9457
 9934TIP3    H251218   4.065   2.689  17.262  0.7880 -2.1202  0.7762
 9935TIP3   OH251219   1.084   0.672   2.798 -0.4051 -0.6039  0.1804
 9935TIP3    H151220   1.067   0.642   2.887 -0.2835 -1.0178  0.0650
 9935TIP3    H251221   1.020   0.625   2.744  1.0273 -2.1093 -0.2465
 9936TIP3   OH251222   4.550   3.092  16.742  0.1514 -0.1096  0.3476
 9936TIP3    H151223   4.612   3.107  16.670 -1.3791 -0.5589 -1.1002
 9936TIP3    H251224   4.555   2.998  16.758  0.3635 -0.0354  0.7115
 9937TIP3   OH251225   5.039   0.498  12.744 -0.0245  0.1421  0.1599
 9937TIP3    H151226   5.114   0.475  12.689 -2.1036 -2.6272 -1.6707
 9937TIP3    H251227   5.057   0.457  12.828 -0.0955 -1.7230 -0.7128
 9938TIP3   OH251228   1.204   1.741  13.489 -0.1280  0.1563  0.6310
 9938TIP3    H151229   1.273   1.709  13.548 -0.5741 -0.2453  0.9391
 9938TIP3    H251230   1.130   1.682  13.504 -1.4157  2.0552  2.1619
 9939TIP3   OH251231   3.274   4.205  13.437  0.6998 -0.0809 -0.9824
 9939TIP3    H151232   3.253   4.264  13.364 -1.2636 -0.1132 -0.4926
 9939TIP3    H251233   3.345   4.249  13.484  2.2439 -0.2516 -3.1063
 9940TIP3   OH251234   4.214   2.292   6.499 -1.0178  0.1762 -0.3084
 9940TIP3    H151235   4.185   2.368   6.448  1.4232 -0.3693 -2.6297
 9940TIP3    H251236   4.281   2.327   6.558 -2.3363  0.4209  1.0645
 9941TIP3   OH251237   2.026   0.662   2.849  0.2491  0.3066 -0.6606
 9941TIP3    H151238   2.051   0.746   2.887 -2.0057 -0.3754  2.4795
 9941TIP3    H251239   1.950   0.682   2.794  1.2595  0.6834 -1.9562
 9942TIP3   OH251240   5.225   3.901  16.013 -0.2249 -0.0234  0.2349
 9942TIP3    H151241   5.226   3.813  15.975  0.0892  0.2241 -0.3321
 9942TIP3    H251242   5.132   3.924  16.019 -0.4020 -1.1181  2.0801
 9943TIP3   OH251243   3.002   4.285   4.778  0.4487 -0.2760  0.0544
 9943TIP3    H151244   2.992   4.245   4.864 -0.5932  0.9673  0.5335
 9943TIP3    H251245   2.916   4.272   4.736  0.2496  1.0354  0.0501
 9944TIP3   OH251246   2.102   4.585  12.211 -0.1063  0.4548  0.2997
 9944TIP3    H151247   2.049   4.656  12.175 -0.8328  1.0278  2.3941
 9944TIP3    H251248   2.184   4.628  12.238  0.2966  0.1005 -0.3607
 9945TIP3   OH251249   3.609   6.443   0.581  0.3108  0.2199  1.0235
 9945TIP3    H151250   3.601   6.364   0.634  1.4933 -0.0742  0.7994
 9945TIP3    H251251   3.704   6.458   0.575  0.0937  1.8236  1.3040
 9946TIP3   OH251252   6.736   6.479   3.797  0.2052 -0.0791 -0.0608
 9946TIP3    H151253   6.831   6.472   3.810  0.5672  3.4329 -0.3600
 9946TIP3    H251254   6.723   6.455   3.705  1.1916  2.1859 -0.8151
 9947TIP3   OH251255   3.662   0.913  14.585  0.6246 -0.0737 -0.3743
 9947TIP3    H151256   3.711   0.994  14.571  2.4350 -1.0045  0.4457
 9947TIP3    H251257   3.628   0.921  14.674  0.5880 -0.0939 -0.3873
 9948TIP3   OH251258   0.495   3.207   5.455  0.1619 -0.2539 -0.2468
 9948TIP3    H151259   0.412   3.212   5.407 -0.3284 -0.0996  0.6001
 9948TIP3    H251260   0.524   3.298   5.460 -0.3332 -0.1358  0.6690
 9949TIP3   OH251261   2.450   6.450  12.616 -0.4262 -0.2922  0.5637
 9949TIP3    H151262   2.370   6.434  12.667  0.7642 -1.8604  2.0044
 9949TIP3    H251263   2.509   6.493  12.678 -0.6328  2.1897 -0.9110
 9950TIP3   OH251264   4.188   0.756  15.737  0.2801  0.9630 -0.4153
 9950TIP3    H151265   4.167   0.798  15.654 -0.2846  1.1192 -0.1984
 9950TIP3    H251266   4.275   0.790  15.760  0.5166  0.7852 -1.0192
 9951TIP3   OH251267   6.208   4.825   5.553  0.2571 -0.1403 -0.4306
 9951TIP3    H151268   6.214   4.814   5.648 -0.6349 -0.6159 -0.4317
 9951TIP3    H251269   6.250   4.748   5.517 -1.3349 -1.0338 -0.4203
 9952TIP3   OH251270   2.833   6.457  13.866  0.9758  0.6789  0.2648
 9952TIP3    H151271   2.891   6.445  13.941 -0.8644 -2.3000  1.3026
 9952TIP3    H251272   2.878   6.412  13.794 -0.8890 -3.5762  1.5863
 9953TIP3   OH251273   5.384   0.487  16.609  0.1149  0.1837 -0.3238
 9953TIP3    H151274   5.312   0.475  16.547 -0.5277 -0.4565  0.5272
 9953TIP3    H251275   5.369   0.574  16.646  0.7337  0.7336 -1.3590
 9954TIP3   OH251276   4.111   4.845  12.379  0.4384  0.1229 -0.1014
 9954TIP3    H151277   4.110   4.806  12.291  3.0377 -0.1307 -0.0552
 9954TIP3    H251278   4.056   4.787  12.431  0.1224 -0.6051 -1.2080
 9955TIP3   OH251279   5.605   0.021   6.253  0.6178  0.0819 -0.1489
 9955TIP3    H151280   5.515  -0.009   6.244  0.3077  0.4582  1.5893
 9955TIP3    H251281   5.606   0.108   6.214  0.6352 -0.6137 -1.7199
 9956TIP3   OH251282   1.632   0.814   1.016  0.0799 -0.1776  0.4561
 9956TIP3    H151283   1.677   0.873   0.955  0.8215 -2.6546 -1.4626
 9956TIP3    H251284   1.650   0.851   1.102  2.2692  1.2618 -0.5747
 9957TIP3   OH251285   3.876   5.103  14.856 -0.3212 -0.1639  0.3224
 9957TIP3    H151286   3.836   5.024  14.893 -2.9915  1.6498  1.4454
 9957TIP3    H251287   3.834   5.114  14.770  0.6653 -0.4247 -0.1995
 9958TIP3   OH251288   2.914   2.699   2.036 -0.0842 -0.4305  0.9301
 9958TIP3    H151289   2.880   2.661   2.117  0.3601  0.4479  1.5294
 9958TIP3    H251290   2.990   2.644   2.015 -0.0158 -0.4768  1.2824
 9959TIP3   OH251291   4.778   5.201   2.705 -0.5505 -0.3268  0.0695
 9959TIP3    H151292   4.824   5.279   2.673 -0.6203 -1.9915 -4.3668
 9959TIP3    H251293   4.849   5.141   2.730 -0.4038 -0.5145 -0.7819
 9960TIP3   OH251294   1.415   4.609  15.929 -0.1880  0.2615  0.3335
 9960TIP3    H151295   1.469   4.653  15.864 -0.6419 -1.4681 -1.2526
 9960TIP3    H251296   1.477   4.563  15.985  0.0727 -0.9457 -0.9102
 9961TIP3   OH251297   0.611   1.758   3.139 -0.0300  0.9947 -0.2221
 9961TIP3    H151298   0.639   1.708   3.063 -0.5712  0.8148 -0.3079
 9961TIP3    H251299   0.690   1.801   3.170  0.5558 -0.3725  0.2024
 9962TIP3   OH251300   5.952   4.113   4.179  0.0046  0.3939 -0.1064
 9962TIP3    H151301   6.018   4.047   4.201  0.1156  0.4597 -0.2367
 9962TIP3    H251302   5.895   4.118   4.256 -0.0819  0.0504 -0.1517
 9963TIP3   OH251303   6.180   1.003  11.600 -0.8337  0.0322 -0.4318
 9963TIP3    H151304   6.203   1.077  11.544 -0.4098  0.2467  0.0098
 9963TIP3    H251305   6.236   1.015  11.678 -1.5121 -0.1768  0.0881
 9964TIP3   OH251306   1.714   0.485  12.092  0.3320 -0.3701 -0.0996
 9964TIP3    H151307   1.793   0.469  12.041  0.2043  1.6906 -0.9970
 9964TIP3    H251308   1.712   0.580  12.103 -1.5786 -0.4775  0.6158
 9965TIP3   OH251309   5.817   4.620  11.379  0.4848 -0.5523 -0.5568
 9965TIP3    H151310   5.849   4.707  11.402 -2.7004  0.1532  1.4987
 9965TIP3    H251311   5.777   4.631  11.292  0.4231 -0.0617 -0.4663
 9966TIP3   OH251312   6.486   6.426   5.363  0.2314 -0.3537  0.4242
 9966TIP3    H151313   6.564   6.446   5.312 -0.6026 -0.2536 -0.8223
 9966TIP3    H251314   6.505   6.341   5.404  1.3371  0.0879  0.8477
 9967TIP3   OH251315   2.071   4.522   3.562 -0.5235  0.5764 -0.6144
 9967TIP3    H151316   2.098   4.433   3.584  0.3308  1.3146  1.4816
 9967TIP3    H251317   2.074   4.570   3.646 -1.5706  2.4147 -1.5849
 9968TIP3   OH251318   3.742   1.714  11.910 -0.0229  0.1221 -0.0605
 9968TIP3    H151319   3.712   1.784  11.852 -0.2301 -0.7244 -0.9755
 9968TIP3    H251320   3.797   1.659  11.855  0.2254 -0.3822  0.6905
 9969TIP3   OH251321   2.329   0.939   4.930  0.1289  0.1771 -0.0069
 9969TIP3    H151322   2.331   1.004   4.860 -0.8648 -1.4823 -1.6253
 9969TIP3    H251323   2.237   0.935   4.956  0.2497 -0.3042  0.3437
 9970TIP3   OH251324   2.650   3.499   4.759  0.1865  0.2494  0.6638
 9970TIP3    H151325   2.699   3.419   4.739 -0.9341 -0.4281  0.6024
 9970TIP3    H251326   2.584   3.505   4.690 -0.3631  0.6902  1.2231
 9971TIP3   OH251327   4.150   2.709   5.339 -0.5504 -0.5329 -0.0090
 9971TIP3    H151328   4.182   2.665   5.418  0.7960 -2.2460 -1.4852
 9971TIP3    H251329   4.057   2.723   5.355 -0.2313 -0.5663  2.0056
 9972TIP3   OH251330   3.237   4.959  12.170  0.6839 -0.2241  0.2169
 9972TIP3    H151331   3.308   4.928  12.113  1.4268  1.0660  0.4325
 9972TIP3    H251332   3.280   5.017  12.232 -0.9038  2.5141 -1.1460
 9973TIP3   OH251333   6.512   5.007  15.923 -0.0483 -0.2961  0.4040
 9973TIP3    H151334   6.580   5.073  15.934  0.7010 -1.0439  0.3308
 9973TIP3    H251335   6.491   4.979  16.012  1.2328 -1.5529  0.3197
 9974TIP3   OH251336   3.103   2.240  15.694 -0.3508  0.1337  0.5073
 9974TIP3    H151337   3.195   2.216  15.695 -0.2904  0.2396  3.8131
 9974TIP3    H251338   3.063   2.183  15.628  1.1989 -3.4400  2.5713
 9975TIP3   OH251339   1.793   4.965  12.507 -0.1321  0.0373 -0.1977
 9975TIP3    H151340   1.774   4.892  12.566  0.9431  1.3835  1.9008
 9975TIP3    H251341   1.718   5.023  12.515 -0.1931  0.0023 -0.5065
 9976TIP3   OH251342   2.833   2.952   3.922 -0.6211  0.0787  0.7318
 9976TIP3    H151343   2.850   3.044   3.942 -0.2765  0.6946 -2.2076
 9976TIP3    H251344   2.765   2.926   3.984 -1.3712  2.5513  0.9885
 9977TIP3   OH251345   3.401   1.771   1.906  0.3052  0.0836 -0.1519
 9977TIP3    H151346   3.397   1.752   1.812  2.7266  0.9614 -0.4534
 9977TIP3    H251347   3.399   1.866   1.911  3.6299  0.1679  0.4541
 9978TIP3   OH251348   0.167   5.482  16.113  0.1537 -0.6623  0.2229
 9978TIP3    H151349   0.227   5.408  16.110  2.2974  1.0535 -0.5789
 9978TIP3    H251350   0.173   5.521  16.025 -1.9251 -0.3011  0.2187
 9979TIP3   OH251351   1.501   3.966   4.751  0.0745  0.7206 -0.4249
 9979TIP3    H151352   1.448   4.017   4.689  0.6804  0.2528 -1.3382
 9979TIP3    H251353   1.567   3.923   4.696  0.1331 -0.3196  0.4590
 9980TIP3   OH251354   1.557   5.860  12.034 -0.2406  0.7834  0.3461
 9980TIP3    H151355   1.624   5.803  12.072 -0.7648  0.1659  0.3485
 9980TIP3    H251356   1.517   5.904  12.109 -1.4556 -0.6332  0.5356
 9981TIP3   OH251357   3.880   2.625   2.593 -0.1972  0.2848 -0.1384
 9981TIP3    H151358   3.945   2.669   2.538  1.7874 -0.4277  1.5938
 9981TIP3    H251359   3.888   2.532   2.571 -0.4869  0.1659  0.2604
 9982TIP3   OH251360   3.953   2.612   0.779  0.4282 -0.7612  0.3185
 9982TIP3    H151361   3.857   2.610   0.780  0.4099 -0.1048  0.2781
 9982TIP3    H251362   3.978   2.588   0.868  0.1967  0.1840  0.6415
 9983TIP3   OH251363   5.776   1.724  12.728 -0.0728  0.2674 -0.0200
 9983TIP3    H151364   5.833   1.780  12.677 -0.7099  0.5017 -0.4741
 9983TIP3    H251365   5.692   1.726  12.683 -0.3971 -0.2153  0.5420
 9984TIP3   OH251366   0.816   5.935   4.538  0.3073  0.1690 -0.4722
 9984TIP3    H151367   0.898   5.886   4.543  0.7467  0.8799 -0.6221
 9984TIP3    H251368   0.748   5.870   4.552  0.9878  0.0408  2.7053
 9985TIP3   OH251369   2.630   6.126   1.495  0.0038  0.3290 -0.0698
 9985TIP3    H151370   2.538   6.114   1.517 -0.0250  0.1833 -0.2643
 9985TIP3    H251371   2.633   6.209   1.447  0.1387  0.8846  0.8970
 9986TIP3   OH251372   2.460   1.919  17.229 -0.3618  0.0129  0.3148
 9986TIP3    H151373   2.541   1.970  17.226 -0.6035  0.4569  1.2442
 9986TIP3    H251374   2.489   1.828  17.222  0.2119  0.1826  0.4526
 9987TIP3   OH251375   1.099   1.065  15.124  0.0848  0.2372 -0.0282
 9987TIP3    H151376   1.094   1.139  15.184  0.7647 -1.9677  2.8420
 9987TIP3    H251377   1.023   1.011  15.145  1.2391 -1.4096  0.0846
 9988TIP3   OH251378   4.440   0.069  14.460 -0.2714  0.1773 -0.2343
 9988TIP3    H151379   4.453   0.163  14.473  1.9877 -0.3064  1.3391
 9988TIP3    H251380   4.382   0.042  14.531  2.8511 -0.4027  2.2023
 9989TIP3   OH251381   5.968   3.525   4.592  0.7681  0.3317 -0.1258
 9989TIP3    H151382   5.884   3.570   4.606  1.2632  1.1197  0.3610
 9989TIP3    H251383   5.944   3.440   4.556 -0.3941 -0.4827  2.4579
 9990TIP3   OH251384   3.153   1.654   0.423 -0.2096  0.2438  0.2678
 9990TIP3    H151385   3.206   1.680   0.499  3.2174 -2.8500 -0.9011
 9990TIP3    H251386   3.197   1.694   0.348 -2.1549  1.2700 -0.3416
 9991TIP3   OH251387   5.414   1.173  14.886 -0.2226 -0.6301  0.5579
 9991TIP3    H151388   5.461   1.106  14.836  0.8414  1.3821 -1.2286
 9991TIP3    H251389   5.472   1.194  14.958  0.6354  0.2015 -0.3537
 9992TIP3   OH251390   0.171   6.321   1.244 -0.1697  0.2550 -0.0578
 9992TIP3    H151391   0.184   6.383   1.172  1.2725 -1.0839 -0.9826
 9992TIP3    H251392   0.084   6.284   1.228  0.5203 -0.7247 -1.6860
 9993TIP3   OH251393   6.575   6.223   0.135  0.3197  0.4134  0.0818
 9993TIP3    H151394   6.646   6.199   0.076  0.3881  1.3459 -0.2392
 9993TIP3    H251395   6.510   6.153   0.125 -0.2859  1.2399 -2.1683
 9994TIP3   OH251396   6.396   0.477   4.663 -0.5731 -0.1731 -0.3103
 9994TIP3    H151397   6.395   0.546   4.730 -1.7354 -0.3931 -0.0934
 9994TIP3    H251398   6.332   0.505   4.598  0.1773 -0.2223 -1.0773
 9995TIP3   OH251399   4.525   5.110   4.197  0.6144  0.1396  0.4893
 9995TIP3    H151400   4.515   5.191   4.246  0.5449  0.2924  0.2218
 9995TIP3    H251401   4.436   5.088   4.169  0.8373  0.8030 -0.7793
 9996TIP3   OH251402   5.731   2.937   1.720  0.0356 -0.3382 -0.2145
 9996TIP3    H151403   5.826   2.944   1.707  0.1290  0.1358  0.6832
 9996TIP3    H251404   5.698   3.026   1.706 -0.0894 -0.1972  0.9002
 9997TIP3   OH251405   6.454   2.058  14.848  0.0891 -0.7975 -0.2889
 9997TIP3    H151406   6.528   2.104  14.887  0.0518 -0.4832 -0.5852
 9997TIP3    H251407   6.488   2.022  14.766  0.5264 -2.5894  0.6702
 9998TIP3   OH251408   5.188   5.223  12.484 -0.5270  0.3408 -0.0090
 9998TIP3    H151409   5.161   5.168  12.409  2.6455 -0.1416 -0.8620
 9998TIP3    H251410   5.175   5.166  12.560  2.2170 -1.5047 -0.8325
 9999TIP3   OH251411   6.328   1.633  13.233  0.2265  0.3432 -0.0122
 9999TIP3    H151412   6.409   1.622  13.183  0.2975 -1.5228  0.4628
 9999TIP3    H251413   6.279   1.700  13.185  1.7077  0.9287 -0.7351
10000TIP3   OH251414   2.179   2.603  16.093 -0.0260  0.6081 -0.5141
10000TIP3    H151415   2.170   2.693  16.062 -1.0653  0.8550  0.5178
10000TIP3    H251416   2.119   2.552  16.038 -1.8066  1.0341  1.0115
10001TIP3   OH251417   4.299   0.669   3.853 -0.2737  0.2808  0.0284
10001TIP3    H151418   4.269   0.666   3.943 -1.6898  1.3995 -0.3803
10001TIP3    H251419   4.231   0.719   3.807  0.2814 -0.5198 -1.7014
10002TIP3   OH251420   6.666   1.658  17.040  0.0875  0.4499  0.8189
10002TIP3    H151421   6.662   1.679  16.946 -0.1578 -0.2379  0.6698
10002TIP3    H251422   6.656   1.742  17.084  2.8485  1.1467  0.2087
10003TIP3   OH251423   5.723   4.223  15.851 -0.5774  0.0435  0.3422
10003TIP3    H151424   5.741   4.210  15.758  0.2600 -0.6445  0.5976
10003TIP3    H251425   5.773   4.302  15.874  1.0300 -1.0638  0.7232
10004TIP3   OH251426   1.490   1.006   3.691 -0.0777 -0.1065  0.2630
10004TIP3    H151427   1.459   0.919   3.718  0.2481 -0.9779 -2.0713
10004TIP3    H251428   1.417   1.044   3.643  0.8501 -0.3367 -1.3476
10005TIP3   OH251429   4.638   2.672  12.451 -0.2303  0.4499  0.2884
10005TIP3    H151430   4.611   2.709  12.367  0.1466  1.5022  0.6326
10005TIP3    H251431   4.556   2.649  12.495 -0.4402  0.2503 -0.1963
10006TIP3   OH251432   2.568   1.084   4.242  0.2872 -0.1471  0.1334
10006TIP3    H151433   2.577   0.996   4.206 -0.8704  0.2819 -1.2246
10006TIP3    H251434   2.545   1.139   4.168 -1.2447  0.9036  1.3333
10007TIP3   OH251435   3.803   6.440   0.080  0.2695  0.8158  0.0884
10007TIP3    H151436   3.755   6.496   0.019  1.4317  2.5445  0.7127
10007TIP3    H251437   3.803   6.354   0.038  1.5714  2.1023 -2.7063
10008TIP3   OH251438   2.227   4.469   1.693  0.2898  0.2165  0.4003
10008TIP3    H151439   2.272   4.396   1.650 -0.2312  0.2440 -0.1890
10008TIP3    H251440   2.271   4.477   1.778  2.7104  1.4809 -0.9030
10009TIP3   OH251441   5.579   1.034  10.995 -0.1710 -0.2031  0.4797
10009TIP3    H151442   5.499   1.035  11.047  0.1032 -0.9887  0.9134
10009TIP3    H251443   5.615   1.122  11.006 -1.3433  0.4042 -0.3076
10010TIP3   OH251444   3.152   0.569   3.141 -0.1970 -0.1422 -0.5118
10010TIP3    H151445   3.077   0.600   3.090 -0.6886  0.0003  0.2868
10010TIP3    H251446   3.115   0.502   3.200  0.2827 -0.0043 -0.0464
10011TIP3   OH251447   2.924   1.055  13.245 -0.0228 -0.8709  0.5546
10011TIP3    H151448   2.848   1.089  13.196  0.1065 -0.0031  0.9549
10011TIP3    H251449   2.942   0.970  13.204 -0.8648 -0.8357  0.0904
10012TIP3   OH251450   1.674   3.667  11.520  0.3114  0.0777  0.2661
10012TIP3    H151451   1.677   3.641  11.428  1.7197  1.9965 -0.2699
10012TIP3    H251452   1.585   3.699  11.533  0.0102 -0.5022 -0.3416
10013TIP3   OH251453   5.114   2.285   4.855 -0.4341 -0.2795 -0.4412
10013TIP3    H151454   5.075   2.274   4.769 -0.7962 -3.0585  0.0405
10013TIP3    H251455   5.195   2.234   4.852 -0.9282 -1.1895  1.1604
10014TIP3   OH251456   3.960   0.879  16.648 -0.1702  0.0834  0.1956
10014TIP3    H151457   3.953   0.786  16.667  0.7487 -0.1518 -0.5256
10014TIP3    H251458   3.891   0.920  16.699  0.6802 -0.7756  2.0777
10015TIP3   OH251459   0.107   6.672  15.505  0.3140 -0.2938  0.1347
10015TIP3    H151460   0.109   6.683  15.410 -4.4136 -1.5931 -0.2336
10015TIP3    H251461   0.094   6.760  15.539 -0.7513 -0.1545 -0.6023
10016TIP3   OH251462   5.048   2.672   1.438 -0.3003  0.1820  0.0378
10016TIP3    H151463   5.000   2.755   1.433  1.7097  1.4012  0.2713
10016TIP3    H251464   5.112   2.687   1.508 -0.4186 -1.8477  0.5908
10017TIP3   OH251465   5.278   3.195   5.092 -0.1666 -0.1522 -0.1754
10017TIP3    H151466   5.354   3.253   5.099  0.6836 -0.7131 -3.5598
10017TIP3    H251467   5.311   3.108   5.117  0.8208 -0.6921 -3.0627
10018TIP3   OH251468   3.650   1.588   4.494  0.0287 -0.6217 -0.3295
10018TIP3    H151469   3.563   1.577   4.530 -0.4740 -1.0371 -1.6410
10018TIP3    H251470   3.692   1.503   4.505  0.7554 -0.0657  1.4941
10019TIP3   OH251471   0.870   6.638  17.136  0.2063 -0.7315  0.1256
10019TIP3    H151472   0.838   6.553  17.107  1.0641 -1.0130 -0.0329
10019TIP3    H251473   0.888   6.626  17.229  0.8552 -0.9023 -0.0143
10020TIP3   OH251474   4.830   5.980   4.790 -0.7697  0.3204 -0.0205
10020TIP3    H151475   4.764   6.009   4.727 -0.4281  1.7156  0.2346
10020TIP3    H251476   4.912   5.981   4.740 -1.0713 -2.4314 -0.6309
10021TIP3   OH251477   6.465   5.490  13.321 -0.4132 -0.0797  0.2919
10021TIP3    H151478   6.397   5.495  13.253 -1.1410  0.1028  1.0196
10021TIP3    H251479   6.477   5.581  13.349 -2.9229 -0.5366  3.1072
10022TIP3   OH251480   5.050   3.748  13.302  0.3798  0.0789 -0.2628
10022TIP3    H151481   4.962   3.751  13.264  1.2466  0.6495 -2.3430
10022TIP3    H251482   5.105   3.715  13.231  1.8503 -0.2652  1.0112
10023TIP3   OH251483   3.155   0.345  14.758 -0.5339 -0.0780  0.2724
10023TIP3    H151484   3.171   0.278  14.691 -1.0665 -0.1706  0.2389
10023TIP3    H251485   3.226   0.333  14.821 -1.0451 -1.1632  0.6556
10024TIP3   OH251486   6.245   2.206   0.458  0.2584  0.3258  0.1062
10024TIP3    H151487   6.217   2.162   0.378  1.5327 -2.2467  1.0297
10024TIP3    H251488   6.292   2.284   0.428  0.4178 -0.4348 -1.6336
10025TIP3   OH251489   0.505   3.618   0.330 -0.3608  0.1209  0.4223
10025TIP3    H151490   0.411   3.608   0.314  0.0051 -1.3977 -0.8349
10025TIP3    H251491   0.511   3.633   0.424 -2.0306  2.5877  0.2036
10026TIP3   OH251492   2.209   5.056   2.766  0.2711  0.2185 -0.0171
10026TIP3    H151493   2.169   5.061   2.679 -0.9319 -0.2175  0.5044
10026TIP3    H251494   2.164   5.122   2.817  3.1415  2.7036 -0.5299
10027TIP3   OH251495   5.948   2.264  14.616  0.7310  0.2272 -0.3887
10027TIP3    H151496   5.871   2.209  14.601  0.0692  0.4243  1.9691
10027TIP3    H251497   5.919   2.352  14.593  1.4132 -0.2158 -3.0089
10028TIP3   OH251498   4.220   1.567  15.086  0.1797 -0.0921  0.0899
10028TIP3    H151499   4.155   1.526  15.142 -1.4102  0.3979 -1.3261
10028TIP3    H251500   4.282   1.608  15.146 -1.6391  0.6622  1.5004
10029TIP3   OH251501   2.064   0.846   5.081 -0.3163  0.0413 -0.6302
10029TIP3    H151502   1.982   0.797   5.085 -0.7457  0.6974 -1.2215
10029TIP3    H251503   2.047   0.916   5.017  0.3284  0.8613  0.0808
10030TIP3   OH251504   0.620   4.027   4.497 -0.2690  0.3665  0.3541
10030TIP3    H151505   0.634   4.102   4.438 -0.4044  0.3537  0.3050
10030TIP3    H251506   0.531   4.039   4.531 -0.8588 -0.5653 -0.8119
10031TIP3   OH251507   2.244   5.794   4.308  0.0208  0.2270 -0.0981
10031TIP3    H151508   2.251   5.837   4.393  0.7461  1.0006 -0.5436
10031TIP3    H251509   2.224   5.702   4.329  2.6493 -0.1400  0.9737
10032TIP3   OH251510   1.879   1.596   2.853 -0.2972 -0.4531 -0.2605
10032TIP3    H151511   1.912   1.648   2.926  1.4851 -2.1046  0.1418
10032TIP3    H251512   1.931   1.626   2.778  0.9165 -1.7852  0.0224
10033TIP3   OH251513   2.405   3.454   0.475 -0.2508  1.0988  0.0742
10033TIP3    H151514   2.347   3.386   0.509  1.2968  0.5283  1.6277
10033TIP3    H251515   2.428   3.423   0.387 -0.4836  0.2216  0.3172
10034TIP3   OH251516   2.526   6.652   2.468  0.6135 -0.6093  0.0293
10034TIP3    H151517   2.603   6.677   2.417  0.9803  0.4298  1.0716
10034TIP3    H251518   2.561   6.620   2.551 -0.0730 -0.1245  0.5098
10035TIP3   OH251519   4.258   5.970  13.764  0.3196  0.2178  0.2252
10035TIP3    H151520   4.305   5.944  13.684  1.9248  0.7564  0.9647
10035TIP3    H251521   4.247   6.065  13.756 -0.6772  0.0932  0.0492
10036TIP3   OH251522   3.731   6.027   5.119 -0.1920 -0.3733  0.1349
10036TIP3    H151523   3.652   6.022   5.065  0.7485 -2.6236 -1.0809
10036TIP3    H251524   3.803   6.019   5.057  0.9533 -1.1106  1.5348
10037TIP3   OH251525   0.545   3.169   1.012  0.6747  0.0060  0.0216
10037TIP3    H151526   0.559   3.185   0.918 -0.0197 -1.6380 -0.3772
10037TIP3    H251527   0.458   3.204   1.029  0.1291 -1.1568 -0.3239
10038TIP3   OH251528   4.873   2.700   1.986 -0.5232  0.9409 -0.5386
10038TIP3    H151529   4.821   2.769   2.027 -0.2733  0.8544 -0.0746
10038TIP3    H251530   4.827   2.681   1.904 -1.4203  0.6268  0.0288
10039TIP3   OH251531   6.322   1.547   5.007  0.4740 -0.1702 -0.4460
10039TIP3    H151532   6.286   1.560   4.919 -0.0175  1.7809  0.0195
10039TIP3    H251533   6.317   1.453   5.021 -1.9777 -0.2503 -1.4909
10040TIP3   OH251534   5.650   1.182  11.535  1.1969  0.1568  0.2302
10040TIP3    H151535   5.654   1.278  11.535  1.9207  0.1421  1.4459
10040TIP3    H251536   5.619   1.159  11.448  0.2512  1.5300  0.1952
10041TIP3   OH251537   5.523   4.860   3.048  0.1960  0.4422 -0.6483
10041TIP3    H151538   5.532   4.955   3.042 -0.5927  0.8829  3.3719
10041TIP3    H251539   5.613   4.829   3.060  0.4103  0.7365 -1.4872
10042TIP3   OH251540   3.375   3.944   1.850  0.5002  0.6238  0.2379
10042TIP3    H151541   3.334   3.980   1.928  0.1668 -0.5979  0.6313
10042TIP3    H251542   3.303   3.929   1.789  0.7619  1.6091 -0.3338
10043TIP3   OH251543   3.700   5.881   1.378  0.6277 -0.0852 -0.3157
10043TIP3    H151544   3.762   5.952   1.361 -0.0025  0.2125 -1.3841
10043TIP3    H251545   3.615   5.916   1.354  0.0464 -0.5453  1.0242
10044TIP3   OH251546   5.123   5.530   3.026 -0.4860  0.1026 -0.8162
10044TIP3    H151547   5.080   5.562   2.947 -1.3895 -0.8621 -0.7324
10044TIP3    H251548   5.139   5.437   3.008 -1.3876 -0.3041  0.4148
10045TIP3   OH251549   6.040   3.560  13.179 -0.9182  0.7105  0.0780
10045TIP3    H151550   6.103   3.563  13.252 -1.4024  0.9083  0.4884
10045TIP3    H251551   6.092   3.529  13.105 -0.7281 -0.8232  0.8353
10046TIP3   OH251552   5.645   5.925   1.816 -0.3331  0.3613 -0.8052
10046TIP3    H151553   5.670   5.956   1.729  1.1929  2.2507  0.2758
10046TIP3    H251554   5.710   5.857   1.836  0.7682  1.5774 -0.1843
10047TIP3   OH251555   2.516   1.646  17.227 -0.4732 -0.5031 -0.0468
10047TIP3    H151556   2.446   1.603  17.178  0.8350  0.6614 -3.0313
10047TIP3    H251557   2.538   1.583  17.296 -3.4044 -1.5181  0.0394
10048TIP3   OH251558   2.164   1.266   3.885  0.1435 -0.3194  0.2144
10048TIP3    H151559   2.071   1.269   3.861 -0.1532 -2.2654  1.0413
10048TIP3    H251560   2.209   1.248   3.803 -0.1709  0.7839 -0.2191
10049TIP3   OH251561   0.324   3.610  16.022  0.2088 -0.3505 -0.3131
10049TIP3    H151562   0.349   3.622  15.931 -2.1035  1.1957 -0.7905
10049TIP3    H251563   0.239   3.565  16.018 -1.2651  2.2026  0.9741
10050TIP3   OH251564   6.000   3.077  15.002 -0.0744  0.2889 -0.0352
10050TIP3    H151565   5.912   3.108  14.982  0.6096  1.6965 -0.9486
10050TIP3    H251566   6.017   3.108  15.091  0.5453  2.4585 -0.8809
10051TIP3   OH251567   4.421   0.147   5.637  0.5562 -0.1928  0.0682
10051TIP3    H151568   4.363   0.210   5.594  0.6953  0.4734  0.8387
10051TIP3    H251569   4.453   0.194   5.715  1.8691 -0.6602 -0.1803
10052TIP3   OH251570   2.948   2.810  13.890  0.3484  0.2465 -0.4360
10052TIP3    H151571   2.894   2.838  13.964  1.5700  0.3659  0.4371
10052TIP3    H251572   2.930   2.717  13.880 -0.6533  0.4654 -0.7004
10053TIP3   OH251573   0.666   1.112   4.345  0.2155  0.2812 -0.5048
10053TIP3    H151574   0.598   1.044   4.348  0.9077 -0.5503 -3.0749
10053TIP3    H251575   0.617   1.194   4.352 -0.9190 -0.3514 -0.8332
10054TIP3   OH251576   1.167   1.174  15.800 -0.2280 -0.3682  0.0919
10054TIP3    H151577   1.111   1.097  15.801 -1.4914  0.5016 -0.9511
10054TIP3    H251578   1.212   1.170  15.715 -0.5384  0.1974 -0.1028
10055TIP3   OH251579   6.720   2.476  13.092 -0.5278  0.5928  0.5887
10055TIP3    H151580   6.781   2.416  13.135 -1.0361 -0.8600 -0.6879
10055TIP3    H251581   6.637   2.464  13.140 -1.7467 -2.7625 -2.1625
10056TIP3   OH251582   1.625   2.529  14.241 -0.2091  0.2836 -0.0418
10056TIP3    H151583   1.578   2.500  14.163  0.6984 -0.9479 -0.1378
10056TIP3    H251584   1.618   2.455  14.302 -1.4100  1.4434  1.2878
10057TIP3   OH251585   3.987   0.230  16.622  0.4357 -0.4162 -0.0353
10057TIP3    H151586   4.048   0.185  16.564  0.6798 -2.5748  1.7998
10057TIP3    H251587   4.043   0.267  16.691 -0.0196  0.3817 -0.0945
10058TIP3   OH251588   6.519   5.867  10.880  0.0008 -1.0957 -0.3459
10058TIP3    H151589   6.572   5.853  10.802  0.3231 -0.7968 -0.1853
10058TIP3    H251590   6.544   5.794  10.938 -0.6455 -1.6303 -0.7344
10059TIP3   OH251591   3.256   3.610   4.268 -0.2330  0.2804  0.3253
10059TIP3    H151592   3.270   3.540   4.203 -0.6395  2.2736 -1.9872
10059TIP3    H251593   3.184   3.577   4.323  0.3546 -1.6115  0.0046
10060TIP3   OH251594   2.473   4.024  12.455  0.1985  0.3263 -0.1338
10060TIP3    H151595   2.457   4.012  12.548 -2.2504  1.1189 -0.4173
10060TIP3    H251596   2.534   3.954  12.432  0.9931  0.2570  2.0925
10061TIP3   OH251597   5.821   6.525  14.272  0.1641 -0.4186 -0.8623
10061TIP3    H151598   5.775   6.481  14.201 -1.0326 -2.8852  1.3241
10061TIP3    H251599   5.872   6.455  14.314  0.3334  0.8341  1.0598
10062TIP3   OH251600   4.897   3.932   2.665 -0.3724 -0.3715 -0.1777
10062TIP3    H151601   4.910   4.026   2.681  0.5382 -0.2517 -1.5150
10062TIP3    H251602   4.944   3.915   2.584 -1.2322 -1.8291 -0.3879
10063TIP3   OH251603   2.252   2.207  12.918  0.0811 -0.0480  0.0216
10063TIP3    H151604   2.207   2.123  12.910 -0.5172  0.3093 -0.3730
10063TIP3    H251605   2.338   2.185  12.954 -1.2507 -0.4840  3.0568
10064TIP3   OH251606   0.296   2.313   1.711  0.1921 -0.2313  0.3240
10064TIP3    H151607   0.383   2.345   1.738  0.4216  0.4236 -1.1785
10064TIP3    H251608   0.241   2.330   1.787  1.0641  0.6865  0.7792
10065TIP3   OH251609   2.871   5.398   4.440 -0.1024 -0.1745 -0.6872
10065TIP3    H151610   2.848   5.375   4.350  0.9572 -1.1479 -0.7256
10065TIP3    H251611   2.809   5.350   4.495 -1.9418  1.8643 -0.9278
10066TIP3   OH251612   0.724   1.802  16.068 -0.4542  0.5887  0.3010
10066TIP3    H151613   0.810   1.769  16.090 -0.7579 -0.6381 -0.3174
10066TIP3    H251614   0.725   1.893  16.098  1.1411  0.6678  0.0505
10067TIP3   OH251615   5.606   4.386   4.761 -0.3461  0.3712  0.0206
10067TIP3    H151616   5.522   4.342   4.750 -1.3343  2.1617  0.3238
10067TIP3    H251617   5.610   4.408   4.854  1.3288 -1.4003  0.3990
10068TIP3   OH251618   0.712   3.245  15.118 -0.1305  0.2106 -0.4834
10068TIP3    H151619   0.790   3.272  15.070  0.3480  0.2008  0.2960
10068TIP3    H251620   0.695   3.156  15.087  1.1720 -0.4404  0.6087
10069TIP3   OH251621   4.671   0.527   3.526  0.2482  0.0744 -0.1674
10069TIP3    H151622   4.721   0.569   3.595 -0.0095 -0.0339  0.0868
10069TIP3    H251623   4.695   0.574   3.446  0.8247 -0.0368 -0.0660
10070TIP3   OH251624   0.225   4.125  12.077  0.1947  0.2757 -0.5186
10070TIP3    H151625   0.177   4.190  12.129  1.2914 -0.0508  0.9572
10070TIP3    H251626   0.317   4.143  12.097  0.5242 -1.4141 -0.4713
10071TIP3   OH251627   1.507   5.699  17.101  0.5364 -0.5096 -0.2722
10071TIP3    H151628   1.512   5.607  17.074  1.1715 -0.5993  0.1242
10071TIP3    H251629   1.545   5.700  17.189 -0.5575 -0.0552  0.2032
10072TIP3   OH251630   0.530   4.296  11.257 -0.5571  0.8449 -0.1793
10072TIP3    H151631   0.576   4.299  11.173  0.1378  1.1020  0.2074
10072TIP3    H251632   0.464   4.366  11.250 -0.6178  0.7524 -0.5720
10073TIP3   OH251633   2.487   4.956  15.378 -0.2309  0.0810 -0.1780
10073TIP3    H151634   2.479   4.935  15.471  1.4601 -1.5662 -0.3690
10073TIP3    H251635   2.397   4.955  15.345 -0.5615 -3.1300  0.6776
10074TIP3   OH251636   3.970   3.069   1.061  0.1049  0.2858  0.0212
10074TIP3    H151637   4.005   2.993   1.109 -1.6157 -0.1384  0.6313
10074TIP3    H251638   4.044   3.130   1.056  1.3588 -1.2177 -0.0275
10075TIP3   OH251639   6.141   0.217  11.874 -0.3067 -0.4236  0.3857
10075TIP3    H151640   6.167   0.244  11.962  0.1145 -0.7747  0.3698
10075TIP3    H251641   6.223   0.209  11.826 -0.4221 -1.7963  0.4037
10076TIP3   OH251642   1.405   2.383  13.045 -0.2728  0.1952  0.3059
10076TIP3    H151643   1.376   2.351  12.960  0.5971  2.2115 -0.7801
10076TIP3    H251644   1.500   2.373  13.044 -0.1320  1.4161  0.5290
10077TIP3   OH251645   6.680   6.283  14.283  0.1392  0.0386  0.2676
10077TIP3    H151646   6.768   6.283  14.320  0.0193 -2.2066  0.6323
10077TIP3    H251647   6.693   6.301  14.190  0.8720  0.8386  0.5211
10078TIP3   OH251648   3.160   0.563  11.982  0.5797 -0.0264  0.3591
10078TIP3    H151649   3.079   0.514  11.964  1.1310 -1.1798  0.9987
10078TIP3    H251650   3.199   0.576  11.896 -0.8065  1.4730 -0.0816
10079TIP3   OH251651   4.288   5.589  11.550  0.0728  0.1748  0.4118
10079TIP3    H151652   4.295   5.649  11.625 -1.1346  1.7342 -0.6970
10079TIP3    H251653   4.203   5.610  11.510 -0.2256 -2.0728 -0.1873
10080TIP3   OH251654   6.053   5.848   4.737  0.4307 -0.1398 -0.0330
10080TIP3    H151655   5.998   5.779   4.699 -0.0631  0.1018  0.2492
10080TIP3    H251656   6.134   5.844   4.686 -0.3625  0.4195 -1.3517
10081TIP3   OH251657   0.989   0.416  13.748 -0.1470 -0.4934 -0.2670
10081TIP3    H151658   1.055   0.347  13.748 -0.3992 -0.7374 -0.5478
10081TIP3    H251659   0.913   0.376  13.706 -0.8975 -0.6141  1.1918
10082TIP3   OH251660   3.556   0.919  15.881  0.0488 -0.0414 -0.8147
10082TIP3    H151661   3.573   0.940  15.790  0.8662 -0.7270 -0.8286
10082TIP3    H251662   3.520   0.830  15.880 -0.8730  0.3240 -0.5492
10083TIP3   OH251663   4.764   0.578  13.082  0.1466  0.3865  0.2047
10083TIP3    H151664   4.683   0.611  13.044  0.6292  0.8782 -0.3990
10083TIP3    H251665   4.830   0.642  13.057  0.9195 -0.5561 -0.1889
10084TIP3   OH251666   3.379   1.380  13.873 -0.1982  0.3822  0.2829
10084TIP3    H151667   3.304   1.328  13.847  0.8720 -1.5729  1.0232
10084TIP3    H251668   3.455   1.323  13.860  0.9980  1.7200  1.1263
10085TIP3   OH251669   2.191   0.405   0.225 -0.0654 -0.7862 -0.2419
10085TIP3    H151670   2.216   0.347   0.153  0.0920  0.0544 -0.8731
10085TIP3    H251671   2.136   0.471   0.184 -0.4702 -0.6456  0.5258
10086TIP3   OH251672   4.887   2.614  11.415  0.5301 -0.4266 -0.2183
10086TIP3    H151673   4.869   2.527  11.451  0.2408 -0.2723  0.0053
10086TIP3    H251674   4.962   2.600  11.357  0.7820 -0.7405  0.1770
10087TIP3   OH251675   2.884   4.009  11.284  0.4705  0.2696  0.2440
10087TIP3    H151676   2.975   4.003  11.252 -0.3210 -0.8627 -1.8737
10087TIP3    H251677   2.874   3.934  11.342 -0.5354 -2.5048 -3.3408
10088TIP3   OH251678   3.772   6.516  12.486  0.1949  0.5150  0.0818
10088TIP3    H151679   3.832   6.478  12.422 -0.3216 -0.8882  0.4105
10088TIP3    H251680   3.686   6.480  12.464 -0.0516  0.3048  1.3101
10089TIP3   OH251681   6.309   3.981   0.628  0.2129  0.2281 -0.0999
10089TIP3    H151682   6.387   4.021   0.588 -0.4359  0.5328 -1.0764
10089TIP3    H251683   6.276   3.921   0.561  0.6058 -1.2208  0.9878
10090TIP3   OH251684   4.394   5.768   3.029  0.0840 -0.3238 -0.1939
10090TIP3    H151685   4.452   5.800   3.098 -0.8906 -1.4335  1.1705
10090TIP3    H251686   4.403   5.672   3.032 -1.9458 -0.5228  0.1648
10091TIP3   OH251687   2.579   5.518  14.460 -0.0369 -0.5490  0.1144
10091TIP3    H151688   2.593   5.514  14.366 -2.2347  0.0047 -0.2726
10091TIP3    H251689   2.617   5.602  14.487  0.5958 -0.7114 -0.2737
10092TIP3   OH251690   0.614   5.445   3.645  0.3443 -0.7309  0.0219
10092TIP3    H151691   0.681   5.488   3.593  0.3853 -0.3301  0.4011
10092TIP3    H251692   0.652   5.437   3.732 -0.2426 -0.1647  0.3319
10093TIP3   OH251693   1.347   3.218   4.773 -0.6637 -0.2389 -0.7753
10093TIP3    H151694   1.355   3.159   4.848  0.7912 -1.8534 -2.1640
10093TIP3    H251695   1.356   3.305   4.811  0.3808 -1.0449  0.9109
10094TIP3   OH251696   6.744   2.038  15.207 -0.0278  0.1702  0.3162
10094TIP3    H151697   6.674   2.076  15.261 -0.8213 -0.4851 -0.2352
10094TIP3    H251698   6.825   2.059  15.254 -0.5796  1.0773  0.8804
10095TIP3   OH251699   3.674   2.076  16.009  0.1721 -0.4807 -0.2611
10095TIP3    H151700   3.611   2.139  15.974 -1.2779 -0.1216  2.8907
10095TIP3    H251701   3.669   2.001  15.949 -0.2298  1.1508 -2.3522
10096TIP3   OH251702   0.167   0.536  15.904 -0.0335 -0.2585  0.3732
10096TIP3    H151703   0.211   0.609  15.860  1.3726 -1.4588 -0.2195
10096TIP3    H251704   0.236   0.473  15.922 -1.0493 -0.9682  1.9211
10097TIP3   OH251705   3.747   6.324   4.201  0.1481  0.1953  0.0200
10097TIP3    H151706   3.772   6.239   4.165  2.7588  0.7315  0.4227
10097TIP3    H251707   3.664   6.309   4.245  0.1480 -1.9461 -0.6820
10098TIP3   OH251708   0.775   2.416  12.234 -0.0814 -0.2558  0.1933
10098TIP3    H151709   0.704   2.378  12.286 -0.0326  1.2269  1.3902
10098TIP3    H251710   0.839   2.346  12.226 -1.0369 -1.1705  0.3186
10099TIP3   OH251711   1.733   3.570  15.453  0.0607  0.2331  0.2072
10099TIP3    H151712   1.804   3.634  15.453  0.4872 -0.2331 -0.2470
10099TIP3    H251713   1.655   3.621  15.474  0.3826  0.9166 -0.2353
10100TIP3   OH251714   4.484   2.665  15.800 -0.3281 -0.2778  0.3920
10100TIP3    H151715   4.514   2.602  15.865 -2.7769 -0.8259  1.0268
10100TIP3    H251716   4.564   2.694  15.756  1.0712 -1.9609  1.7698
10101TIP3   OH251717   6.467   3.525   0.961  0.1848  0.4393 -0.1205
10101TIP3    H151718   6.428   3.530   0.873 -1.5125 -2.0530  0.4323
10101TIP3    H251719   6.561   3.534   0.946 -0.1569  1.0090 -2.0864
10102TIP3   OH251720   2.877   1.900   0.593  0.4739 -0.1578  0.0543
10102TIP3    H151721   2.929   1.845   0.651 -0.5373  0.9037  2.0342
10102TIP3    H251722   2.911   1.882   0.505  2.9678 -0.7640  1.1046
10103TIP3   OH251723   1.433   6.695  16.728  0.2464  0.5912  0.1144
10103TIP3    H151724   1.461   6.719  16.816  2.2784 -1.8021  0.1963
10103TIP3    H251725   1.511   6.707  16.674 -0.4203  0.1523 -0.9650
10104TIP3   OH251726   4.811   4.397   0.935  0.2384 -0.1013 -0.1422
10104TIP3    H151727   4.730   4.365   0.976  0.1091  3.0778  2.3364
10104TIP3    H251728   4.866   4.424   1.009  1.4886  2.4820 -1.9351
10105TIP3   OH251729   1.587   1.009  11.345 -0.2243  0.3864 -0.0933
10105TIP3    H151730   1.642   1.003  11.267 -0.2386 -0.2496 -0.0602
10105TIP3    H251731   1.646   1.040  11.414 -0.1730  0.7884 -0.3138
10106TIP3   OH251732   1.497   0.143   5.398  0.0128 -0.1593 -0.1532
10106TIP3    H151733   1.493   0.127   5.492  2.5680  2.1602  0.4322
10106TIP3    H251734   1.457   0.230   5.386  2.2185  0.8142 -0.7776
10107TIP3   OH251735   4.961   5.344  16.130 -0.0121 -0.6007  0.4298
10107TIP3    H151736   5.054   5.369  16.131 -0.5292  1.3230  0.9646
10107TIP3    H251737   4.947   5.304  16.216  0.2122 -0.4725  0.5268
10108TIP3   OH251738   1.430   0.843   4.453  0.3570  0.6969 -0.3685
10108TIP3    H151739   1.465   0.892   4.528  1.0955 -2.3009  1.3278
10108TIP3    H251740   1.376   0.774   4.492  1.3294 -1.3798 -2.5463
10109TIP3   OH251741   2.707   2.289  16.779  0.2550 -0.3802  0.1828
10109TIP3    H151742   2.744   2.341  16.708 -0.3555  0.6815  0.6196
10109TIP3    H251743   2.624   2.332  16.799 -0.2056 -1.4543  0.6508
10110TIP3   OH251744   6.585   0.486   0.101  0.2565  0.8327  0.1599
10110TIP3    H151745   6.605   0.496   0.194  0.5004  0.5085  0.1422
10110TIP3    H251746   6.508   0.430   0.099  2.1998 -1.9152  0.0497
10111TIP3   OH251747   5.851   0.160   4.298 -0.1427 -0.1956 -0.3386
10111TIP3    H151748   5.841   0.230   4.234  1.1388  0.0642 -0.2733
10111TIP3    H251749   5.940   0.127   4.283  0.4373  0.3442  1.7926
10112TIP3   OH251750   5.435   1.600   4.375  0.1401 -0.3468  0.8363
10112TIP3    H151751   5.521   1.569   4.348 -0.3419 -1.8059  0.9562
10112TIP3    H251752   5.412   1.546   4.451  0.1232  1.5820  2.2597
10113TIP3   OH251753   3.053   0.202   1.328 -0.3287 -0.3020  0.6160
10113TIP3    H151754   3.113   0.245   1.267  1.2363 -0.4346  2.0403
10113TIP3    H251755   2.976   0.258   1.329 -0.0142  0.1725 -0.8009
10114TIP3   OH251756   6.694   5.674  11.963  0.3804 -0.2449  0.1717
10114TIP3    H151757   6.620   5.658  11.906  1.4054 -0.1114 -1.2212
10114TIP3    H251758   6.679   5.617  12.039 -0.2677 -1.4740 -0.8767
10115TIP3   OH251759   4.424   4.687  14.666  0.4781 -0.0182 -0.5013
10115TIP3    H151760   4.340   4.673  14.621  1.0408 -2.7039 -0.8155
10115TIP3    H251761   4.401   4.700  14.757 -0.3462  0.1116 -0.7232
10116TIP3   OH251762   1.408   2.678  13.102 -0.2277  0.7536 -0.1237
10116TIP3    H151763   1.386   2.596  13.059 -2.5602  2.2655 -1.9010
10116TIP3    H251764   1.335   2.695  13.161  0.6494  1.1418  0.8762
10117TIP3   OH251765   5.287   5.416  15.127 -0.0721  0.1944  0.5262
10117TIP3    H151766   5.316   5.489  15.181  1.7030 -1.0152  1.2731
10117TIP3    H251767   5.223   5.370  15.182 -0.6706  0.7875  0.3274
10118TIP3   OH251768   3.328   2.272  14.649 -0.6216  0.2021  0.2105
10118TIP3    H151769   3.355   2.218  14.723 -1.8827 -0.6186  0.0900
10118TIP3    H251770   3.397   2.259  14.583  0.8146  1.4059  1.4364
10119TIP3   OH251771   4.943   3.038   5.144  0.1553 -0.0065 -0.3778
10119TIP3    H151772   4.927   3.127   5.176  0.0616 -0.3415  0.5215
10119TIP3    H251773   4.860   2.993   5.156  0.4161 -0.4262 -0.1500
10120TIP3   OH251774   1.037   5.562   6.257  0.0414  0.2617  0.1851
10120TIP3    H151775   0.950   5.597   6.276  1.1950  2.6990  1.1513
10120TIP3    H251776   1.083   5.563   6.341  1.7365  1.1439 -0.7153
10121TIP3   OH251777   1.883   1.301   6.178  0.1139  0.2534  0.6738
10121TIP3    H151778   1.965   1.264   6.210 -0.1214  0.2258  1.2584
10121TIP3    H251779   1.835   1.225   6.143  0.1471  0.2017  0.7407
10122TIP3   OH251780   4.174   1.985   1.022  0.4546 -0.3373  0.1390
10122TIP3    H151781   4.225   1.993   0.941  2.3446  2.9272  1.5643
10122TIP3    H251782   4.093   1.941   0.995  1.5511 -0.3846 -3.2829
10123TIP3   OH251783   1.581   2.793  14.207 -0.0283  0.4709 -0.0228
10123TIP3    H151784   1.523   2.798  14.132 -0.3541  1.9516  0.3172
10123TIP3    H251785   1.583   2.700  14.230 -0.2172  0.0663 -1.6249
10124TIP3   OH251786   2.929   0.021  15.928 -0.1004  0.0308  0.0746
10124TIP3    H151787   2.925   0.073  15.848  0.5607 -2.3043 -1.5302
10124TIP3    H251788   2.837   0.009  15.953 -0.5559 -1.8898 -2.1987
10125TIP3   OH251789   4.749   3.099  13.041  0.3512  0.3559 -0.3361
10125TIP3    H151790   4.790   3.131  13.121 -0.0096  1.9532 -0.7774
10125TIP3    H251791   4.694   3.025  13.070  1.5299 -0.1635  0.6160
10126TIP3   OH251792   3.426   5.184   1.380  0.1110 -0.5112  0.2221
10126TIP3    H151793   3.437   5.260   1.438  0.0903 -1.0898  0.9997
10126TIP3    H251794   3.402   5.222   1.296  0.4084  0.3657  0.5174
10127TIP3   OH251795   5.430   5.515  13.229  0.1326 -0.3646  0.8686
10127TIP3    H151796   5.335   5.524  13.230 -0.5029 -4.3587 -3.8513
10127TIP3    H251797   5.451   5.467  13.309 -2.0388 -1.1554  0.9872
10128TIP3   OH251798   2.321   0.084  11.742  0.2566 -0.3851  0.1577
10128TIP3    H151799   2.331   0.054  11.832 -1.9957 -1.0237  0.2196
10128TIP3    H251800   2.293   0.175  11.751  1.6920  0.0769  0.0591
10129TIP3   OH251801   4.006   0.459   4.201 -0.5165  0.3589  0.0258
10129TIP3    H151802   3.961   0.487   4.121 -0.0979  1.4368  0.1571
10129TIP3    H251803   4.099   0.459   4.177 -0.3955  0.6292  0.4955
10130TIP3   OH251804   1.491   5.844  10.668 -0.6539  0.0231  0.4624
10130TIP3    H151805   1.534   5.792  10.736 -0.5688 -1.1399 -0.4588
10130TIP3    H251806   1.562   5.877  10.614 -0.6884  1.4160  1.2617
10131TIP3   OH251807   0.409   5.885  15.104  0.0191 -0.0433 -0.2029
10131TIP3    H151808   0.462   5.830  15.161  0.5398 -0.6976 -1.2956
10131TIP3    H251809   0.467   5.907  15.031 -0.8906  0.0800 -0.9016
10132TIP3   OH251810   5.287   2.732   3.363  0.2406  0.4315  0.0028
10132TIP3    H151811   5.354   2.770   3.306 -2.2002  2.3455 -1.6970
10132TIP3    H251812   5.206   2.742   3.314 -1.2952 -1.8983  2.0034
10133TIP3   OH251813   1.759   1.542   3.631  0.1292  0.2019  0.2081
10133TIP3    H151814   1.789   1.623   3.672  0.9667  1.5547 -2.9115
10133TIP3    H251815   1.669   1.560   3.604  0.4728  0.2804 -0.9160
10134TIP3   OH251816   5.408   2.528   2.447  0.2553 -0.0417  0.2552
10134TIP3    H151817   5.345   2.599   2.451 -0.0332 -0.2325 -0.8160
10134TIP3    H251818   5.425   2.515   2.354  1.3228 -0.4801  0.4928
10135TIP3   OH251819   6.612   4.395   4.176  0.0534  0.7281 -0.1904
10135TIP3    H151820   6.705   4.384   4.198 -0.4748 -0.6818  1.4348
10135TIP3    H251821   6.593   4.486   4.199  0.8227  0.7960  0.2093
10136TIP3   OH251822   0.344   0.034  14.270  0.1927  0.2712 -0.1035
10136TIP3    H151823   0.361   0.116  14.316 -1.1130  0.2016  0.5437
10136TIP3    H251824   0.294  -0.018  14.333 -1.6921  0.1989 -1.6158
10137TIP3   OH251825   4.411   1.901  17.009  0.1882 -0.1510 -0.1315
10137TIP3    H151826   4.463   1.826  17.039  0.8996 -0.2493 -1.5708
10137TIP3    H251827   4.443   1.919  16.921 -1.4629  0.4865 -0.6263
10138TIP3   OH251828   5.686   3.883  11.897 -0.3429 -0.3970 -0.6824
10138TIP3    H151829   5.717   3.973  11.881 -0.9021 -0.3199 -1.3695
10138TIP3    H251830   5.737   3.829  11.837 -1.2670 -0.3140 -1.5567
10139TIP3   OH251831   5.211   2.400  16.598  0.1613 -0.7710  0.7999
10139TIP3    H151832   5.242   2.435  16.682 -0.2928 -0.1195  0.6984
10139TIP3    H251833   5.214   2.305  16.610  1.4875 -0.7105  1.0464
10140TIP3   OH251834   4.623   4.147   3.865  0.2894 -0.3706  0.2205
10140TIP3    H151835   4.570   4.209   3.915 -0.5219 -0.9743  0.1263
10140TIP3    H251836   4.593   4.157   3.775  2.0858  1.0549 -0.2329
10141TIP3   OH251837   4.781   1.707   0.028  0.3892 -0.2485  0.3429
10141TIP3    H151838   4.825   1.698   0.113 -2.4055 -1.5106  1.7348
10141TIP3    H251839   4.716   1.775   0.042 -1.0572 -1.4687 -0.3665
10142TIP3   OH251840   5.474   2.505  10.881 -0.4380  0.3832 -0.1330
10142TIP3    H151841   5.382   2.495  10.905 -0.5100 -0.7769 -0.8210
10142TIP3    H251842   5.474   2.500  10.785  0.3797  0.0048 -0.1133
10143TIP3   OH251843   1.225   5.463  12.144 -0.0320  0.6603 -0.2573
10143TIP3    H151844   1.181   5.378  12.140  0.8750  0.2079 -0.8076
10143TIP3    H251845   1.155   5.525  12.164 -0.8881 -0.0706 -0.9421
10144TIP3   OH251846   3.910   4.128  15.174  1.2618 -0.0279  0.0241
10144TIP3    H151847   3.974   4.139  15.245  1.5866 -0.4496 -0.1989
10144TIP3    H251848   3.899   4.215  15.138 -0.1951  0.5184  1.7109
10145TIP3   OH251849   6.640   2.689  17.237  0.5775  0.0641 -0.5793
10145TIP3    H151850   6.646   2.642  17.320  0.3720  0.2435 -0.4606
10145TIP3    H251851   6.546   2.706  17.226  0.6845  0.7308 -0.4653
10146TIP3   OH251852   4.053   0.059   0.569 -0.3513  0.4558 -0.8013
10146TIP3    H151853   3.990   0.024   0.506 -0.0533 -0.1177 -0.7886
10146TIP3    H251854   4.135   0.063   0.521  0.0668 -0.7887 -0.2105
10147TIP3   OH251855   5.652   0.501   1.306  0.1533  0.1274  0.0561
10147TIP3    H151856   5.668   0.407   1.294 -1.5622 -0.0012 -1.3782
10147TIP3    H251857   5.620   0.508   1.396  0.9684 -0.5560  0.4110
10148TIP3   OH251858   6.413   0.114   4.089  0.0582 -0.5712 -0.1725
10148TIP3    H151859   6.446   0.031   4.123  1.7145  0.5348  0.9973
10148TIP3    H251860   6.476   0.139   4.022  1.0302  0.9958  1.2859
10149TIP3   OH251861   1.106   0.952   3.765  0.1952 -0.0750  0.0193
10149TIP3    H151862   1.174   1.016   3.787 -0.6039  0.3267  1.3760
10149TIP3    H251863   1.067   0.928   3.849 -1.3688 -0.2716 -0.7398
10150TIP3   OH251864   3.402   4.107  16.231  0.7964 -0.1649 -0.1732
10150TIP3    H151865   3.486   4.092  16.187  0.4840 -0.3510 -0.7182
10150TIP3    H251866   3.364   4.183  16.186  0.8845  0.2199  0.3877
10151TIP3   OH251867   1.705   3.428   5.364 -0.4825 -0.0889  0.2326
10151TIP3    H151868   1.750   3.378   5.296  1.0783  1.9223 -0.2719
10151TIP3    H251869   1.661   3.362   5.418  0.3710 -1.8784 -1.2226
10152TIP3   OH251870   0.344   5.344   3.485 -0.1673 -0.4879 -0.2796
10152TIP3    H151871   0.314   5.402   3.555 -1.8268 -1.6873  0.0115
10152TIP3    H251872   0.403   5.399   3.433 -0.1175  0.8580  1.1598
10153TIP3   OH251873   2.391   4.323   1.210  0.6480  0.2819  0.1934
10153TIP3    H151874   2.390   4.419   1.212 -0.2921  0.3122 -1.2724
10153TIP3    H251875   2.391   4.297   1.302 -1.4271  1.6644  0.6047
10154TIP3   OH251876   0.641   4.939   3.367 -0.4678  0.3126  0.1441
10154TIP3    H151877   0.697   5.000   3.414 -0.2373  0.2421 -0.0410
10154TIP3    H251878   0.552   4.964   3.393 -0.2837 -1.1336  2.3760
10155TIP3   OH251879   4.444   3.721  17.017 -0.0082  0.0245  0.5572
10155TIP3    H151880   4.536   3.742  17.037 -0.4060  0.6802  1.7606
10155TIP3    H251881   4.396   3.748  17.095 -1.3432  0.4427 -0.3964
10156TIP3   OH251882   6.502   5.632  13.977 -0.1091 -0.3882  0.1926
10156TIP3    H151883   6.573   5.613  13.915 -0.0171 -1.5064  0.6250
10156TIP3    H251884   6.530   5.711  14.022 -0.1172  0.3737 -1.1097
10157TIP3   OH251885   1.424   1.613  10.719  0.4150  0.2350 -0.1983
10157TIP3    H151886   1.489   1.625  10.650  1.0689 -1.4290  0.1092
10157TIP3    H251887   1.416   1.700  10.760  0.6367  1.0255 -1.7959
10158TIP3   OH251888   4.153   2.577  10.865 -0.1188 -0.0594 -0.1920
10158TIP3    H151889   4.085   2.642  10.848  0.5879  1.2498  1.7509
10158TIP3    H251890   4.225   2.601  10.806 -0.1197  0.5038  0.0368
10159TIP3   OH251891   2.501   6.705   0.955 -0.1102 -0.5290  0.2254
10159TIP3    H151892   2.490   6.685   1.048 -0.9595 -0.2093  0.1931
10159TIP3    H251893   2.546   6.789   0.955  0.5694 -0.8872  0.3465
10160TIP3   OH251894   4.772   0.997   0.221 -0.7896  0.1892  0.5524
10160TIP3    H151895   4.848   1.034   0.267 -1.3146  0.7636  0.9652
10160TIP3    H251896   4.697   1.046   0.255 -1.0281  1.7658 -2.1133
10161TIP3   OH251897   5.892   3.676  15.724  0.5426  0.3676 -0.1671
10161TIP3    H151898   5.889   3.582  15.704  4.7222  0.1615 -0.4053
10161TIP3    H251899   5.927   3.681  15.813 -0.6131  1.6804  0.2257
10162TIP3   OH251900   4.307   2.395   4.935 -0.0191 -0.2006  0.1586
10162TIP3    H151901   4.227   2.384   4.986 -0.9804  2.6978 -0.6125
10162TIP3    H251902   4.353   2.467   4.978  1.9005 -1.4329  0.2293
10163TIP3   OH251903   2.468   1.400   4.651 -0.2863 -0.1549  0.2391
10163TIP3    H151904   2.422   1.452   4.586 -1.5827 -1.0364  0.4483
10163TIP3    H251905   2.449   1.442   4.734 -0.3626 -0.2692  0.2792
10164TIP3   OH251906   1.611   6.663   3.826  0.1627 -0.3965  0.1264
10164TIP3    H151907   1.646   6.720   3.758  2.0400  0.1627  1.5258
10164TIP3    H251908   1.677   6.665   3.895 -1.2027 -1.8186  1.5022
10165TIP3   OH251909   2.775   4.616   5.170  0.5897 -0.1679 -0.8933
10165TIP3    H151910   2.844   4.550   5.167  0.4898 -0.2651 -1.0451
10165TIP3    H251911   2.817   4.695   5.137  0.6850 -0.1757 -0.7944
10166TIP3   OH251912   4.528   6.743   1.648 -0.5245  0.4390 -0.2926
10166TIP3    H151913   4.461   6.690   1.604 -0.2093 -0.3219  0.1416
10166TIP3    H251914   4.607   6.729   1.597 -0.0978 -0.6386  0.6545
10167TIP3   OH251915   1.548   1.281   3.356  0.0041 -0.2683  0.1710
10167TIP3    H151916   1.478   1.217   3.351  0.4346 -0.9452  2.4323
10167TIP3    H251917   1.600   1.266   3.277 -2.7876  0.7932 -1.9825
10168TIP3   OH251918   0.618   0.210  12.796  0.0921  0.0121  0.1665
10168TIP3    H151919   0.603   0.303  12.812 -1.3870 -0.4368  1.4940
10168TIP3    H251920   0.557   0.186  12.727  0.3987 -0.0082 -0.1023
10169TIP3   OH251921   3.249   5.673  12.578 -0.2082 -0.4131  0.4976
10169TIP3    H151922   3.191   5.657  12.653 -1.0626 -0.0788 -0.0742
10169TIP3    H251923   3.316   5.732  12.611 -1.7416  1.3843  0.4900
10170TIP3   OH251924   5.949   4.723  11.003  0.0112  0.4396  0.0142
10170TIP3    H151925   5.979   4.784  11.071 -2.2032  1.4579  0.1301
10170TIP3    H251926   5.863   4.694  11.033 -0.4729 -0.0393 -1.7604
10171TIP3   OH251927   2.556   4.768  13.638  0.2383 -0.0833 -0.3986
10171TIP3    H151928   2.612   4.768  13.560 -0.1928  0.2357 -0.7132
10171TIP3    H251929   2.483   4.711  13.615  1.5634 -2.3518  0.8521
10172TIP3   OH251930   3.208   6.581  14.364 -0.5750  0.4180  0.0080
10172TIP3    H151931   3.145   6.642  14.328  0.5155  1.4984 -0.0976
10172TIP3    H251932   3.170   6.494  14.348 -1.5712  1.0165 -0.8873
10173TIP3   OH251933   0.871   6.165  11.750  0.6852 -0.3488 -0.3786
10173TIP3    H151934   0.795   6.209  11.711  1.0790 -1.0906 -2.0204
10173TIP3    H251935   0.839   6.133  11.834 -1.3344 -2.0455 -1.7166
10174TIP3   OH251936   4.159   6.345   3.326 -0.1306  0.2047  0.3184
10174TIP3    H151937   4.097   6.371   3.394 -0.7848 -4.0343  1.4959
10174TIP3    H251938   4.244   6.378   3.357 -0.7909  0.3894  1.9810
10175TIP3   OH251939   4.879   4.108   3.781  0.0047  0.3591 -0.6443
10175TIP3    H151940   4.858   4.132   3.691  0.1757  3.8330  0.1585
10175TIP3    H251941   4.795   4.103   3.825 -0.1267 -2.0326 -1.1195
10176TIP3   OH251942   0.562   6.246  14.031  0.5753 -0.4325  0.0431
10176TIP3    H151943   0.512   6.323  14.004  2.4428  0.3086 -1.3828
10176TIP3    H251944   0.547   6.182  13.962  0.9070 -0.5174  0.0495
10177TIP3   OH251945   3.554   0.719   0.553  0.2403  0.2055 -0.2156
10177TIP3    H151946   3.512   0.758   0.629  1.0933 -1.4113  1.1200
10177TIP3    H251947   3.586   0.793   0.502 -0.2000  1.2985  1.0816
10178TIP3   OH251948   4.330   4.593  12.295  0.0845  0.4256  0.2494
10178TIP3    H151949   4.276   4.620  12.221  0.8789  0.7411 -0.2254
10178TIP3    H251950   4.282   4.520  12.335  0.6621 -1.1300 -1.8408
10179TIP3   OH251951   4.628   5.437  13.854  0.2098  0.1176 -0.1980
10179TIP3    H151952   4.596   5.399  13.772 -0.2376  3.5337 -1.6949
10179TIP3    H251953   4.581   5.390  13.923 -0.6833 -1.6290 -1.9427
10180TIP3   OH251954   0.688   2.711   3.569  0.7491 -0.0400  0.3543
10180TIP3    H151955   0.745   2.778   3.605  0.0609  0.9536 -0.3615
10180TIP3    H251956   0.611   2.759   3.537  0.1321 -1.1885  0.0520
10181TIP3   OH251957   1.300   4.772  12.931  0.2006  1.2833 -0.2580
10181TIP3    H151958   1.372   4.795  12.873  1.2713 -0.2537  0.4527
10181TIP3    H251959   1.268   4.688  12.898  0.8850  0.3398  1.4148
10182TIP3   OH251960   1.344   6.584   0.432 -0.2634  0.1361 -0.1491
10182TIP3    H151961   1.281   6.599   0.502 -1.9735 -0.6498 -1.4849
10182TIP3    H251962   1.411   6.651   0.445 -2.6577  2.5987 -0.1680
10183TIP3   OH251963   2.576   5.095  13.473 -0.5967 -0.0900  0.2877
10183TIP3    H151964   2.539   5.026  13.418  0.7900 -0.7080  0.1175
10183TIP3    H251965   2.574   5.173  13.417 -0.4463 -0.4077 -0.1668
10184TIP3   OH251966   5.450   4.120   2.569 -0.2829  0.1784  0.2353
10184TIP3    H151967   5.523   4.178   2.589 -1.0820  0.8568  1.2572
10184TIP3    H251968   5.441   4.066   2.647  0.2305 -1.0917 -0.5771
10185TIP3   OH251969   6.746   6.482  11.720  0.4253 -0.1667  0.0270
10185TIP3    H151970   6.682   6.491  11.790  0.1580 -1.3248 -0.0737
10185TIP3    H251971   6.816   6.544  11.744 -0.6073  0.9177  0.2519
10186TIP3   OH251972   3.400   6.289   1.378  0.1725 -0.4115  0.5895
10186TIP3    H151973   3.373   6.311   1.288  1.2220  0.3002  0.4382
10186TIP3    H251974   3.319   6.294   1.429 -0.2137  0.4762 -0.0818
10187TIP3   OH251975   5.403   2.570   1.158 -0.0010  0.1124  0.3228
10187TIP3    H151976   5.451   2.617   1.090 -0.3363  1.3089  0.8865
10187TIP3    H251977   5.314   2.562   1.123 -0.2066  0.8461  0.6660
10188TIP3   OH251978   4.746   3.312  14.177  0.1489  0.2668 -0.0959
10188TIP3    H151979   4.694   3.379  14.221 -1.7445 -1.5695  0.5450
10188TIP3    H251980   4.810   3.285  14.243  0.5975  1.0880 -0.1906
10189TIP3   OH251981   1.974   2.873   0.794 -0.0255 -0.2264  0.0831
10189TIP3    H151982   2.011   2.952   0.756  0.1466  0.4586  1.6493
10189TIP3    H251983   2.007   2.802   0.738  2.7461  0.4668  0.7465
10190TIP3   OH251984   5.919   5.118  13.907  0.0021 -0.1741  0.0650
10190TIP3    H151985   6.006   5.115  13.948 -0.0356  0.6184  0.1978
10190TIP3    H251986   5.859   5.131  13.981 -0.1160  0.6600 -0.1801
10191TIP3   OH251987   3.909   5.553  15.613 -0.2170  0.3963 -0.4303
10191TIP3    H151988   4.002   5.536  15.596 -0.3056  0.4300 -0.9636
10191TIP3    H251989   3.870   5.466  15.623 -0.4074  0.3274 -1.7293
10192TIP3   OH251990   0.303   4.651  15.994  0.7619  0.3830 -0.2658
10192TIP3    H151991   0.213   4.648  16.025  0.4787 -0.1378 -1.1221
10192TIP3    H251992   0.344   4.722  16.044 -0.7754  2.2610 -1.5800
10193TIP3   OH251993   2.885   0.710   4.214 -0.2294  0.1976  0.0285
10193TIP3    H151994   2.959   0.702   4.153 -1.0288  0.7439 -1.0244
10193TIP3    H251995   2.842   0.625   4.212  0.6280 -0.2750  0.9991
10194TIP3   OH251996   0.831   1.628  11.947  0.4244  0.5163 -0.1807
10194TIP3    H151997   0.778   1.631  12.027  1.1144  1.4165  0.2455
10194TIP3    H251998   0.887   1.551  11.958 -0.0272  0.1862 -0.1552
10195TIP3   OH251999   4.386   6.362   0.027 -0.2868  0.4114 -0.3402
10195TIP3    H152000   4.292   6.374   0.009 -0.6545 -2.1787 -0.3453
10195TIP3    H252001   4.421   6.322  -0.052  0.7866  1.1129 -0.2274
10196TIP3   OH252002   2.200   0.187   6.437 -0.9224 -0.2439  1.1088
10196TIP3    H152003   2.247   0.243   6.498  0.8737 -0.9950  0.4430
10196TIP3    H252004   2.172   0.112   6.489  1.0817 -1.1489  0.9396
10197TIP3   OH252005   0.562   1.465  14.765  0.0949 -0.3837  0.4166
10197TIP3    H152006   0.519   1.536  14.718  0.7344  0.1624  0.6512
10197TIP3    H252007   0.610   1.417  14.699  1.6038  0.8298  0.6188
10198TIP3   OH252008   1.305   0.594  13.561 -0.9671 -0.4284  0.1167
10198TIP3    H152009   1.371   0.547  13.612 -2.4237 -2.3133  0.3510
10198TIP3    H252010   1.311   0.555  13.473 -2.1414 -1.0413  0.2966
10199TIP3   OH252011   2.587   5.205   1.366  0.3768  0.2210 -0.5006
10199TIP3    H152012   2.517   5.161   1.317 -0.9733  0.7682  0.8898
10199TIP3    H252013   2.655   5.138   1.376 -1.1613 -1.2213  0.5845
10200TIP3   OH252014   6.145   2.936  11.276 -0.0268  0.0551  0.9093
10200TIP3    H152015   6.083   3.002  11.243  2.4643  1.3252 -1.3707
10200TIP3    H252016   6.162   2.880  11.201  2.8282  0.7120  1.0330
10201TIP3   OH252017   1.900   1.224   3.821  0.2467 -0.6339  0.3019
10201TIP3    H152018   1.900   1.139   3.866  1.1758  0.0601  1.6481
10201TIP3    H252019   1.844   1.211   3.744 -0.7089 -2.0737  1.2256
10202TIP3   OH252020   0.502   0.404   3.604 -0.1535  0.4149 -0.1509
10202TIP3    H152021   0.562   0.349   3.554  0.4268  0.4496  0.5111
10202TIP3    H252022   0.545   0.417   3.688 -0.8449  0.8787  0.1345
10203TIP3   OH252023   5.705   0.731   3.187  0.1226  0.6003 -0.3935
10203TIP3    H152024   5.678   0.821   3.206  1.7614  0.7966  1.2418
10203TIP3    H252025   5.750   0.703   3.267  0.6999 -1.2422 -1.3435
10204TIP3   OH252026   1.291   5.963   1.399 -0.0991 -0.1097 -0.4707
10204TIP3    H152027   1.335   5.878   1.404  3.8849  1.6404 -3.1910
10204TIP3    H252028   1.256   5.966   1.310  0.8397  1.5343 -0.8004
10205TIP3   OH252029   5.223   5.093   4.943  0.0538  0.7063  0.4727
10205TIP3    H152030   5.223   5.161   5.011 -0.2225  2.1174 -0.9046
10205TIP3    H252031   5.169   5.130   4.873 -1.0158 -1.4257  0.1596
10206TIP3   OH252032   3.110   5.134   2.940  0.3848 -0.9184  0.4289
10206TIP3    H152033   3.147   5.148   3.027 -0.7038 -0.4804  0.8440
10206TIP3    H252034   3.066   5.217   2.919  0.6195 -1.0296 -0.5222
10207TIP3   OH252035   3.322   2.530  13.925  0.7628 -0.3870 -0.2447
10207TIP3    H152036   3.238   2.487  13.942  1.3649 -1.3274  0.3969
10207TIP3    H252037   3.344   2.572  14.009  0.7639  0.1658 -0.5188
10208TIP3   OH252038   3.723   4.979  15.290 -0.0868 -0.4694 -0.4687
10208TIP3    H152039   3.640   4.931  15.284 -0.7229  0.5493 -0.0490
10208TIP3    H252040   3.697   5.071  15.278  1.0215 -0.1700 -0.5871
10209TIP3   OH252041   0.630   1.488   5.385  0.3096 -0.0347  0.5817
10209TIP3    H152042   0.580   1.408   5.400  1.1716 -0.6982 -0.0152
10209TIP3    H252043   0.565   1.558   5.384 -0.6078 -0.8929 -0.2874
10210TIP3   OH252044   0.944   6.549   6.756  0.6339 -0.2072  0.1650
10210TIP3    H152045   0.884   6.508   6.818  1.3450  0.2006  1.1210
10210TIP3    H252046   0.898   6.627   6.726  1.1595  0.7628  1.8124
10211TIP3   OH252047   1.470   3.937  12.517  0.3446  0.1037  0.6067
10211TIP3    H152048   1.406   3.991  12.471 -0.1525  0.2753  1.4989
10211TIP3    H252049   1.553   3.955  12.471 -0.4316 -0.9756 -1.2564
10212TIP3   OH252050   4.826   3.171  15.947 -0.2198 -0.1982  0.1455
10212TIP3    H152051   4.784   3.158  15.862 -0.1857 -0.1094  0.1155
10212TIP3    H252052   4.827   3.266  15.959 -1.3083 -0.2553  0.7826
10213TIP3   OH252053   2.257   0.818   2.920  0.0618  0.0282  0.0483
10213TIP3    H152054   2.312   0.807   2.998  0.0770 -0.5178 -0.0367
10213TIP3    H252055   2.190   0.880   2.947  0.6600  0.6150  0.1870
10214TIP3   OH252056   1.096   4.069  11.102  0.6459  0.1907  0.1050
10214TIP3    H152057   1.136   4.118  11.030 -0.1687 -0.1803 -0.6053
10214TIP3    H252058   1.137   3.982  11.097  0.4952  0.1254  0.0074
10215TIP3   OH252059   4.839   0.582  11.965 -0.3540 -0.4050  0.5430
10215TIP3    H152060   4.931   0.600  11.947 -0.7630 -0.1489 -1.4076
10215TIP3    H252061   4.796   0.666  11.954 -0.7912 -0.4699  1.7201
10216TIP3   OH252062   3.425   2.590   4.062  0.1393  0.3339 -0.1918
10216TIP3    H152063   3.460   2.674   4.093  1.1771 -0.6409  1.3460
10216TIP3    H252064   3.360   2.614   3.996 -0.2275  2.3881  0.8781
10217TIP3   OH252065   5.808   2.821  14.941 -0.5376  0.3768 -0.2962
10217TIP3    H152066   5.782   2.909  14.915  1.4807  0.8695 -0.6958
10217TIP3    H252067   5.815   2.772  14.859  2.3929  0.9899 -0.4649
10218TIP3   OH252068   6.690   5.825  15.050 -0.1651 -0.1777  0.0791
10218TIP3    H152069   6.662   5.783  15.131  0.7752  1.9113  1.5355
10218TIP3    H252070   6.781   5.798  15.040  1.1618  3.1236  2.2231
10219TIP3   OH252071   6.487   4.533  13.228 -0.1629  0.9063  0.2903
10219TIP3    H152072   6.582   4.528  13.238 -0.0999  0.9874 -0.2616
10219TIP3    H252073   6.473   4.540  13.134 -0.7411  0.2967  0.3229
10220TIP3   OH252074   0.942   1.837  14.587  0.2315  0.4864  0.4807
10220TIP3    H152075   0.883   1.818  14.660  1.0350  1.5259  1.4300
10220TIP3    H252076   0.996   1.758  14.579 -0.6211 -0.0833  0.2412
10221TIP3   OH252077   3.450   5.649   1.547 -0.1735  0.2004  0.4231
10221TIP3    H152078   3.537   5.623   1.578 -0.5422 -1.0034  0.4914
10221TIP3    H252079   3.390   5.616   1.615 -0.6463  1.5544  0.6854
10222TIP3   OH252080   5.109   6.707  11.030 -0.4219  0.7866  0.5155
10222TIP3    H152081   5.152   6.782  10.990  0.1590  0.8823  1.3272
10222TIP3    H252082   5.161   6.686  11.107 -0.8135 -0.1922  0.5308
10223TIP3   OH252083   1.706   6.516  12.121  0.3571 -0.0060 -0.0674
10223TIP3    H152084   1.670   6.431  12.098 -0.4916  0.3722 -0.1284
10223TIP3    H252085   1.630   6.573  12.132  0.8870  0.5543  0.7376
10224TIP3   OH252086   1.140   0.053  16.661  0.0829 -0.5548 -0.3735
10224TIP3    H152087   1.056   0.037  16.702  1.2949 -1.0307  2.0195
10224TIP3    H252088   1.167  -0.033  16.627 -0.1564 -0.5142 -0.6631
10225TIP3   OH252089   1.715   2.942   4.233 -0.4151  0.1841 -0.2415
10225TIP3    H152090   1.773   2.867   4.219  0.0237  0.5396 -0.3343
10225TIP3    H252091   1.685   2.966   4.145 -1.6445 -0.7362 -0.0924
10226TIP3   OH252092   6.663   1.367   5.979  0.3716 -0.4664 -0.1795
10226TIP3    H152093   6.597   1.301   5.999  0.6494 -0.0756  2.1478
10226TIP3    H252094   6.651   1.434   6.045  3.0626 -0.3530  0.2708
10227TIP3   OH252095   1.422   2.805   5.782 -0.1905 -0.2312  0.0867
10227TIP3    H152096   1.464   2.731   5.827  1.6023  0.6804 -0.0185
10227TIP3    H252097   1.385   2.858   5.853  1.4797  0.5147  0.4324
10228TIP3   OH252098   1.635   6.688   3.409  0.6222  0.2131  0.3620
10228TIP3    H152099   1.704   6.718   3.350 -0.1779  2.1468  0.3662
10228TIP3    H252100   1.604   6.606   3.371  0.8658  0.8758 -1.2940
10229TIP3   OH252101   5.618   6.090   2.224  0.3863  0.0772  0.2889
10229TIP3    H152102   5.567   6.171   2.222 -0.0367 -0.1544  1.3043
10229TIP3    H252103   5.663   6.088   2.139  0.7351  1.5866  0.4207
10230TIP3   OH252104   6.432   2.668  12.488 -0.1032  0.6472  0.3695
10230TIP3    H152105   6.513   2.708  12.457  0.3770  0.1936  1.0333
10230TIP3    H252106   6.426   2.585  12.440 -0.2621  0.7532  0.2041
10231TIP3   OH252107   6.266   6.298   0.822  0.0003  0.0589  0.1364
10231TIP3    H152108   6.255   6.392   0.839  0.7517  0.7383 -2.7660
10231TIP3    H252109   6.201   6.256   0.877 -2.2044  2.5020 -0.4721
10232TIP3   OH252110   3.270   3.576  12.084  0.2675 -0.2400  0.1299
10232TIP3    H152111   3.327   3.632  12.135 -0.4448  0.7239 -0.1235
10232TIP3    H252112   3.190   3.568  12.136  0.7333 -1.8608  0.6434
10233TIP3   OH252113   6.163   5.192   5.782 -0.3571 -0.5683  0.0584
10233TIP3    H152114   6.149   5.195   5.877 -0.2145  0.3752  0.0575
10233TIP3    H252115   6.108   5.120   5.752 -1.6513  0.1552  0.6593
10234TIP3   OH252116   0.608   4.441   1.473  1.0381  0.2698 -0.4305
10234TIP3    H152117   0.682   4.452   1.413  1.0276 -0.0639 -0.5091
10234TIP3    H252118   0.637   4.373   1.534  0.7467  0.0428 -0.5436
10235TIP3   OH252119   4.185   0.672   1.904  0.2698 -0.3746  0.2748
10235TIP3    H152120   4.207   0.756   1.945 -1.0379 -1.2194  2.8489
10235TIP3    H252121   4.254   0.612   1.934 -0.2957 -0.8247  0.7088
10236TIP3   OH252122   5.757   1.167   3.920 -0.3866 -0.1901 -0.3898
10236TIP3    H152123   5.790   1.112   3.849 -2.5089  0.4431 -1.9500
10236TIP3    H252124   5.702   1.232   3.876  0.4705  1.9526  1.6015
10237TIP3   OH252125   4.765   2.694   1.264 -0.8558  0.1618 -0.3120
10237TIP3    H152126   4.779   2.601   1.248  0.9391  0.6473 -1.6784
10237TIP3    H252127   4.686   2.697   1.319 -0.3057 -2.2085  0.6840
10238TIP3   OH252128   1.109   1.775   3.999  0.2530 -0.8519 -0.3180
10238TIP3    H152129   1.025   1.810   3.970  0.6702 -1.6323 -2.5388
10238TIP3    H252130   1.090   1.737   4.085 -1.3454  0.2434 -0.1615
10239TIP3   OH252131   4.101   1.354   0.224 -0.8237  0.0922 -0.4902
10239TIP3    H152132   4.030   1.370   0.286 -0.0461  0.5157  0.3221
10239TIP3    H252133   4.167   1.420   0.247 -0.5585  0.3113 -1.8382
10240TIP3   OH252134   5.636   3.202   2.014 -0.3686 -0.3472 -0.1530
10240TIP3    H152135   5.574   3.160   2.074  0.6805 -0.6291  0.7393
10240TIP3    H252136   5.720   3.160   2.032  0.9634  2.8536  1.5579
10241TIP3   OH252137   2.082   5.332  16.396  0.4879  0.3335 -0.3925
10241TIP3    H152138   2.147   5.316  16.465  0.1462 -0.4993 -0.2540
10241TIP3    H252139   2.114   5.281  16.321 -0.7738 -1.3159  0.1521
10242TIP3   OH252140   1.180   6.055  10.636  0.4044 -1.0786  0.4107
10242TIP3    H152141   1.225   6.100  10.565 -2.4262  0.8531 -0.2388
10242TIP3    H252142   1.220   6.091  10.716  1.0939 -0.5442 -0.1717
10243TIP3   OH252143   4.693   4.622  10.387  0.1031  0.5824 -0.1277
10243TIP3    H152144   4.785   4.637  10.408 -0.1272 -0.4310  1.6912
10243TIP3    H252145   4.695   4.560  10.314  0.8682  1.0776 -0.5312
10244TIP3   OH252146   5.616   4.649   0.544  0.3755 -0.4468  0.1511
10244TIP3    H152147   5.701   4.691   0.557  0.6836 -1.5449  1.8271
10244TIP3    H252148   5.554   4.722   0.532  1.6811  0.3356 -2.1640
10245TIP3   OH252149   0.862   6.452   3.076 -1.0327  0.4706  0.0576
10245TIP3    H152150   0.856   6.539   3.117 -0.9980  1.6455 -2.3447
10245TIP3    H252151   0.956   6.440   3.061 -0.6967 -1.3973  3.2187
10246TIP3   OH252152   6.060   3.318  11.912  0.1477  0.2165  0.2061
10246TIP3    H152153   6.080   3.244  11.855 -0.6038  0.8035 -0.8211
10246TIP3    H252154   6.145   3.350  11.942  0.5293 -0.1453 -0.4971
10247TIP3   OH252155   6.703   3.167  14.295  0.1699 -0.1372  0.1357
10247TIP3    H152156   6.613   3.173  14.327  0.6263  0.3704  1.3393
10247TIP3    H252157   6.719   3.252  14.253 -0.0147 -0.3450 -0.3584
10248TIP3   OH252158   4.282   1.517   0.583  0.7463  0.3684  0.1552
10248TIP3    H152159   4.363   1.566   0.598  0.1738  1.0465  1.0766
10248TIP3    H252160   4.240   1.512   0.669  0.2641 -0.7972 -0.1399
10249TIP3   OH252161   2.665   3.780   4.052  0.3039 -0.3009  0.3673
10249TIP3    H152162   2.622   3.699   4.077  0.3360 -0.2510  0.5869
10249TIP3    H252163   2.594   3.837   4.022  0.0656  0.1701  1.7550
10250TIP3   OH252164   3.627   1.966  11.787  0.2272  0.2099 -0.6026
10250TIP3    H152165   3.666   1.919  11.713  0.0577  0.6264 -0.9637
10250TIP3    H252166   3.533   1.953  11.776 -0.0213  2.9826 -2.3538
10251TIP3   OH252167   3.382   3.399   0.370 -0.1788 -0.0483  0.0734
10251TIP3    H152168   3.430   3.316   0.381 -1.1448 -0.5142  0.8487
10251TIP3    H252169   3.322   3.382   0.298  0.7169  0.4926 -0.8082
10252TIP3   OH252170   0.293   3.236   2.997 -0.1753 -0.6287  0.1574
10252TIP3    H152171   0.377   3.267   3.031 -0.9087  0.0954  1.3304
10252TIP3    H252172   0.281   3.285   2.915  0.7417 -1.0619 -0.2489
10253TIP3   OH252173   6.511   0.956  15.705  0.1206  0.3445  0.3013
10253TIP3    H152174   6.497   1.049  15.719  1.2364  0.3229  1.6454
10253TIP3    H252175   6.424   0.917  15.714 -0.2213  1.1553  0.5517
10254TIP3   OH252176   4.127   0.522   2.238 -0.6248 -0.2247 -0.8297
10254TIP3    H152177   4.219   0.546   2.230 -0.2553 -1.2864  0.2310
10254TIP3    H252178   4.098   0.562   2.320 -0.7729 -0.9666 -0.5195
10255TIP3   OH252179   0.963   6.620  15.642 -0.3485  0.4025  0.0523
10255TIP3    H152180   1.022   6.585  15.709  0.4038 -0.7901 -1.2178
10255TIP3    H252181   0.946   6.710  15.670 -0.0078 -0.0747  1.8190
10256TIP3   OH252182   4.037   4.925   0.357 -0.1136 -0.2586  0.2109
10256TIP3    H152183   4.012   4.986   0.288  0.6004 -1.2098 -0.8998
10256TIP3    H252184   4.056   4.843   0.311  1.2623 -0.6479  1.4402
10257TIP3   OH252185   6.448   6.527   4.580 -0.2636 -0.1468 -0.3391
10257TIP3    H152186   6.484   6.583   4.511 -1.4889  0.4765 -0.4817
10257TIP3    H252187   6.524   6.477   4.612  1.0613  2.3816  0.5731
10258TIP3   OH252188   3.544   1.147   3.015  0.3388 -0.4632 -0.1872
10258TIP3    H152189   3.472   1.095   2.979  0.3003 -0.7780  0.3403
10258TIP3    H252190   3.559   1.215   2.950 -2.5289  1.5511  1.1284
10259TIP3   OH252191   0.301   1.594  13.143 -0.3191 -0.1005 -0.1435
10259TIP3    H152192   0.206   1.602  13.135 -0.3703  1.5457  1.4919
10259TIP3    H252193   0.336   1.668  13.093  0.1800 -1.3776 -1.7346
10260TIP3   OH252194   6.427   5.447   0.915 -0.5276  0.3468  0.4266
10260TIP3    H152195   6.479   5.395   0.976 -1.3484  0.3653  1.1490
10260TIP3    H252196   6.373   5.503   0.971  0.3760  2.0049 -0.3540
10261TIP3   OH252197   6.372   2.356   0.099  0.1650  0.1884  0.2301
10261TIP3    H152198   6.460   2.328   0.074 -0.1519 -2.1441  1.5303
10261TIP3    H252199   6.379   2.378   0.191 -0.0664  2.4991 -0.2902
10262TIP3   OH252200   0.913   2.036   4.967 -1.0844  0.2552 -0.1957
10262TIP3    H152201   0.985   2.067   4.913  1.2023 -1.4855  1.7492
10262TIP3    H252202   0.860   2.114   4.985  0.7984  1.7196 -0.9396
10263TIP3   OH252203   4.756   4.232   5.253  0.3028 -0.6459  0.0910
10263TIP3    H152204   4.825   4.197   5.197  0.6864 -0.6898  0.5853
10263TIP3    H252205   4.725   4.156   5.302  1.2414 -0.2727  1.2773
10264TIP3   OH252206   5.142   0.680   4.675 -0.2574 -0.1827 -0.1249
10264TIP3    H152207   5.209   0.711   4.614 -1.3496  1.1316 -0.6728
10264TIP3    H252208   5.186   0.612   4.726  1.1139 -0.2249 -1.3398
10265TIP3   OH252209   3.661   3.633   0.443  0.5321 -0.0817 -0.1254
10265TIP3    H152210   3.639   3.700   0.507 -3.5528 -1.6580  0.2490
10265TIP3    H252211   3.638   3.672   0.358  2.8811  0.7889 -0.4000
10266TIP3   OH252212   4.961   3.305   1.946  0.1796 -0.4926  0.3647
10266TIP3    H152213   5.054   3.284   1.958  0.6015  1.4457  0.7035
10266TIP3    H252214   4.961   3.382   1.890 -1.3701 -2.2661 -2.1910
10267TIP3   OH252215   5.051   0.189  10.838 -0.0392 -0.1442 -0.1750
10267TIP3    H152216   4.984   0.239  10.791  0.0495 -0.5933 -0.7747
10267TIP3    H252217   5.134   0.228  10.809  0.1254 -1.8052 -2.0226
10268TIP3   OH252218   4.223   0.044   3.536 -0.5347 -0.5901 -0.7020
10268TIP3    H152219   4.210  -0.021   3.467  0.1747 -2.5200  0.9336
10268TIP3    H252220   4.306   0.086   3.515 -0.2788 -1.2313 -0.9694
10269TIP3   OH252221   1.520   0.819   4.001  0.2295  0.5935 -0.4308
10269TIP3    H152222   1.541   0.741   4.052 -1.0796 -0.5891 -1.6539
10269TIP3    H252223   1.604   0.859   3.983  0.9598 -0.7979 -0.1792
10270TIP3   OH252224   3.811   0.504  14.455  0.7041  0.3524  0.2666
10270TIP3    H152225   3.868   0.476  14.527 -1.7332 -1.6624  1.4906
10270TIP3    H252226   3.740   0.552  14.497  0.0698  0.5177 -0.9648
10271TIP3   OH252227   5.598   5.221  15.226  0.3054 -0.1487  0.7068
10271TIP3    H152228   5.538   5.159  15.185  1.1357 -0.3663 -0.1705
10271TIP3    H252229   5.649   5.168  15.287 -0.1220 -0.0294  1.1759
10272TIP3   OH252230   6.200   5.636  10.764  0.3217  0.3172 -0.0678
10272TIP3    H152231   6.219   5.721  10.805  1.2274 -0.4056  1.0670
10272TIP3    H252232   6.281   5.613  10.718  1.2607 -1.4385  2.3678
10273TIP3   OH252233   1.741   1.926  17.204  0.4017 -0.6446  0.2936
10273TIP3    H152234   1.712   2.001  17.153 -1.2806 -0.8488  0.9019
10273TIP3    H252235   1.733   1.955  17.295 -0.1199 -1.4987  0.5287
10274TIP3   OH252236   0.490   6.610  14.459  0.6284  0.1692 -0.5160
10274TIP3    H152237   0.449   6.578  14.378  0.8828 -1.5195  0.0088
10274TIP3    H252238   0.443   6.691  14.478 -1.1814 -0.7335 -0.9770
10275TIP3   OH252239   5.430   2.132   3.141 -0.6776  0.1833  0.5301
10275TIP3    H152240   5.407   2.178   3.222 -0.5974  0.5301  0.3582
10275TIP3    H252241   5.481   2.196   3.091 -2.7201  0.7758 -0.8148
10276TIP3   OH252242   2.163   2.677  11.159 -0.2383  0.3030  0.6905
10276TIP3    H152243   2.255   2.690  11.133 -0.4177  0.8183  0.3099
10276TIP3    H252244   2.123   2.763  11.151 -1.2495 -0.2927 -1.1346
10277TIP3   OH252245   6.538   6.784  10.713  0.5406  0.3821  0.1600
10277TIP3    H152246   6.610   6.840  10.740 -1.1222  3.4552 -1.5255
10277TIP3    H252247   6.459   6.832  10.738 -0.9463 -1.4900 -0.7867
10278TIP3   OH252248   5.608   3.106   1.305  0.0686 -0.0125 -0.4392
10278TIP3    H152249   5.644   3.173   1.363  2.3548 -0.9046 -0.7482
10278TIP3    H252250   5.589   3.032   1.363  0.7492 -0.2916 -0.5619
10279TIP3   OH252251   0.970   0.422   0.213 -0.5923  0.0338 -0.0134
10279TIP3    H152252   0.986   0.328   0.223 -0.5648 -0.0882 -1.0825
10279TIP3    H252253   1.053   0.456   0.180 -0.5028  0.4926  0.6751
10280TIP3   OH252254   5.095   4.644  14.388  0.1824 -0.5502 -0.3625
10280TIP3    H152255   5.033   4.598  14.444 -0.4181 -1.1199 -1.4881
10280TIP3    H252256   5.106   4.588  14.312  1.7914 -0.2798 -0.3608
10281TIP3   OH252257   5.676   6.736  16.280 -0.2206  0.2979 -0.5857
10281TIP3    H152258   5.638   6.650  16.262  0.9049 -0.0707 -1.2067
10281TIP3    H252259   5.742   6.720  16.347 -1.4045  1.0108  0.7982
10282TIP3   OH252260   0.905   5.885  12.770  0.6171  0.6717 -0.1625
10282TIP3    H152261   0.961   5.830  12.825  0.1395  1.8939  1.5987
10282TIP3    H252262   0.876   5.828  12.699  3.4693 -0.1857 -0.6849
10283TIP3   OH252263   6.567   3.820  14.715 -0.7764 -0.0976 -0.1746
10283TIP3    H152264   6.580   3.726  14.729 -1.1772 -0.5342 -2.4862
10283TIP3    H252265   6.614   3.838  14.633  1.1379  2.1723  1.3659
10284TIP3   OH252266   3.625   4.588  10.979 -0.6056  0.3050 -0.1976
10284TIP3    H152267   3.640   4.658  11.042  0.7477 -2.5686  2.8215
10284TIP3    H252268   3.530   4.572  10.983 -0.4131 -0.4777  1.8671
10285TIP3   OH252269   1.334   0.045   5.733 -0.2235 -0.2627  0.1288
10285TIP3    H152270   1.399  -0.016   5.768 -0.4904 -0.7594 -0.2244
10285TIP3    H252271   1.252   0.020   5.777 -0.3190 -0.1133  0.0351
10286TIP3   OH252272   4.063   6.219   0.601  0.1518  0.0849 -0.0198
10286TIP3    H152273   3.997   6.149   0.604  1.7595 -1.5638 -1.5083
10286TIP3    H252274   4.039   6.272   0.526 -0.0852  0.1246  0.0835
10287TIP3   OH252275   1.554   2.283   3.961  0.1081 -0.6924  0.2754
10287TIP3    H152276   1.566   2.292   4.055  0.9607 -0.3459  0.1435
10287TIP3    H252277   1.643   2.288   3.925 -0.3684  1.2475 -0.6971
10288TIP3   OH252278   0.232   2.244  14.720  0.0782  0.0029 -0.4095
10288TIP3    H152279   0.314   2.227  14.672 -0.3795 -0.2426 -1.1101
10288TIP3    H252280   0.165   2.247  14.653 -0.3143  1.5730  0.0253
10289TIP3   OH252281   5.127   0.422   0.864 -0.2217 -0.0937 -0.5189
10289TIP3    H152282   5.098   0.424   0.773  1.1979  2.4879 -0.9794
10289TIP3    H252283   5.064   0.366   0.908 -2.4567  0.6787 -2.5776
10290TIP3   OH252284   5.718   1.665  11.659  0.1037 -0.9893 -0.3215
10290TIP3    H152285   5.691   1.757  11.669 -0.0148 -1.1198  0.5862
10290TIP3    H252286   5.699   1.625  11.744  0.5887 -1.7490 -0.5672
10291TIP3   OH252287   1.381   0.542  14.516  0.1506 -0.0044  0.7651
10291TIP3    H152288   1.305   0.498  14.554  0.0682  0.6072  1.3120
10291TIP3    H252289   1.353   0.632  14.503 -0.1164 -0.4034 -1.5751
10292TIP3   OH252290   5.323   0.280   2.383  0.2952  0.1613  0.1802
10292TIP3    H152291   5.391   0.231   2.429  1.6478  1.7801 -0.0765
10292TIP3    H252292   5.303   0.353   2.441 -2.0468 -0.8925  0.7678
10293TIP3   OH252293   0.217   0.754   4.989 -0.3478 -0.0060  0.0130
10293TIP3    H152294   0.178   0.668   5.002 -0.6184 -0.0422 -0.9279
10293TIP3    H252295   0.264   0.773   5.070 -1.7667 -0.2601  0.9231
10294TIP3   OH252296   1.833   1.957  11.929 -0.2514  0.4691 -0.5162
10294TIP3    H152297   1.882   1.976  12.008 -0.0893  0.2523 -0.5629
10294TIP3    H252298   1.888   1.988  11.857  0.7817 -1.6738 -0.6930
10295TIP3   OH252299   3.793   6.465   2.825 -0.3327  0.1179  0.0707
10295TIP3    H152300   3.723   6.476   2.890  0.7788  0.0970  1.2900
10295TIP3    H252301   3.843   6.546   2.830  1.1771 -0.8387  0.9849
10296TIP3   OH252302   0.328   5.062  13.182  0.1637 -0.1401 -0.1888
10296TIP3    H152303   0.233   5.063  13.190  0.2881  0.6516  1.4382
10296TIP3    H252304   0.359   5.022  13.264  1.2175 -0.6973 -0.8498
10297TIP3   OH252305   0.249   2.557   5.770 -0.2908  0.4514 -0.2469
10297TIP3    H152306   0.311   2.504   5.719 -0.8282  0.1346 -0.5734
10297TIP3    H252307   0.297   2.579   5.850  0.1340 -0.0584 -0.3526
10298TIP3   OH252308   2.031   0.893  12.656  0.1329  0.2021 -0.0224
10298TIP3    H152309   1.947   0.898  12.610 -0.3157 -0.6467  0.6892
10298TIP3    H252310   2.084   0.962  12.616 -1.1096  1.1609 -0.0632
10299TIP3   OH252311   0.815   4.631   3.955  0.3744  0.0570 -0.3315
10299TIP3    H152312   0.854   4.646   4.041  0.7275 -3.2014  0.1435
10299TIP3    H252313   0.871   4.564   3.915 -0.2290  0.9887 -2.8042
10300TIP3   OH252314   2.218   5.645   3.444 -0.4055  0.0323  0.1544
10300TIP3    H152315   2.289   5.684   3.495 -0.2788 -0.4109  0.3219
10300TIP3    H252316   2.218   5.694   3.361  0.7340 -0.6046 -0.2313
10301TIP3   OH252317   3.952   0.492   1.024  0.0661  0.3564 -0.5892
10301TIP3    H152318   4.045   0.477   1.008  0.0662 -0.1094 -0.1448
10301TIP3    H252319   3.944   0.498   1.119 -0.0833  2.1747 -0.6852
10302TIP3   OH252320   1.350   3.097   2.450  0.6252 -0.0885 -0.6869
10302TIP3    H152321   1.376   3.067   2.363  0.3006  1.5142 -1.3706
10302TIP3    H252322   1.347   3.193   2.441 -0.7823  0.0074  0.6933
10303TIP3   OH252323   6.584   3.163   5.806 -0.0304  0.4254  0.0006
10303TIP3    H152324   6.633   3.129   5.881  0.6484 -0.7349 -0.9578
10303TIP3    H252325   6.546   3.086   5.765  0.2924  0.9614 -1.3373
10304TIP3   OH252326   0.254   5.055   3.143 -0.2529  0.7048 -0.2139
10304TIP3    H152327   0.344   5.036   3.118 -0.7166 -0.4264 -1.0342
10304TIP3    H252328   0.252   5.150   3.155  1.1747  0.6728  0.3696
10305TIP3   OH252329   1.680   1.653   4.083  0.8209  0.2187  0.1137
10305TIP3    H152330   1.663   1.575   4.030 -1.5223  0.8415 -0.1249
10305TIP3    H252331   1.635   1.723   4.036 -1.0354  0.8420  2.7451
10306TIP3   OH252332   2.253   3.196   0.334 -0.6850 -0.4177  0.2401
10306TIP3    H152333   2.184   3.261   0.320  0.9376  1.0411 -1.2872
10306TIP3    H252334   2.324   3.224   0.276  1.4739 -1.4687  2.3109
10307TIP3   OH252335   3.173   4.665  10.663 -0.4731 -0.1268  0.0574
10307TIP3    H152336   3.144   4.639  10.575 -2.2728  1.8179  0.0279
10307TIP3    H252337   3.110   4.625  10.722 -0.1840 -0.1330  0.3651
10308TIP3   OH252338   0.993   6.415   4.628 -0.1887 -0.1824  0.3079
10308TIP3    H152339   1.005   6.338   4.572 -0.2171  0.0905 -0.0777
10308TIP3    H252340   1.076   6.462   4.622  0.0970 -0.5742  1.1484
10309TIP3   OH252341   2.808   3.363  12.813 -0.3633  0.6435  0.2339
10309TIP3    H152342   2.763   3.443  12.840 -1.9858 -0.2229  0.1407
10309TIP3    H252343   2.793   3.302  12.885  1.0289  0.4788  0.3850
10310TIP3   OH252344   5.246   2.853  16.988  0.0155 -0.3011  0.0193
10310TIP3    H152345   5.340   2.866  17.000 -0.0223  0.4895 -0.4945
10310TIP3    H252346   5.233   2.758  16.999  0.9034 -0.4433 -0.1351
10311TIP3   OH252347   1.864   0.901   2.368  0.0064 -0.0595  0.0560
10311TIP3    H152348   1.891   0.888   2.277 -0.7622 -0.8207 -0.0718
10311TIP3    H252349   1.810   0.824   2.388 -1.3900  1.0187  0.5557
10312TIP3   OH252350   2.486   4.713  13.178  0.4483 -0.5707  0.1198
10312TIP3    H152351   2.439   4.670  13.250  1.8348 -1.4428  0.5199
10312TIP3    H252352   2.430   4.699  13.102  0.3755 -2.2050  0.4602
10313TIP3   OH252353   0.607   0.147   4.412  0.0260  0.0207  0.4425
10313TIP3    H152354   0.652   0.073   4.371  0.0038 -0.2147  0.8413
10313TIP3    H252355   0.517   0.116   4.425  0.5610 -0.6813  2.6358
10314TIP3   OH252356   3.033   4.195   5.359 -0.2204 -0.1349 -0.2544
10314TIP3    H152357   3.124   4.168   5.344 -0.6282 -1.2671 -0.7854
10314TIP3    H252358   2.989   4.115   5.388 -1.1212  0.3349 -0.3068
10315TIP3   OH252359   6.262   1.910  13.124 -0.4399  0.0210  0.6011
10315TIP3    H152360   6.195   1.971  13.093  0.9260  0.9048 -0.6943
10315TIP3    H252361   6.345   1.948  13.094  0.6203 -1.2757  1.7904
10316TIP3   OH252362   1.694   3.690   5.473  0.0775 -0.2229 -0.1104
10316TIP3    H152363   1.673   3.750   5.401  1.4996 -0.4254 -0.7056
10316TIP3    H252364   1.641   3.612   5.455  0.1108 -0.1139 -0.6993
10317TIP3   OH252365   0.015   5.502   0.935 -0.4948 -0.1225  0.5400
10317TIP3    H152366  -0.014   5.547   1.015 -0.2574  0.1235  0.4875
10317TIP3    H252367  -0.021   5.554   0.864 -1.0396 -0.5639  0.4873
10318TIP3   OH252368   3.098   1.742  16.807  0.0264  0.2950 -0.5387
10318TIP3    H152369   3.157   1.814  16.828  0.2881 -0.2025  0.4417
10318TIP3    H252370   3.039   1.778  16.741 -0.6493  1.8278  0.8562
10319TIP3   OH252371   3.474   0.504  16.317  0.3799 -0.7841  0.3148
10319TIP3    H152372   3.398   0.517  16.261 -0.2722 -2.8491  0.6975
10319TIP3    H252373   3.549   0.500  16.257 -0.0217 -0.5290 -0.1993
10320TIP3   OH252374   0.246   3.392  16.284  0.3493 -0.0488 -0.4249
10320TIP3    H152375   0.304   3.351  16.348 -0.8637 -1.7417 -0.3778
10320TIP3    H252376   0.292   3.384  16.201  0.5057 -0.7604 -0.2709
10321TIP3   OH252377   6.752   3.719  11.340 -0.1070 -0.1478  0.5868
10321TIP3    H152378   6.801   3.719  11.422  0.6532  1.6146  0.1684
10321TIP3    H252379   6.668   3.760  11.362 -0.0249  0.0395  0.5544
10322TIP3   OH252380   0.290   2.493   1.957  0.1277  0.1478 -0.6190
10322TIP3    H152381   0.268   2.550   2.031  2.8187 -0.7745  0.9883
10322TIP3    H252382   0.285   2.404   1.992  0.4978 -0.3551 -1.8085
10323TIP3   OH252383   1.165   2.306   0.932 -0.8333  0.1342 -0.1026
10323TIP3    H152384   1.082   2.316   0.979 -1.6729  0.4102 -1.6410
10323TIP3    H252385   1.219   2.254   0.992 -1.7511  0.8087  1.3432
10324TIP3   OH252386   4.045   1.723   0.027 -0.4550 -0.7795 -0.2294
10324TIP3    H152387   4.060   1.677  -0.055 -0.2895 -1.2720  0.0724
10324TIP3    H252388   4.016   1.655   0.088 -2.6962 -0.0702 -0.4446
10325TIP3   OH252389   5.514   0.787  13.737  0.2159 -0.2086 -0.0482
10325TIP3    H152390   5.471   0.866  13.770 -0.0046 -0.0750 -0.6466
10325TIP3    H252391   5.563   0.753  13.812 -0.3214  0.0573  0.4302
10326TIP3   OH252392   4.042   5.541   3.282  0.3744  0.4105  0.0077
10326TIP3    H152393   4.138   5.540   3.277  0.6192  1.7003  3.4420
10326TIP3    H252394   4.020   5.633   3.293 -1.4183  0.3187 -2.5171
10327TIP3   OH252395   5.328   1.749   4.144  0.7469 -0.0425  0.2796
10327TIP3    H152396   5.379   1.718   4.219  2.7518  0.9891 -0.5983
10327TIP3    H252397   5.391   1.754   4.072 -1.1849 -1.2165 -1.5563
10328TIP3   OH252398   6.221   5.674  11.987 -0.2134  0.1443 -0.2595
10328TIP3    H152399   6.156   5.647  11.922 -0.8830  0.8907  0.1006
10328TIP3    H252400   6.182   5.652  12.071  0.7654 -1.0682 -0.1019
10329TIP3   OH252401   0.111   0.241  13.794  0.0180 -0.1342  0.4997
10329TIP3    H152402   0.178   0.178  13.821  0.3470  1.8695  4.8011
10329TIP3    H252403   0.033   0.215  13.843 -0.8953  0.6366 -0.5186
10330TIP3   OH252404   0.491   2.092  11.224  0.3878  0.0756 -0.3949
10330TIP3    H152405   0.473   2.073  11.316 -0.4772 -1.4870 -0.8621
10330TIP3    H252406   0.459   2.182  11.212 -3.8068 -1.2570 -0.2231
10331TIP3   OH252407   6.164   4.170  14.176  0.2555 -0.1088 -0.0749
10331TIP3    H152408   6.112   4.091  14.164  0.7910 -0.7602  1.7659
10331TIP3    H252409   6.171   4.207  14.088  1.9962 -3.3502 -1.3996
10332TIP3   OH252410   3.827   4.537   4.509 -0.4640  0.0262 -0.1597
10332TIP3    H152411   3.873   4.466   4.463 -0.7204 -0.8360  0.8829
10332TIP3    H252412   3.751   4.494   4.549 -0.6327  0.8890  0.4669
10333TIP3   OH252413   4.074   2.762   4.564 -0.2877 -0.3478 -0.3114
10333TIP3    H152414   4.142   2.809   4.515 -0.9941 -2.0023 -2.9855
10333TIP3    H252415   4.075   2.673   4.527 -1.5254 -1.3955  2.0371
10334TIP3   OH252416   6.678   1.500   4.781 -0.4534  0.4423 -0.1598
10334TIP3    H152417   6.637   1.442   4.717  1.1380  0.6228 -1.3720
10334TIP3    H252418   6.695   1.581   4.732  1.4461  0.3241  0.2685
10335TIP3   OH252419   1.927   1.319   5.306  0.0432 -0.1749  0.0237
10335TIP3    H152420   1.987   1.356   5.241 -0.5751  0.9950  0.1013
10335TIP3    H252421   1.983   1.292   5.378  0.6022 -0.2278 -0.4300
10336TIP3   OH252422   2.289   5.230  14.946  0.1980  0.3149  0.6901
10336TIP3    H152423   2.381   5.232  14.973  0.2179 -0.8454  0.7437
10336TIP3    H252424   2.246   5.176  15.012 -0.7038  1.6278  1.1837
10337TIP3   OH252425   5.013   6.700   0.080  0.3373 -0.3689 -0.1825
10337TIP3    H152426   5.061   6.763   0.026  0.1272  0.0512  0.1212
10337TIP3    H252427   5.071   6.623   0.085  1.6288  0.6648  1.3720
10338TIP3   OH252428   0.169   4.156  11.173  0.6086 -0.5870  0.4478
10338TIP3    H152429   0.252   4.152  11.221  0.4380 -1.5053  0.6797
10338TIP3    H252430   0.194   4.149  11.081  0.6438 -3.3392  0.6210
10339TIP3   OH252431   3.629   4.783   3.933 -0.0437 -0.6344  0.6851
10339TIP3    H152432   3.539   4.756   3.952 -0.5018 -0.0043 -0.5265
10339TIP3    H252433   3.647   4.746   3.847  0.7117 -0.4066  0.7489
10340TIP3   OH252434   3.549   3.109   1.236 -0.5192 -0.0190  0.4438
10340TIP3    H152435   3.588   3.113   1.149 -0.8786 -1.6957  0.1843
10340TIP3    H252436   3.623   3.092   1.294 -0.2416  1.3695  0.5086
10341TIP3   OH252437   4.055   6.315  14.949  0.4837  0.3239 -0.8152
10341TIP3    H152438   3.995   6.241  14.936 -0.5792  0.8644  0.9155
10341TIP3    H252439   3.998   6.390  14.965  1.6179  0.9858  0.1498
10342TIP3   OH252440   1.224   1.506   4.914  0.3322 -0.7242 -0.0675
10342TIP3    H152441   1.296   1.443   4.922  1.1332  0.3138  1.1569
10342TIP3    H252442   1.184   1.508   5.001  1.2247  1.4881  0.3377
10343TIP3   OH252443   1.771   4.728   0.831  0.0693  0.3400  0.4942
10343TIP3    H152444   1.834   4.664   0.797  0.7954  1.4166 -0.1955
10343TIP3    H252445   1.694   4.676   0.854  0.8669 -0.8622  0.4765
10344TIP3   OH252446   2.737   3.983  15.224  0.3281  0.1425  0.1945
10344TIP3    H152447   2.808   4.026  15.270  0.6056  0.0022 -0.0998
10344TIP3    H252448   2.675   4.053  15.205  1.4040  0.6725 -1.4783
10345TIP3   OH252449   3.118   0.655  12.972 -0.1458 -0.4584  0.2145
10345TIP3    H152450   3.054   0.718  12.938  1.8065  1.3617 -0.2297
10345TIP3    H252451   3.139   0.600  12.897  0.2106  0.1702 -0.1560
10346TIP3   OH252452   2.681   4.235  12.302  0.0491 -0.5995  0.2273
10346TIP3    H152453   2.639   4.250  12.217  0.0007  0.5491  0.4455
10346TIP3    H252454   2.624   4.172  12.346 -1.1652  0.5058  0.2851
10347TIP3   OH252455   5.185   2.591  17.068 -0.7213  0.2868 -0.7038
10347TIP3    H152456   5.181   2.504  17.029 -0.6720  0.6178 -1.4464
10347TIP3    H252457   5.235   2.578  17.149 -1.9645 -0.6499 -0.0531
10348TIP3   OH252458   4.150   5.233   0.167 -0.4134 -0.0123  0.2963
10348TIP3    H152459   4.104   5.241   0.251  0.0569  0.1387  0.5402
10348TIP3    H252460   4.241   5.257   0.187 -0.5997  1.4961 -0.5645
10349TIP3   OH252461   5.576   0.859   0.718 -0.0057 -0.1797 -0.1523
10349TIP3    H152462   5.602   0.774   0.754  0.5389 -0.0590 -0.2600
10349TIP3    H252463   5.638   0.921   0.757 -2.5849  0.7036  2.7771
10350TIP3   OH252464   6.048   3.979  11.643 -0.1153  0.6933 -0.2171
10350TIP3    H152465   6.102   3.938  11.577 -0.2430 -2.1585  1.3831
10350TIP3    H252466   6.097   3.970  11.724 -1.5968  0.8502  0.7254
10351TIP3   OH252467   2.826   3.140   5.426  1.0409  0.0676  0.1193
10351TIP3    H152468   2.821   3.118   5.519  2.6019  0.5442  0.3385
10351TIP3    H252469   2.779   3.069   5.382  1.6317 -0.9933  1.1610
10352TIP3   OH252470   5.726   5.076   1.006 -0.5756 -0.0159 -0.8103
10352TIP3    H152471   5.695   5.075   0.915 -2.5370  0.5110 -0.1688
10352TIP3    H252472   5.681   5.003   1.048  1.0530 -0.8551 -0.4666
10353TIP3   OH252473   5.090   6.570  12.990  0.5950 -0.2734  0.4661
10353TIP3    H152474   5.069   6.522  12.909 -0.6419  0.7478  0.1711
10353TIP3    H252475   5.168   6.621  12.968  0.1864  0.1000 -0.1320
10354TIP3   OH252476   2.699   3.145   0.426  0.3198  0.4873 -0.8748
10354TIP3    H152477   2.781   3.137   0.378  1.6932 -0.4620  1.5362
10354TIP3    H252478   2.645   3.073   0.393  0.6976  0.6918 -1.9647
10355TIP3   OH252479   5.954   2.637   5.702  0.0273 -0.0590 -0.0284
10355TIP3    H152480   6.021   2.571   5.724  2.0895  1.5237 -1.3923
10355TIP3    H252481   5.895   2.637   5.778  0.5704 -2.7122  0.4625
10356TIP3   OH252482   4.189   6.663   2.963  0.1768  0.4723 -0.0814
10356TIP3    H152483   4.097   6.676   2.939 -0.0242  0.8544  0.8731
10356TIP3    H252484   4.238   6.701   2.890 -0.4173  0.4435 -0.5029
10357TIP3   OH252485   4.147   1.124   5.948 -0.2858 -0.2948  0.2718
10357TIP3    H152486   4.212   1.192   5.966 -1.3241  0.3478  1.6930
10357TIP3    H252487   4.156   1.062   6.020 -0.7423 -0.5939  0.0749
10358TIP3   OH252488   1.235   2.553   3.128  0.3352 -0.0607  0.0153
10358TIP3    H152489   1.302   2.621   3.121 -0.2487  0.4551 -0.6596
10358TIP3    H252490   1.284   2.473   3.147  1.1674  0.2751 -0.6730
10359TIP3   OH252491   3.975   0.535   1.826  0.1729 -0.0857  0.0525
10359TIP3    H152492   4.007   0.451   1.793  0.2231 -0.6754  1.5770
10359TIP3    H252493   4.052   0.591   1.829 -0.1281  0.5286 -2.4515
10360TIP3   OH252494   5.241   3.426   3.842  0.0806 -0.2931  0.0505
10360TIP3    H152495   5.294   3.461   3.770 -0.4971  0.7806  0.1426
10360TIP3    H252496   5.165   3.484   3.847 -0.9624 -1.6413  0.1180
10361TIP3   OH252497   3.148   5.438   5.321 -0.2321  0.3239 -0.2250
10361TIP3    H152498   3.230   5.487   5.318  0.3835 -0.7197 -0.5524
10361TIP3    H252499   3.134   5.419   5.414 -0.4351  1.0358 -0.1032
10362TIP3   OH252500   1.449   4.038  12.983 -0.1323 -0.2119 -0.0481
10362TIP3    H152501   1.438   3.985  12.904  0.4291  1.2615 -1.1483
10362TIP3    H252502   1.391   4.113  12.969 -0.5020 -0.2493  1.2352
10363TIP3   OH252503   2.249   4.897   5.660  0.9094 -0.2976  0.1993
10363TIP3    H152504   2.275   4.808   5.686  2.4818  0.1002  0.0287
10363TIP3    H252505   2.198   4.930   5.734  1.9211 -0.6494  1.0571
10364TIP3   OH252506   6.116   1.139  12.238 -0.0829 -0.1023 -0.8531
10364TIP3    H152507   6.123   1.161  12.145 -1.0415  1.1736 -0.6426
10364TIP3    H252508   6.074   1.216  12.277 -0.7697 -1.1122  0.4343
10365TIP3   OH252509   0.068   0.134  12.886 -0.4132  0.0285 -0.1913
10365TIP3    H152510   0.045   0.041  12.877  0.1545 -0.1529  0.1904
10365TIP3    H252511   0.128   0.137  12.961  0.7219  0.4918 -1.0932
10366TIP3   OH252512   2.766   5.228   0.562 -0.4241  0.3656  0.0655
10366TIP3    H152513   2.801   5.239   0.650 -0.5360 -1.2595  0.3276
10366TIP3    H252514   2.793   5.140   0.536  0.7248  1.2994 -2.0437
10367TIP3   OH252515   5.151   2.841   0.975 -0.2163 -0.5242  0.0119
10367TIP3    H152516   5.068   2.886   0.993  0.1329 -0.4614  1.5212
10367TIP3    H252517   5.188   2.824   1.061  1.9166  0.4821 -0.6643
10368TIP3   OH252518   2.288   4.741  11.915  0.3736 -0.0568 -0.1184
10368TIP3    H152519   2.306   4.835  11.907  1.0223 -0.1621  0.1204
10368TIP3    H252520   2.311   4.720  12.005  0.7782 -0.5614 -0.3393
10369TIP3   OH252521   5.535   3.133   4.238 -0.1534  0.0829  0.0945
10369TIP3    H152522   5.630   3.147   4.235  0.0458 -1.4203 -3.1035
10369TIP3    H252523   5.503   3.168   4.155 -3.0291  4.1173  2.7551
10370TIP3   OH252524   5.575   3.472  16.573  0.3855  0.0409  0.8902
10370TIP3    H152525   5.657   3.502  16.534  1.0392 -1.8143  0.7867
10370TIP3    H252526   5.522   3.444  16.499  0.4026 -0.5409  1.0939
10371TIP3   OH252527   0.434   3.612   1.102 -0.7844  0.3173  0.0094
10371TIP3    H152528   0.460   3.529   1.141  0.1199  0.2446 -0.7302
10371TIP3    H252529   0.495   3.676   1.139 -1.6715  0.7124  0.8144
10372TIP3   OH252530   5.396   5.200  14.924  0.1587 -0.0163 -0.4309
10372TIP3    H152531   5.351   5.280  14.951 -0.4605 -0.3559 -0.4602
10372TIP3    H252532   5.367   5.134  14.986 -0.6868 -0.6247 -1.4665
10373TIP3   OH252533   0.669   3.414   0.635  0.2055  0.5564 -0.9014
10373TIP3    H152534   0.574   3.410   0.639  0.2157 -0.2632 -1.2733
10373TIP3    H252535   0.698   3.327   0.663  0.8219  0.5720 -1.4650
10374TIP3   OH252536   3.862   4.087  15.766  0.0794 -0.3341  0.0087
10374TIP3    H152537   3.906   4.128  15.840  1.3425  0.2388 -1.0318
10374TIP3    H252538   3.835   4.160  15.710 -0.2427 -0.7842 -0.4311
10375TIP3   OH252539   4.032   1.551  14.292  0.3850  0.4443 -0.6102
10375TIP3    H152540   4.127   1.553  14.278  0.7299 -1.3730  1.2888
10375TIP3    H252541   4.019   1.592  14.377 -0.5406  0.6758 -0.8581
10376TIP3   OH252542   6.032   2.557  11.662 -0.2793 -0.1695  0.5319
10376TIP3    H152543   5.993   2.573  11.576 -0.0516 -2.7291 -0.0731
10376TIP3    H252544   5.962   2.519  11.714 -0.0675  0.2178  1.1073
10377TIP3   OH252545   5.091   4.693   1.992  0.2345 -0.3091 -0.0622
10377TIP3    H152546   5.055   4.610   1.961  1.0861 -0.3860 -0.8561
10377TIP3    H252547   5.015   4.751   2.000 -0.2905 -1.0032 -0.0237
10378TIP3   OH252548   0.076   3.561  17.223 -0.8555 -0.1798 -0.9556
10378TIP3    H152549  -0.013   3.540  17.252 -0.8731  0.2411 -0.7133
10378TIP3    H252550   0.123   3.478  17.228 -1.4421 -0.5741 -1.8235
10379TIP3   OH252551   6.056   6.585  11.158  0.3183  0.2660  0.5067
10379TIP3    H152552   6.073   6.498  11.123  0.9640  0.1174  1.1720
10379TIP3    H252553   6.086   6.645  11.090  2.7951  0.0002  1.3356
10380TIP3   OH252554   1.005   3.521  16.508  0.6522  0.6895  0.3294
10380TIP3    H152555   0.954   3.547  16.431 -0.9301 -1.7194  0.4995
10380TIP3    H252556   0.945   3.535  16.582  0.5546 -1.2463  0.6364
10381TIP3   OH252557   6.639   1.900   6.289 -0.3359  0.0133 -0.7946
10381TIP3    H152558   6.665   1.992   6.290  2.2148 -0.6659 -0.5840
10381TIP3    H252559   6.680   1.862   6.367  1.8000 -2.0777 -2.8532
10382TIP3   OH252560   6.433   0.122  13.786 -0.5557 -0.3006  0.4015
10382TIP3    H152561   6.385   0.200  13.757  0.0155 -0.8121 -2.0645
10382TIP3    H252562   6.486   0.153  13.859 -0.8790  1.4854 -0.0809
10383TIP3   OH252563   2.566   5.366  12.577  0.4127 -0.1040 -0.2805
10383TIP3    H152564   2.475   5.356  12.548 -0.3058 -1.8286  2.4435
10383TIP3    H252565   2.616   5.307  12.520 -0.1295  0.8078 -1.7528
10384TIP3   OH252566   5.916   2.014   4.403 -0.6358 -0.5315  0.3227
10384TIP3    H152567   5.985   1.956   4.372 -0.2797 -0.0398  0.1996
10384TIP3    H252568   5.955   2.101   4.404 -1.7039 -0.0190 -1.1892
10385TIP3   OH252569   3.509   5.271  11.856  0.1610 -0.5443 -0.3739
10385TIP3    H152570   3.437   5.270  11.919  0.4422  3.0517  0.1593
10385TIP3    H252571   3.467   5.278  11.771 -0.1639  0.5239 -0.1367
10386TIP3   OH252572   6.178   4.904  13.858  0.3269 -0.1125 -0.0117
10386TIP3    H152573   6.088   4.873  13.858  0.5270 -0.7893  1.9242
10386TIP3    H252574   6.173   4.994  13.891  0.2396  0.3190 -1.1711
10387TIP3   OH252575   0.477   2.072  17.022 -0.0988  0.9406  0.8090
10387TIP3    H152576   0.517   2.081  17.109  0.0363 -0.5460  0.9078
10387TIP3    H252577   0.390   2.037  17.039  0.6017 -1.1438  0.2451
10388TIP3   OH252578   6.629   0.635  16.541 -0.0525  0.1555 -0.0100
10388TIP3    H152579   6.588   0.554  16.569  1.7281 -1.0460 -0.7971
10388TIP3    H252580   6.571   0.704  16.572 -2.7546 -1.4880 -1.2698
10389TIP3   OH252581   3.522   5.095   5.374 -0.3407 -0.0470  0.3154
10389TIP3    H152582   3.611   5.062   5.386  0.0501  0.4906 -1.0132
10389TIP3    H252583   3.466   5.022   5.400  0.4997 -0.8640 -0.1461
10390TIP3   OH252584   3.812   5.403  15.321  0.0346  0.1082 -0.1315
10390TIP3    H152585   3.788   5.381  15.411  0.5051  0.8725  0.1894
10390TIP3    H252586   3.749   5.355  15.267 -0.8797  0.4236  0.6336
10391TIP3   OH252587   2.543   4.705   3.477 -0.1237 -0.2588 -0.7564
10391TIP3    H152588   2.573   4.782   3.430 -2.1293  0.7913 -0.4046
10391TIP3    H252589   2.487   4.740   3.547 -1.0394 -2.0275 -0.5675
10392TIP3   OH252590   3.817   3.171   1.957  0.1961 -0.2993 -0.4589
10392TIP3    H152591   3.882   3.126   1.904  0.9855 -0.2750  0.4814
10392TIP3    H252592   3.866   3.239   2.003 -0.6106  0.1357 -0.2297
10393TIP3   OH252593   4.745   3.769  11.392 -0.5996 -0.2492 -0.4231
10393TIP3    H152594   4.753   3.684  11.436 -0.1462 -0.2449 -0.5013
10393TIP3    H252595   4.800   3.761  11.314  0.6190  0.6350  0.3340
10394TIP3   OH252596   2.013   5.689  14.964  0.9604  0.3501 -0.2315
10394TIP3    H152597   2.064   5.630  15.020  0.9607  0.6707  0.1112
10394TIP3    H252598   1.936   5.711  15.017 -1.4152 -2.9914 -2.0768
10395TIP3   OH252599   4.173   6.213   1.784  0.4125  0.0059 -0.0449
10395TIP3    H152600   4.197   6.155   1.712 -1.0947 -2.4183  1.3467
10395TIP3    H252601   4.163   6.155   1.859 -3.0089  1.7927  0.9745
10396TIP3   OH252602   1.564   4.716   4.258  0.4233  0.2258 -0.0702
10396TIP3    H152603   1.554   4.761   4.342  0.9673  1.1389 -0.4846
10396TIP3    H252604   1.536   4.781   4.193 -2.3093 -1.2901 -0.4588
10397TIP3   OH252605   4.225   5.854  16.911  0.1748 -0.7549 -0.1569
10397TIP3    H152606   4.201   5.937  16.871  2.4637  0.1100  0.1735
10397TIP3    H252607   4.191   5.788  16.851 -2.2395  0.3679 -0.1042
10398TIP3   OH252608   6.569   0.830  12.956 -0.0650  0.1773  0.0249
10398TIP3    H152609   6.631   0.816  12.884  0.6000  2.1432  0.1677
10398TIP3    H252610   6.486   0.851  12.912 -0.7514 -2.7763 -0.1678
10399TIP3   OH252611   4.070   1.815  12.008  0.1502 -0.5878  0.4931
10399TIP3    H152612   3.987   1.864  12.011 -0.8015 -2.1620  0.4932
10399TIP3    H252613   4.077   1.775  12.095 -0.8336 -3.2283 -0.5823
10400TIP3   OH252614   2.503   1.538  11.764  0.4866 -0.3119  0.0282
10400TIP3    H152615   2.556   1.553  11.686  1.1762  1.0124  0.7373
10400TIP3    H252616   2.445   1.613  11.769  0.7177 -0.1877  1.0079
10401TIP3   OH252617   4.795   3.652  16.997 -0.9231 -0.5573  0.2028
10401TIP3    H152618   4.846   3.575  17.021  0.9070  0.1713 -1.2529
10401TIP3    H252619   4.740   3.622  16.925 -0.1740 -0.5085 -0.3974
10402TIP3   OH252620   6.028   6.446  15.320  0.2299 -0.2610  0.3827
10402TIP3    H152621   6.060   6.497  15.394 -0.4896  0.9549 -0.1400
10402TIP3    H252622   6.057   6.494  15.243 -0.8282 -0.4044 -0.1064
10403TIP3   OH252623   6.483   3.275  14.886  0.1105 -0.3579  0.0682
10403TIP3    H152624   6.565   3.270  14.935 -0.0035 -0.2302  0.2772
10403TIP3    H252625   6.503   3.236  14.801  0.1171 -1.2359  0.4649
10404TIP3   OH252626   6.638   5.201   1.760 -0.6351  0.4569 -0.2555
10404TIP3    H152627   6.602   5.127   1.711 -2.1439  1.2208 -0.3408
10404TIP3    H252628   6.575   5.216   1.830  0.2170  0.9855  0.4125
10405TIP3   OH252629   4.705   5.840  10.214  0.0852  0.2437 -0.5704
10405TIP3    H152630   4.649   5.797  10.149 -0.5969 -0.4638  0.4597
10405TIP3    H252631   4.751   5.768  10.256  0.0573  0.6444  0.1522
10406TIP3   OH252632   0.172   5.763   2.425 -0.0098 -0.8573 -0.4979
10406TIP3    H152633   0.090   5.756   2.474  0.4716  0.9412  0.6188
10406TIP3    H252634   0.178   5.856   2.401  3.0522 -0.3711  1.8732
10407TIP3   OH252635   5.561   1.607   1.275  0.1676 -0.0022  0.6725
10407TIP3    H152636   5.526   1.626   1.188  1.2465  0.3694  0.3037
10407TIP3    H252637   5.604   1.688   1.302  0.9393 -0.5127  1.0021
10408TIP3   OH252638   0.047   5.151   0.704  0.0453 -0.2965  0.1039
10408TIP3    H152639   0.048   5.106   0.620  0.6684  0.0065 -0.0487
10408TIP3    H252640  -0.012   5.226   0.691  1.1282  0.4645 -0.4311
10409TIP3   OH252641   4.919   4.155  16.699 -0.2959  0.1403  0.3339
10409TIP3    H152642   4.923   4.210  16.777 -1.9578  1.6080 -0.5718
10409TIP3    H252643   4.826   4.141  16.684 -0.0115  0.1006 -1.5239
10410TIP3   OH252644   5.957   2.290   3.418  0.3928  0.2343  0.1974
10410TIP3    H152645   6.019   2.237   3.468  0.2460 -0.8877 -0.7674
10410TIP3    H252646   5.926   2.231   3.349 -0.6140  1.2484 -0.2349
10411TIP3   OH252647   2.409   6.708  12.130  0.0266 -0.3870  0.3056
10411TIP3    H152648   2.388   6.677  12.217  0.7889 -0.3786  0.4965
10411TIP3    H252649   2.327   6.700  12.081 -1.3307  2.8060  1.9173
10412TIP3   OH252650   6.556   2.291   1.540 -0.4379  0.4539 -0.0859
10412TIP3    H152651   6.637   2.293   1.591  0.7850 -0.5150 -1.9244
10412TIP3    H252652   6.500   2.230   1.588  0.3403  0.2813  0.6289
10413TIP3   OH252653   6.381   1.895   3.298 -0.4712  0.3537  0.0659
10413TIP3    H152654   6.319   1.823   3.286 -0.2657  0.0749  0.6314
10413TIP3    H252655   6.408   1.887   3.390 -1.1696  1.7261  0.4017
10414TIP3   OH252656   3.331   4.547  11.460 -0.2291  0.2158  0.0978
10414TIP3    H152657   3.276   4.504  11.395 -0.4442 -1.4348  1.3460
10414TIP3    H252658   3.414   4.563  11.415 -1.3171  1.6738 -1.4389
10415TIP3   OH252659   1.515   6.059  11.840  0.2753  0.0360  0.1173
10415TIP3    H152660   1.498   6.030  11.750  0.9084  0.2882 -0.0896
10415TIP3    H252661   1.506   5.980  11.892 -0.3140 -0.0698 -0.1398
10416TIP3   OH252662   0.966   4.998  10.460 -0.3910 -0.0169 -0.2433
10416TIP3    H152663   0.987   5.082  10.418 -1.3996  0.7762  0.8095
10416TIP3    H252664   1.051   4.966  10.491  0.3998 -0.6944 -2.9645
10417TIP3   OH252665   3.071   6.184   2.106 -0.6379 -0.0412  0.0021
10417TIP3    H152666   2.986   6.228   2.099  0.4924  1.9669 -1.6649
10417TIP3    H252667   3.056   6.114   2.170 -3.3665  0.6740  0.2316
10418TIP3   OH252668   2.276   6.407   2.174  0.8830  0.0870  0.3327
10418TIP3    H152669   2.233   6.322   2.178  0.5075  0.3335  2.5824
10418TIP3    H252670   2.307   6.415   2.084  0.3527 -2.1365 -0.0687
10419TIP3   OH252671   3.007   1.663  12.878  0.3630  0.1591 -0.0780
10419TIP3    H152672   3.004   1.645  12.784 -0.5969 -0.9373  0.1503
10419TIP3    H252673   3.075   1.604  12.912  0.2425  0.0804  0.0246
10420TIP3   OH252674   0.506   0.269  11.948  0.5070 -0.0493 -0.3089
10420TIP3    H152675   0.490   0.184  11.989 -2.7881  1.0550  0.8308
10420TIP3    H252676   0.520   0.248  11.855 -2.1003 -1.6842 -0.3739
10421TIP3   OH252677   0.804   2.831  13.484  0.4655  0.7301 -0.5031
10421TIP3    H152678   0.726   2.816  13.430  1.6986 -0.5498 -1.9591
10421TIP3    H252679   0.787   2.915  13.526 -1.1244  1.1174 -1.8254
10422TIP3   OH252680   2.393   6.344  16.632 -0.2737  0.0737 -0.1816
10422TIP3    H152681   2.398   6.295  16.550 -1.1940 -1.4128  0.6380
10422TIP3    H252682   2.309   6.390  16.628 -0.7863 -0.7969  0.3530
10423TIP3   OH252683   1.161   1.732   3.174 -0.0537 -0.4392  0.6473
10423TIP3    H152684   1.092   1.725   3.109 -0.4828 -3.4031  1.3718
10423TIP3    H252685   1.241   1.705   3.128  0.0188 -0.4215  0.7608
10424TIP3   OH252686   1.903   1.683   4.475  0.0417 -0.2857  0.0058
10424TIP3    H152687   1.981   1.690   4.529  0.5337 -0.8299 -0.6336
10424TIP3    H252688   1.917   1.605   4.422 -0.1916  0.5419 -1.2946
10425TIP3   OH252689   4.809   6.726  11.033 -0.1231  0.1272 -0.4217
10425TIP3    H152690   4.784   6.650  10.980 -2.3632 -0.7004  1.7130
10425TIP3    H252691   4.904   6.721  11.040  0.4078  0.9131 -5.2392
10426TIP3   OH252692   0.620   0.237   4.671 -0.2588 -0.1046  0.2434
10426TIP3    H152693   0.552   0.180   4.706  1.6222 -2.9215 -0.4877
10426TIP3    H252694   0.602   0.241   4.577 -0.6299  0.9170  0.3447
10427TIP3   OH252695   2.152   6.100   5.586 -0.4093 -0.1913 -0.2900
10427TIP3    H152696   2.213   6.093   5.512 -1.7770 -0.2296 -1.4218
10427TIP3    H252697   2.126   6.010   5.603 -0.9708 -0.0669 -0.4971
10428TIP3   OH252698   1.968   3.056  16.037 -0.4270 -0.5049  0.4025
10428TIP3    H152699   1.888   3.058  15.985 -0.5473 -1.6494  0.5243
10428TIP3    H252700   1.939   3.074  16.126 -0.2868  0.9542  0.1699
10429TIP3   OH252701   4.865   2.111  15.672 -0.2232 -0.2416 -0.0682
10429TIP3    H152702   4.778   2.151  15.667 -0.3273 -0.6362 -1.6707
10429TIP3    H252703   4.897   2.113  15.582  1.7174  0.5175  0.6151
10430TIP3   OH252704   3.202   3.997   4.959  0.2750  0.4548  0.4369
10430TIP3    H152705   3.273   4.029   4.904  1.1718 -4.1707 -1.3129
10430TIP3    H252706   3.247   3.953   5.032 -0.6876 -2.5339 -0.7043
10431TIP3   OH252707   6.238   4.946  15.386  0.5023  0.3970 -0.0477
10431TIP3    H152708   6.201   4.864  15.416  1.2014  0.3639  0.7597
10431TIP3    H252709   6.308   4.965  15.449  1.0644  1.0474 -0.8549
10432TIP3   OH252710   2.129   2.356  17.191 -0.0874  0.0382  0.0591
10432TIP3    H152711   2.085   2.412  17.255 -0.7113 -0.1739 -0.1885
10432TIP3    H252712   2.067   2.286  17.173 -0.1236  0.3757 -1.1709
10433TIP3   OH252713   2.775   3.047  15.591  0.3346 -0.1220 -0.3063
10433TIP3    H152714   2.786   3.110  15.520  0.6350 -0.0542 -0.1991
10433TIP3    H252715   2.701   3.081  15.642 -0.9846 -1.0695 -1.5510
10434TIP3   OH252716   1.463   0.883   3.153  0.4189  0.0670  0.1153
10434TIP3    H152717   1.445   0.865   3.245  0.5348 -0.3598  0.0553
10434TIP3    H252718   1.399   0.950   3.128 -0.8235 -1.1420  0.0062
10435TIP3   OH252719   1.931   2.171  17.149 -0.0734 -0.5621 -0.3407
10435TIP3    H152720   1.876   2.161  17.071 -1.4046 -0.7020  0.5910
10435TIP3    H252721   1.923   2.087  17.194  1.6388 -0.8989 -0.6457
10436TIP3   OH252722   5.025   6.148  16.425  0.0916  0.0131 -0.0684
10436TIP3    H152723   5.082   6.161  16.500  1.7402 -3.3180 -0.6813
10436TIP3    H252724   4.945   6.111  16.461 -0.5548  1.8645  0.4390
10437TIP3   OH252725   4.217   3.166   2.477 -0.7579 -0.3458  0.2740
10437TIP3    H152726   4.251   3.234   2.418  1.5795  0.5717  2.5881
10437TIP3    H252727   4.294   3.118   2.505 -1.5038  0.6988  4.3617
10438TIP3   OH252728   1.641   5.845  12.361 -0.2768 -0.1561 -0.3806
10438TIP3    H152729   1.644   5.939  12.380  1.2246 -0.2891  0.0677
10438TIP3    H252730   1.720   5.809  12.402  0.7293 -1.1543 -3.0881
10439TIP3   OH252731   1.249   3.336  12.355 -0.1846  0.0047  0.0522
10439TIP3    H152732   1.306   3.272  12.314  0.0138 -0.0164  0.3591
10439TIP3    H252733   1.247   3.311  12.448 -1.2274 -0.4027 -0.0753
10440TIP3   OH252734   0.158   3.041  11.506  0.4066  0.3290  0.0175
10440TIP3    H152735   0.088   2.992  11.462  1.1831  0.2343 -1.1259
10440TIP3    H252736   0.155   3.128  11.466  1.1842  0.2102 -0.3079
10441TIP3   OH252737   5.541   4.157   5.049 -0.6160  0.0411  0.0520
10441TIP3    H152738   5.449   4.157   5.025 -0.4119 -1.0107 -0.7637
10441TIP3    H252739   5.579   4.229   4.997 -1.0711  0.8528  0.8249
10442TIP3   OH252740   0.471   2.619  13.972 -0.1786 -1.0714 -0.1642
10442TIP3    H152741   0.460   2.623  14.067 -0.8853 -2.8620 -0.1489
10442TIP3    H252742   0.555   2.575  13.960 -0.6265 -1.8838 -0.3609
10443TIP3   OH252743   4.300   5.977   0.143 -0.0778  0.6894  0.2544
10443TIP3    H152744   4.339   5.979   0.056 -0.1528  1.8803  0.2392
10443TIP3    H252745   4.258   6.063   0.153  1.0531  1.0662  1.9681
10444TIP3   OH252746   2.636   2.178   0.862  0.1860  0.1272  0.2028
10444TIP3    H152747   2.581   2.242   0.817 -0.7081  0.2550  1.4406
10444TIP3    H252748   2.596   2.094   0.844  1.0101 -0.0327 -0.9202
10445TIP3   OH252749   6.438   2.156   4.171  0.4996  0.4485  0.2166
10445TIP3    H152750   6.444   2.104   4.251  0.2463  0.1143  0.0216
10445TIP3    H252751   6.444   2.091   4.101 -0.2699  0.6321 -0.0218
10446TIP3   OH252752   1.860   1.237  17.124  0.3757  0.3778 -0.2660
10446TIP3    H152753   1.823   1.303  17.067  1.9391  0.7961 -0.8175
10446TIP3    H252754   1.928   1.195  17.072  1.3805  0.3162  1.0624
10447TIP3   OH252755   3.615   2.868  13.093 -0.1422 -0.2025  0.1828
10447TIP3    H152756   3.599   2.784  13.137 -1.6620 -0.6246 -1.1144
10447TIP3    H252757   3.702   2.895  13.122 -0.5483 -1.1450  2.3532
10448TIP3   OH252758   1.710   5.027  16.935  0.1692  0.2578 -0.1217
10448TIP3    H152759   1.749   5.067  16.856  0.7468 -1.3069 -0.6423
10448TIP3    H252760   1.711   4.933  16.917  0.8703 -0.1500  2.0362
10449TIP3   OH252761   5.230   3.235   2.032  0.0656 -0.5629 -0.2934
10449TIP3    H152762   5.235   3.176   1.956 -0.8780 -1.5515  0.4042
10449TIP3    H252763   5.247   3.322   1.996  0.3321 -1.1202 -1.5270
10450TIP3   OH252764   3.738   4.300   3.780 -0.5545  0.2940  0.5881
10450TIP3    H152765   3.682   4.311   3.703  2.0916  0.4399 -1.3604
10450TIP3    H252766   3.742   4.387   3.820  0.6114  0.9571 -0.9367
10451TIP3   OH252767   4.945   4.109   5.046  0.1762 -0.2862  0.2987
10451TIP3    H152768   4.957   4.157   4.964 -1.3427  1.4083  1.0548
10451TIP3    H252769   4.877   4.044   5.026 -0.1132  0.0530  0.1779
10452TIP3   OH252770   1.091   5.225   3.643 -0.4183 -0.5663  0.2491
10452TIP3    H152771   1.158   5.193   3.583 -0.1336  2.6760 -1.2168
10452TIP3    H252772   1.021   5.160   3.637  0.7755 -1.7375 -1.4706
10453TIP3   OH252773   6.287   3.053   1.025 -0.1435 -0.8404  0.5367
10453TIP3    H152774   6.343   3.110   1.079 -0.3004 -0.9087  0.7744
10453TIP3    H252775   6.198   3.071   1.055 -0.1860 -1.2845  0.6861
10454TIP3   OH252776   6.144   1.617  16.074  0.4921  0.5210 -0.0981
10454TIP3    H152777   6.139   1.522  16.062  0.5266  0.5102 -0.0212
10454TIP3    H252778   6.158   1.651  15.985 -0.0719  0.4900 -0.2040
10455TIP3   OH252779   4.560   1.113  13.407  0.3775 -0.4146  0.2071
10455TIP3    H152780   4.485   1.151  13.452  0.9020  0.7762  0.0956
10455TIP3    H252781   4.610   1.070  13.476  0.7226  0.6568  0.6364
10456TIP3   OH252782   0.200   5.172   6.165 -0.0255  0.3045 -0.7760
10456TIP3    H152783   0.109   5.145   6.159  0.2127 -0.9911  1.0470
10456TIP3    H252784   0.241   5.107   6.222  1.4716  2.2885  0.4831
10457TIP3   OH252785   1.978   4.004  16.248 -0.2134 -0.1642  0.2677
10457TIP3    H152786   1.894   3.969  16.218 -0.0182  0.0940 -0.5969
10457TIP3    H252787   2.035   3.998  16.171  0.2037  0.8162  0.4976
10458TIP3   OH252788   6.742   1.995  15.590 -0.2840 -0.0966 -0.2313
10458TIP3    H152789   6.676   2.054  15.626  0.7495  1.9206 -1.5974
10458TIP3    H252790   6.778   2.041  15.514  1.6774 -1.7789 -0.3770
10459TIP3   OH252791   5.384   3.774  13.169  0.4018  0.4965  0.1086
10459TIP3    H152792   5.337   3.697  13.139 -0.1644  1.6778 -2.0961
10459TIP3    H252793   5.340   3.798  13.251  0.2556 -1.1892  0.5493
10460TIP3   OH252794   0.268   3.928  13.555 -0.5250 -0.4164  0.2824
10460TIP3    H152795   0.279   3.871  13.478 -1.0996 -0.5068  0.2669
10460TIP3    H252796   0.338   3.900  13.615 -1.7573 -2.2031  0.9174
10461TIP3   OH252797   3.173   0.406   5.300 -0.0854 -0.3298  0.1503
10461TIP3    H152798   3.160   0.321   5.342 -1.7442  0.8763  2.1956
10461TIP3    H252799   3.087   0.449   5.305  1.0094  1.9481  0.2727
10462TIP3   OH252800   5.420   1.443  16.456 -0.2936  0.2845  0.1494
10462TIP3    H152801   5.366   1.482  16.387 -0.9829 -0.4089  0.3062
10462TIP3    H252802   5.507   1.434  16.416 -0.8020 -0.5343 -0.7815
10463TIP3   OH252803   1.611   5.007   4.975  0.0659 -0.2329  0.3036
10463TIP3    H152804   1.622   4.942   5.045  0.4359 -0.1824  0.2931
10463TIP3    H252805   1.675   5.075   4.995 -1.2159  0.7731  1.0373
10464TIP3   OH252806   3.735   5.996  16.574 -0.4763  0.0592  0.0663
10464TIP3    H152807   3.699   5.908  16.562  0.2700 -0.2709  0.2073
10464TIP3    H252808   3.679   6.053  16.521 -1.4428 -0.3840  0.5937
10465TIP3   OH252809   0.618   1.335  14.499 -0.1326 -0.9115 -0.8191
10465TIP3    H152810   0.526   1.332  14.471  0.2798 -2.0775 -2.1278
10465TIP3    H252811   0.635   1.249  14.536  0.2910 -0.5256 -0.1145
10466TIP3   OH252812   2.457   3.677   4.216  0.4645  0.4127 -0.7752
10466TIP3    H152813   2.388   3.650   4.156 -2.4099  1.0023  2.1277
10466TIP3    H252814   2.487   3.596   4.256  0.2824  0.3152 -0.8364
10467TIP3   OH252815   1.339   0.930   1.536  0.5155  0.3903 -0.3743
10467TIP3    H152816   1.259   0.910   1.584  0.7427 -0.1889 -0.2296
10467TIP3    H252817   1.378   1.003   1.584  0.8404 -0.3124  0.4494
10468TIP3   OH252818   6.640   4.791  10.410 -0.1834 -0.0811 -0.3906
10468TIP3    H152819   6.579   4.790  10.336  0.2253 -1.2553 -0.7233
10468TIP3    H252820   6.652   4.699  10.432 -1.6307  0.3236  2.2537
10469TIP3   OH252821   5.493   0.966  12.054  0.6479 -0.0893 -0.2616
10469TIP3    H152822   5.559   0.936  11.992  3.7570  0.6102  2.5347
10469TIP3    H252823   5.448   0.886  12.082  1.2060 -0.7385 -1.1843
10470TIP3   OH252824   4.059   2.071   2.015  0.2774 -0.0668 -0.5033
10470TIP3    H152825   4.100   2.158   2.011 -0.2885  0.1260 -2.7311
10470TIP3    H252826   4.133   2.010   2.015  0.6791  0.3967  1.0500
10471TIP3   OH252827   4.595   5.974  15.599 -0.3276  0.6179  0.2678
10471TIP3    H152828   4.576   5.942  15.511  0.1040 -0.5104  0.5782
10471TIP3    H252829   4.629   5.898  15.645  1.1534  1.6441  0.8985
10472TIP3   OH252830   6.595   1.256   4.607 -0.5636  0.4570  0.1668
10472TIP3    H152831   6.640   1.207   4.538 -1.1245 -0.8493  0.7044
10472TIP3    H252832   6.508   1.274   4.570 -0.6207  0.3789  0.2647
10473TIP3   OH252833   1.570   5.004  14.560 -0.2344 -0.6196  0.4267
10473TIP3    H152834   1.595   5.065  14.628 -1.0511  0.6487 -0.3976
10473TIP3    H252835   1.537   4.927  14.607  1.4172 -0.7039  1.4624
10474TIP3   OH252836   2.204   1.838   2.042 -0.0988  0.2556 -0.5517
10474TIP3    H152837   2.272   1.785   1.999  0.8374  0.2783  0.8864
10474TIP3    H252838   2.250   1.915   2.073 -0.8779  0.4863  0.0294
10475TIP3   OH252839   1.881   4.218   4.912  0.3159 -0.2072  0.3078
10475TIP3    H152840   1.872   4.259   4.998  0.5247  0.7411 -0.1099
10475TIP3    H252841   1.938   4.278   4.863  2.5376 -2.1749  0.4162
10476TIP3   OH252842   2.241   6.227   2.733 -0.1373 -0.2952  0.7173
10476TIP3    H152843   2.296   6.239   2.656 -2.2058 -1.4695 -1.0144
10476TIP3    H252844   2.214   6.315   2.758 -0.6526 -0.0031 -0.8283
10477TIP3   OH252845   4.901   0.979   2.542  0.8206  0.2541  0.0129
10477TIP3    H152846   4.852   0.955   2.621  1.6067 -1.0687  0.1085
10477TIP3    H252847   4.847   1.047   2.501 -0.1198  0.2136  1.1402
10478TIP3   OH252848   0.289   1.025   1.321  0.0425 -0.1095 -0.0299
10478TIP3    H152849   0.331   1.065   1.398 -1.4454 -0.3420  0.9232
10478TIP3    H252850   0.362   1.001   1.264  1.3196 -2.0174  2.3137
10479TIP3   OH252851   1.726   5.042  14.365 -0.0257  0.5160  0.6493
10479TIP3    H152852   1.662   5.054  14.435 -0.0156  0.5882  0.6450
10479TIP3    H252853   1.746   5.130  14.335  0.7503  0.5456  1.2556
10480TIP3   OH252854   4.028   0.094  14.023  0.3070 -0.3814  0.1602
10480TIP3    H152855   3.979   0.022  14.063 -1.5066  0.8877  0.3213
10480TIP3    H252856   4.056   0.059  13.938 -4.0382 -0.0591 -1.5602
10481TIP3   OH252857   6.685   3.963  12.379 -0.2406 -0.4953  0.5821
10481TIP3    H152858   6.592   3.985  12.384 -0.8108 -2.5434 -0.4243
10481TIP3    H252859   6.699   3.935  12.289  1.9857  2.3161 -0.0493
10482TIP3   OH252860   4.649   5.917   0.049  0.4931  0.2686 -0.2077
10482TIP3    H152861   4.692   5.896   0.132  1.5436  3.7299  0.1815
10482TIP3    H252862   4.707   5.880  -0.018  0.7824 -0.6003  0.5183
10483TIP3   OH252863   3.320   0.862   0.450 -0.3713  0.4872 -0.0257
10483TIP3    H152864   3.245   0.802   0.448  1.1699 -1.4563 -0.7944
10483TIP3    H252865   3.348   0.869   0.359  1.5847 -0.3854  0.4805
10484TIP3   OH252866   4.356   0.057   4.876 -0.3806  0.5221 -0.1148
10484TIP3    H152867   4.310  -0.009   4.823 -1.0748  0.9904 -0.1063
10484TIP3    H252868   4.411   0.006   4.935 -0.0923 -0.0253 -0.8364
10485TIP3   OH252869   1.951   3.869  17.160  0.2426  0.0509  0.2770
10485TIP3    H152870   2.044   3.892  17.173  0.0047  1.3539 -0.2456
10485TIP3    H252871   1.907   3.906  17.237  0.3469 -1.9347  1.3317
10486TIP3   OH252872   3.348   6.080   2.784 -0.6888 -0.2651  0.1501
10486TIP3    H152873   3.261   6.050   2.758 -0.4714 -0.6437 -0.1498
10486TIP3    H252874   3.403   6.062   2.707 -0.0675 -1.2445  0.8079
10487TIP3   OH252875   2.620   3.986   4.652  0.0539  1.1555  0.0846
10487TIP3    H152876   2.602   3.979   4.558  2.6460 -1.0598 -0.3225
10487TIP3    H252877   2.691   4.051   4.658  0.0945  1.0787  0.4726
10488TIP3   OH252878   3.855   5.317   1.666 -0.4110 -0.0766  0.5400
10488TIP3    H152879   3.889   5.374   1.734 -0.2115  0.9234 -0.3845
10488TIP3    H252880   3.869   5.365   1.584  1.0073 -2.0313 -0.4051
10489TIP3   OH252881   4.732   4.461  16.758 -0.8202 -0.4132  0.1437
10489TIP3    H152882   4.818   4.449  16.799 -0.9931  0.4433  0.7741
10489TIP3    H252883   4.738   4.412  16.676  0.1257 -0.7122  0.3798
10490TIP3   OH252884   5.937   6.593   4.612  0.1709 -0.0571  0.0785
10490TIP3    H152885   5.902   6.625   4.528  0.0524 -1.2017 -0.3238
10490TIP3    H252886   5.904   6.655   4.677 -1.9938 -0.6904 -0.3896
10491TIP3   OH252887   6.152   5.276   5.277  0.1808  0.3362  0.1048
10491TIP3    H152888   6.232   5.327   5.264  1.0156 -1.2621 -1.1495
10491TIP3    H252889   6.168   5.227   5.358  0.8753 -0.6940 -0.6414
10492TIP3   OH252890   5.566   2.556   6.372  0.0692 -0.2497 -0.2842
10492TIP3    H152891   5.553   2.463   6.387  2.5065 -0.4352  0.9326
10492TIP3    H252892   5.501   2.599   6.428 -1.9009 -1.1876 -1.7751
10493TIP3   OH252893   5.534   4.848   1.621  0.6750  0.0063  0.1472
10493TIP3    H152894   5.560   4.936   1.649 -0.8620  0.7846 -0.7251
10493TIP3    H252895   5.519   4.800   1.702 -0.7179  1.2769  0.6645
10494TIP3   OH252896   4.019   1.528   2.718  0.0250  0.0893 -0.0962
10494TIP3    H152897   4.070   1.608   2.732 -0.9263  0.6352  0.2951
10494TIP3    H252898   4.047   1.469   2.787  2.6793 -0.9205 -1.9545
10495TIP3   OH252899   5.234   3.749   1.358 -0.1106 -0.7036  0.2007
10495TIP3    H152900   5.250   3.710   1.444 -0.9604 -2.9151 -0.6094
10495TIP3    H252901   5.241   3.675   1.297 -1.2169  0.5307 -1.4439
10496TIP3   OH252902   4.513   1.465  16.918  0.0041  0.1718  0.2778
10496TIP3    H152903   4.463   1.513  16.985 -0.8565  0.0190 -0.2489
10496TIP3    H252904   4.604   1.483  16.939 -0.1346 -1.9625  3.0881
10497TIP3   OH252905   6.702   1.044   4.813  0.3230  0.8222  0.4167
10497TIP3    H152906   6.791   1.075   4.832 -0.2042  2.1722  0.8202
10497TIP3    H252907   6.657   1.122   4.779 -1.5874  1.0611  3.2269
10498TIP3   OH252908   5.274   4.040   0.986  0.2751  0.0993 -0.5559
10498TIP3    H152909   5.364   4.007   0.984  0.8966  1.7714 -0.6910
10498TIP3    H252910   5.283   4.132   1.010 -1.4710  0.0746  0.2310
10499TIP3   OH252911   2.319   6.319  11.817 -0.4712  0.5320  0.6004
10499TIP3    H152912   2.231   6.282  11.827 -0.5384  0.7495  0.8325
10499TIP3    H252913   2.305   6.413  11.818 -0.2951  0.5637  0.0565
10500TIP3   OH252914   0.334   0.376   4.796  0.3790  0.7523  0.3412
10500TIP3    H152915   0.336   0.331   4.880  0.7364  0.9153  0.4192
10500TIP3    H252916   0.240   0.389   4.778  0.2556 -0.4440  0.0863
10501TIP3   OH252917   1.487   4.331   3.506 -0.0202 -0.7286 -0.0549
10501TIP3    H152918   1.422   4.268   3.473  1.1825 -1.2190 -1.4849
10501TIP3    H252919   1.457   4.416   3.473 -1.2752 -0.6040  1.3239
10502TIP3   OH252920   4.985   3.395   4.781 -0.2832  0.0666  0.4966
10502TIP3    H152921   4.933   3.406   4.702 -0.6775 -0.7735  0.6290
10502TIP3    H252922   4.941   3.325   4.829  0.4011  0.0314  1.0851
10503TIP3   OH252923   6.080   2.198  15.428 -0.2419  0.2160 -0.9822
10503TIP3    H152924   5.996   2.155  15.412  0.7231 -0.7790 -3.5349
10503TIP3    H252925   6.058   2.290  15.440 -1.4824  0.4137 -4.2651
10504TIP3   OH252926   5.137   0.753  14.559  0.3587  0.4705 -0.7965
10504TIP3    H152927   5.164   0.777  14.470  1.4885  0.0461 -0.5840
10504TIP3    H252928   5.144   0.657  14.561 -2.1907  0.2476 -1.0323
10505TIP3   OH252929   4.901   4.998   6.073 -0.5955 -1.1467 -0.0247
10505TIP3    H152930   4.988   5.033   6.092 -1.1160 -0.4357  1.0873
10505TIP3    H252931   4.907   4.965   5.984  0.5639 -0.3013 -0.2633
10506TIP3   OH252932   6.496   4.997  16.624  0.5582 -0.5124  0.0799
10506TIP3    H152933   6.471   4.996  16.716 -2.3288  0.2034 -0.6384
10506TIP3    H252934   6.483   4.907  16.594 -2.6867  0.1345 -0.6198
10507TIP3   OH252935   1.603   1.099  16.303 -0.2642 -0.2205 -0.1114
10507TIP3    H152936   1.671   1.132  16.362 -0.1706 -1.2296  0.3593
10507TIP3    H252937   1.565   1.024  16.349 -1.1236 -0.1785 -0.7416
10508TIP3   OH252938   4.521   5.826  15.035  0.0514 -0.0468 -0.1757
10508TIP3    H152939   4.545   5.735  15.016 -0.5415 -0.3531  0.5115
10508TIP3    H252940   4.567   5.878  14.969 -0.0978 -0.8920 -0.9424
10509TIP3   OH252941   3.235   5.829   4.774  0.0675 -0.2436  0.5247
10509TIP3    H152942   3.232   5.836   4.678  2.1860  1.9573  0.5729
10509TIP3    H252943   3.229   5.735   4.791 -0.3892 -0.6580 -1.7692
10510TIP3   OH252944   0.596   0.966   3.506  0.1332  0.5044  0.4253
10510TIP3    H152945   0.545   0.908   3.562 -1.2513  0.0921 -1.2074
10510TIP3    H252946   0.560   1.053   3.521 -1.1484  0.1957 -0.8124
10511TIP3   OH252947   2.493   2.485  16.560 -0.1525  0.4029 -0.0611
10511TIP3    H152948   2.437   2.545  16.512  0.3952  0.3706 -0.7517
10511TIP3    H252949   2.469   2.498  16.652 -1.3565  0.2979 -0.3594
10512TIP3   OH252950   5.581   6.573   0.331  0.6018 -0.0641  0.3960
10512TIP3    H152951   5.618   6.635   0.395 -1.8016  0.4928  1.3300
10512TIP3    H252952   5.545   6.502   0.385  0.3396 -0.5926 -0.4655
10513TIP3   OH252953   0.595   1.188   0.393  0.1439  0.6755 -0.4301
10513TIP3    H152954   0.639   1.273   0.391  1.2825  0.0988 -0.5130
10513TIP3    H252955   0.504   1.208   0.413  0.0226  2.0704 -2.2665
10514TIP3   OH252956   6.361   4.861   4.689  0.2947 -0.2755  0.0744
10514TIP3    H152957   6.314   4.863   4.773 -0.7644 -1.1429 -0.4937
10514TIP3    H252958   6.444   4.818   4.710  1.3326  2.2029  1.3038
10515TIP3   OH252959   4.263   0.471   2.521  0.9347  0.4107 -0.2354
10515TIP3    H152960   4.201   0.401   2.500 -0.0136  1.7906 -2.1696
10515TIP3    H252961   4.341   0.452   2.470  0.8209  0.5434 -0.4601
10516TIP3   OH252962   2.273   0.560  11.577 -0.1093 -0.0780  0.1582
10516TIP3    H152963   2.258   0.653  11.559  0.4199  0.6883  3.4240
10516TIP3    H252964   2.189   0.518  11.558 -0.4993  1.1231 -0.8354
10517TIP3   OH252965   3.689   0.204  11.308  0.4386 -0.1174  0.4134
10517TIP3    H152966   3.756   0.265  11.277 -0.3263 -0.0680 -1.1984
10517TIP3    H252967   3.717   0.119  11.275 -1.0773  0.1358 -1.6207
10518TIP3   OH252968   3.608   5.074   2.640  0.1459  0.0338 -0.5944
10518TIP3    H152969   3.515   5.096   2.632  0.3941  2.0731  1.5470
10518TIP3    H252970   3.610   5.004   2.705  0.2624  1.6173  1.1480
10519TIP3   OH252971   3.964   0.139   6.044  0.1983 -0.3724 -0.4089
10519TIP3    H152972   3.871   0.122   6.062 -0.8835  3.1616 -2.2404
10519TIP3    H252973   4.010   0.100   6.119 -2.8955 -0.5564  1.5030
10520TIP3   OH252974   5.595   5.294   0.807 -0.1148 -0.2837  0.0519
10520TIP3    H152975   5.655   5.367   0.795 -1.3263  1.0745  2.0055
10520TIP3    H252976   5.525   5.308   0.743 -0.5798  0.5200  0.7334
10521TIP3   OH252977   0.020   1.774   2.787 -0.0690 -0.9801  0.2205
10521TIP3    H152978   0.106   1.752   2.751 -0.0463 -1.1951  0.4100
10521TIP3    H252979  -0.042   1.732   2.727 -0.0333 -1.2347  0.3614
10522TIP3   OH252980   3.990   0.190  14.448 -0.8620  0.0234 -0.2964
10522TIP3    H152981   4.029   0.127  14.508 -0.8410  1.2139  0.9672
10522TIP3    H252982   3.938   0.137  14.387  2.1979 -1.5394 -1.6460
10523TIP3   OH252983   3.019   0.991  11.313  0.8473  0.3645 -0.0564
10523TIP3    H152984   2.955   1.001  11.242 -0.8304 -2.1258  1.0369
10523TIP3    H252985   2.977   1.033  11.388  1.4405  0.5773  0.1530
10524TIP3   OH252986   4.081   3.545   2.287 -0.2314  0.0089  0.0209
10524TIP3    H152987   4.025   3.556   2.364  1.9647 -1.0599  1.8493
10524TIP3    H252988   4.140   3.620   2.291  1.4003 -1.2803  0.7548
10525TIP3   OH252989   3.377   1.023  14.530 -0.6189  0.4354 -0.2215
10525TIP3    H152990   3.341   1.055  14.613 -2.0441 -1.0482 -0.2406
10525TIP3    H252991   3.437   0.953  14.555  1.2973  2.0093 -0.2817
10526TIP3   OH252992   5.331   3.481  15.622  0.6095 -0.2681 -0.4864
10526TIP3    H152993   5.362   3.559  15.669  2.1384 -0.8502 -0.4945
10526TIP3    H252994   5.409   3.448  15.577 -0.3654 -0.9477 -1.7039
10527TIP3   OH252995   4.358   2.650  14.135 -0.0117 -0.2976 -0.0198
10527TIP3    H152996   4.350   2.667  14.229  1.6495 -2.5004  0.5841
10527TIP3    H252997   4.427   2.584  14.129 -0.0984 -0.1945 -2.8043
10528TIP3   OH252998   1.528   4.780  15.759 -0.0649 -0.3732  0.5532
10528TIP3    H152999   1.549   4.873  15.758 -2.5512  0.2569 -2.9440
10528TIP3    H253000   1.592   4.740  15.701 -0.2329 -0.5091  0.4599
10529TIP3   OH253001   0.105   4.363  11.373  0.5983 -0.0806 -0.4460
10529TIP3    H153002   0.161   4.289  11.355  1.1978  0.1903  0.2699
10529TIP3    H253003   0.086   4.402  11.288  1.2248 -0.3714 -0.7119
10530TIP3   OH253004   2.340   2.184   0.545  0.0225 -0.1549  0.0681
10530TIP3    H153005   2.342   2.276   0.519 -1.1890 -0.1792 -0.1229
10530TIP3    H253006   2.318   2.137   0.464 -0.7900 -0.4829  0.4742
10531TIP3   OH253007   2.889   2.552   5.921 -0.0777  0.2241  0.1268
10531TIP3    H153008   2.882   2.623   5.985  0.1054 -0.4037  0.8530
10531TIP3    H253009   2.827   2.575   5.853 -2.4815 -0.5805  1.9605
10532TIP3   OH253010   0.488   3.000   4.734  0.2685  0.2431  0.2662
10532TIP3    H153011   0.580   3.019   4.715  0.0619 -1.0605 -2.1097
10532TIP3    H253012   0.439   3.049   4.668 -0.7106 -0.0978  0.7287
10533TIP3   OH253013   6.300   1.603  10.783 -0.6744  0.0656  0.2626
10533TIP3    H153014   6.358   1.632  10.713 -0.9330  0.5773  0.2590
10533TIP3    H253015   6.217   1.647  10.766 -0.5954  0.5723  1.1532
10534TIP3   OH253016   2.953   4.039   2.230  0.4100  0.5869  0.7126
10534TIP3    H153017   2.957   4.128   2.262  1.2289  0.8804 -0.1905
10534TIP3    H253018   2.957   3.984   2.308  2.3266  1.2854  1.1230
10535TIP3   OH253019   5.977   3.680   2.324 -0.0854  0.4079  0.1230
10535TIP3    H153020   5.933   3.618   2.266 -1.5118  1.3664  0.1502
10535TIP3    H253021   5.949   3.655   2.412  1.2501 -0.3877  0.3496
10536TIP3   OH253022   5.024   5.059   2.984 -0.2444  0.0591 -0.5608
10536TIP3    H153023   5.064   4.972   2.990 -0.3435 -0.0826 -1.7647
10536TIP3    H253024   5.010   5.086   3.075 -0.1291 -1.1443 -0.1800
10537TIP3   OH253025   0.358   1.179  11.583  0.2159  0.1170  0.1125
10537TIP3    H153026   0.367   1.274  11.580  1.3356  0.0694  1.5340
10537TIP3    H253027   0.439   1.145  11.545  1.9616 -0.2658  3.9918
10538TIP3   OH253028   5.354   0.745  16.722  0.2214  0.3009 -0.3435
10538TIP3    H153029   5.329   0.818  16.666  1.9209  0.7908 -0.4941
10538TIP3    H253030   5.304   0.757  16.802 -1.9864 -0.2105 -1.6017
10539TIP3   OH253031   5.308   3.674   0.925  0.1879 -0.1285  0.1458
10539TIP3    H153032   5.311   3.769   0.937 -0.0202 -0.0358 -0.5222
10539TIP3    H253033   5.398   3.645   0.939  0.9280  0.5606 -2.8295
10540TIP3   OH253034   0.305   2.231   0.081  0.3867 -0.0689 -0.2287
10540TIP3    H153035   0.312   2.258  -0.010  1.0107 -0.2222 -0.2284
10540TIP3    H253036   0.345   2.144   0.084 -0.3187 -0.3893  0.0480
10541TIP3   OH253037   1.000   1.518  14.276  0.8035  0.2198 -0.2109
10541TIP3    H153038   0.975   1.559  14.193 -0.2943  0.2494  0.1278
10541TIP3    H253039   1.074   1.571  14.307  0.5821  0.8122 -0.6798
10542TIP3   OH253040   1.122   0.863  11.411  0.2210  0.0005  0.4359
10542TIP3    H153041   1.052   0.913  11.369 -0.7153 -1.8111 -0.1768
10542TIP3    H253042   1.079   0.816  11.482  1.1204  0.1525  1.0907
10543TIP3   OH253043   2.968   1.829   1.136 -0.2768 -0.1935 -0.0497
10543TIP3    H153044   3.027   1.892   1.176  2.2405 -2.3721 -0.2159
10543TIP3    H253045   2.941   1.870   1.054  2.3571  0.1479 -0.7690
10544TIP3   OH253046   6.268   0.666   1.128  0.6515 -0.8479  0.1671
10544TIP3    H153047   6.247   0.750   1.087  1.6968 -1.8512 -2.5742
10544TIP3    H253048   6.193   0.647   1.184 -0.8384  0.6336 -1.2784
10545TIP3   OH253049   3.695   2.351   0.076  0.0692 -0.5493  0.1288
10545TIP3    H153050   3.735   2.416   0.134  1.3809 -0.7026 -0.5638
10545TIP3    H253051   3.634   2.401   0.022  0.8876  0.0717 -0.2321
10546TIP3   OH253052   6.175   6.753  14.707  0.5945  0.3925  0.3086
10546TIP3    H153053   6.196   6.835  14.753 -2.1296  1.6416 -0.5791
10546TIP3    H253054   6.121   6.705  14.770 -0.0794  0.4942 -0.1878
10547TIP3   OH253055   6.549   0.157  17.239 -0.1668 -0.4988 -0.4711
10547TIP3    H153056   6.631   0.152  17.190 -0.3338 -1.7617 -0.6218
10547TIP3    H253057   6.486   0.196  17.178  0.5755  1.4702 -0.0093
10548TIP3   OH253058   3.496   3.131  12.141 -0.4503 -0.0759 -0.2635
10548TIP3    H153059   3.582   3.170  12.157 -1.1348  1.0959  0.6913
10548TIP3    H253060   3.514   3.052  12.091  1.2126 -0.0225  0.2194
10549TIP3   OH253061   3.929   5.909  16.750  0.5271  0.2324 -0.6702
10549TIP3    H153062   4.003   5.962  16.719 -0.7016  2.1977 -0.3562
10549TIP3    H253063   3.854   5.940  16.699 -0.8748  1.1505  1.8484
10550TIP3   OH253064   0.973   2.405  15.002 -0.3343 -0.3518  0.2805
10550TIP3    H153065   1.015   2.439  15.081 -0.3330 -0.8366  0.4889
10550TIP3    H253066   0.974   2.310  15.013 -2.8577 -0.3181  0.9959
10551TIP3   OH253067   0.940   0.621   4.843 -0.2122  0.2813 -0.3364
10551TIP3    H153068   0.883   0.555   4.804 -0.2512  0.1905 -0.1274
10551TIP3    H253069   0.976   0.669   4.769  0.5386 -0.5778 -0.5369
10552TIP3   OH253070   2.958   6.106   3.690 -0.6263 -0.0189 -1.3268
10552TIP3    H153071   2.863   6.115   3.677 -0.6337  0.7368 -0.7548
10552TIP3    H253072   2.992   6.194   3.681  0.0838 -0.3568 -1.9487
10553TIP3   OH253073   1.335   6.565  14.599  0.3716 -0.3260  0.3924
10553TIP3    H153074   1.304   6.557  14.689  1.7563  0.5138  0.9481
10553TIP3    H253075   1.328   6.477  14.563 -1.3537 -0.4265  0.9272
10554TIP3   OH253076   3.260   4.142  11.666 -0.3293  0.4322 -0.4524
10554TIP3    H153077   3.199   4.086  11.713  0.5057  0.1750  0.3556
10554TIP3    H253078   3.261   4.224  11.716  1.7745 -0.4058  0.9634
10555TIP3   OH253079   0.855   2.829   5.723  0.3847  0.1759  0.7281
10555TIP3    H153080   0.895   2.867   5.644 -1.6390 -0.9695 -0.8921
10555TIP3    H253081   0.927   2.783   5.767  1.1460 -0.7841 -1.4593
10556TIP3   OH253082   0.147   2.910   5.423  0.4482 -0.1638 -0.3151
10556TIP3    H153083   0.194   2.881   5.501  0.3621  1.4593  0.3623
10556TIP3    H253084   0.213   2.914   5.354  0.7824 -0.3934 -0.0034
10557TIP3   OH253085   5.540   5.143  10.685 -0.4343 -0.5900 -0.1066
10557TIP3    H153086   5.609   5.089  10.724  0.1797  0.1763 -0.1283
10557TIP3    H253087   5.561   5.232  10.712 -1.3730 -0.3462 -0.1876
10558TIP3   OH253088   0.142   3.882   4.504 -0.0055  0.1688  0.2291
10558TIP3    H153089   0.236   3.883   4.522 -0.1142  1.3877  0.7591
10558TIP3    H253090   0.135   3.850   4.414  0.9302  0.4419  0.0560
10559TIP3   OH253091   0.799   1.480   1.243 -0.8880  0.1232  0.2513
10559TIP3    H153092   0.864   1.445   1.182 -0.9074 -1.6326  1.2035
10559TIP3    H253093   0.719   1.488   1.192 -0.4461  0.3546 -0.4085
10560TIP3   OH253094   3.156   5.260   1.946  0.2669 -0.5097 -0.1421
10560TIP3    H153095   3.161   5.176   1.901 -1.8592 -0.3463 -0.7533
10560TIP3    H253096   3.236   5.265   1.998  1.3894 -1.9698 -1.7130
10561TIP3   OH253097   4.213   4.831  13.801  0.2489  0.5192 -0.3735
10561TIP3    H153098   4.180   4.888  13.871  0.2213 -0.6781  0.6189
10561TIP3    H253099   4.287   4.785  13.841  1.6722  1.4644 -1.8510
10562TIP3   OH253100   4.040   5.134   6.117  0.2874 -0.1519  0.2827
10562TIP3    H153101   4.082   5.053   6.088  0.5309  0.4994 -1.2367
10562TIP3    H253102   4.081   5.202   6.064 -0.9425  0.7896  0.5339
10563TIP3   OH253103   2.193   0.418  15.122  0.1655  0.0934 -0.5158
10563TIP3    H153104   2.128   0.355  15.092  1.2673 -0.6015 -1.4746
10563TIP3    H253105   2.142   0.488  15.163 -1.0476 -1.5943  0.9232
10564TIP3   OH253106   2.294   5.661   5.460 -0.3736 -0.0514  0.0508
10564TIP3    H153107   2.260   5.676   5.372 -0.8101 -0.4596  0.1450
10564TIP3    H253108   2.389   5.652   5.448 -0.3421  0.7149 -0.2637
10565TIP3   OH253109   5.549   4.529  11.925  0.4310 -0.0507  1.2257
10565TIP3    H153110   5.638   4.551  11.952  0.1858  0.5647  1.5423
10565TIP3    H253111   5.522   4.460  11.985  1.1994 -1.2390  0.2319
10566TIP3   OH253112   0.770   6.160  11.217  0.4632  0.2491  0.9432
10566TIP3    H153113   0.774   6.255  11.222 -0.1267  0.2146  1.9790
10566TIP3    H253114   0.738   6.143  11.128  3.2597  0.9409 -0.2724
10567TIP3   OH253115   1.500   0.482  14.172  0.2070 -0.3665  0.5666
10567TIP3    H153116   1.537   0.446  14.092 -1.6192 -0.8530 -0.0819
10567TIP3    H253117   1.508   0.411  14.236 -1.9322 -1.4038 -0.2769
10568TIP3   OH253118   4.861   0.592  13.806 -0.8759  0.0344 -0.2920
10568TIP3    H153119   4.905   0.527  13.752  0.4213  0.7082 -0.0673
10568TIP3    H253120   4.848   0.548  13.890  0.0670  0.0698 -0.1135
10569TIP3   OH253121   0.175   5.073  15.958  0.4986 -0.2424  0.2330
10569TIP3    H153122   0.093   5.078  16.007  1.6555  2.0824  1.9851
10569TIP3    H253123   0.149   5.038  15.873 -1.9578 -1.6896  1.5245
10570TIP3   OH253124   0.129   3.492  11.241 -0.3511  0.4386  0.6597
10570TIP3    H153125   0.092   3.528  11.160  2.7997  0.4443 -0.8505
10570TIP3    H253126   0.105   3.555  11.308  1.0000  2.9804 -1.1301
10571TIP3   OH253127   1.768   3.805   1.069 -0.1608  0.2721  0.3496
10571TIP3    H153128   1.835   3.738   1.055  0.5032  0.8808  0.5594
10571TIP3    H253129   1.805   3.885   1.030 -1.1889  0.3852 -0.4064
10572TIP3   OH253130   5.194   0.012   1.360 -0.6290  0.3073  0.1260
10572TIP3    H153131   5.109  -0.030   1.349 -0.6885  0.7341 -1.1353
10572TIP3    H253132   5.196   0.040   1.452 -1.4682 -0.5140  0.4015
10573TIP3   OH253133   5.941   4.151   3.887 -0.3338 -0.1676  0.9074
10573TIP3    H153134   5.975   4.154   3.976  0.7793 -1.4369  0.5426
10573TIP3    H253135   5.846   4.153   3.897 -0.1990  0.3553  2.0927
10574TIP3   OH253136   1.204   1.433  15.886 -0.5856  0.3190 -0.2816
10574TIP3    H153137   1.217   1.459  15.795 -3.9610 -1.3740 -1.3491
10574TIP3    H253138   1.209   1.338  15.885  2.6672  0.4077  1.9415
10575TIP3   OH253139   3.036   3.574   2.539 -0.2631  1.0330 -0.1399
10575TIP3    H153140   3.015   3.601   2.450 -0.4760  1.5577  0.0667
10575TIP3    H253141   3.044   3.479   2.535  0.3425  1.1087 -0.8453
10576TIP3   OH253142   1.155   3.043   5.165  0.5790 -0.5603 -0.3739
10576TIP3    H153143   1.087   3.110   5.166 -1.3980 -2.4394 -2.5660
10576TIP3    H253144   1.185   3.038   5.255 -0.2314  2.2500  0.0949
10577TIP3   OH253145   5.653   4.163  12.981 -0.5195 -0.1266 -0.4553
10577TIP3    H153146   5.641   4.070  13.002  0.3553 -0.3129 -0.7749
10577TIP3    H253147   5.715   4.194  13.047  0.4782 -0.1669 -1.3703
10578TIP3   OH253148   2.158   6.339   0.919  0.7752  0.3552  0.0319
10578TIP3    H153149   2.234   6.334   0.977  1.3143 -1.8483 -0.8267
10578TIP3    H253150   2.086   6.366   0.976  2.2259  2.7500  0.8131
10579TIP3   OH253151   3.703   6.524  13.834  0.0857  0.5265  0.0957
10579TIP3    H153152   3.694   6.581  13.910  1.8453  0.9064  0.0468
10579TIP3    H253153   3.616   6.524  13.794 -0.6468  0.9517  1.6501
10580TIP3   OH253154   0.258   4.894   1.761  0.0319  0.2097  0.3293
10580TIP3    H153155   0.215   4.976   1.787 -0.3612  0.6249 -1.6061
10580TIP3    H253156   0.210   4.827   1.810  0.3357  1.1044  1.9063
10581TIP3   OH253157   4.074   4.570   2.490 -0.1372 -0.6310 -0.4043
10581TIP3    H153158   4.058   4.509   2.418 -1.1227  0.3070 -0.9968
10581TIP3    H253159   4.071   4.657   2.449  0.1549 -0.1282  0.6174
10582TIP3   OH253160   5.945   1.358  15.435 -0.0267 -0.0317  0.0860
10582TIP3    H153161   5.952   1.445  15.474  0.6116  0.9260 -2.0425
10582TIP3    H253162   5.991   1.366  15.351  0.1049 -2.4501 -0.1047
10583TIP3   OH253163   5.641   2.972  15.488  0.0348  0.0055  0.0270
10583TIP3    H153164   5.611   2.918  15.414 -2.3264  0.7606  0.3749
10583TIP3    H253165   5.727   3.003  15.462  0.7648 -2.6241 -0.8810
10584TIP3   OH253166   4.790   6.645  11.637  0.1166  0.4957  0.5150
10584TIP3    H153167   4.832   6.571  11.595 -0.6844 -0.6842  1.7315
10584TIP3    H253168   4.784   6.712  11.569  3.2493  0.4370  0.1102
10585TIP3   OH253169   5.476   5.251   4.687 -0.0688 -0.2925  0.6997
10585TIP3    H153170   5.514   5.319   4.631  0.6807  0.9110  2.6113
10585TIP3    H253171   5.385   5.277   4.697 -0.1540 -0.3943  0.2129
10586TIP3   OH253172   3.330   2.694  14.640  0.0419  0.3217  0.6012
10586TIP3    H153173   3.425   2.682  14.636  0.1815  1.3880  0.4703
10586TIP3    H253174   3.318   2.766  14.702 -0.6735  0.3227  0.4652
10587TIP3   OH253175   4.452   3.420  15.403 -0.5465 -0.2970  0.0713
10587TIP3    H153176   4.434   3.500  15.452 -1.2871 -1.2024  1.3158
10587TIP3    H253177   4.384   3.418  15.335 -0.1549  0.4308 -0.3443
10588TIP3   OH253178   0.314   5.745  15.648 -0.2594  0.2485  0.2394
10588TIP3    H153179   0.245   5.766  15.585  0.6837 -1.1379 -1.3187
10588TIP3    H253180   0.367   5.825  15.653 -1.2923  0.9169  0.5340
10589TIP3   OH253181   6.298   5.519  16.918 -0.4069 -0.3569  0.4012
10589TIP3    H153182   6.353   5.597  16.918  0.5929 -1.0513 -0.2739
10589TIP3    H253183   6.212   5.550  16.892 -0.2731  0.6883  1.1470
10590TIP3   OH253184   3.410   2.165  16.755 -0.8571 -0.4060 -0.2882
10590TIP3    H153185   3.472   2.219  16.803 -2.3293 -0.6299  1.9137
10590TIP3    H253186   3.367   2.225  16.694 -1.6594  0.6850  1.3324
10591TIP3   OH253187   2.553   2.897   0.424 -0.1166  0.4211  0.4317
10591TIP3    H153188   2.633   2.847   0.438 -0.4423  0.1174  1.2494
10591TIP3    H253189   2.493   2.834   0.383 -0.5478  0.1137  1.5206
10592TIP3   OH253190   3.382   5.221  13.571  0.2814 -0.0698 -0.3520
10592TIP3    H153191   3.332   5.212  13.652  1.9916 -0.3804  0.6955
10592TIP3    H253192   3.368   5.311  13.543 -0.5772 -0.0586  0.1172
10593TIP3   OH253193   2.900   6.611   1.072  0.8646  0.4623  0.4130
10593TIP3    H153194   2.836   6.678   1.047  1.6615 -0.1159 -3.4451
10593TIP3    H253195   2.848   6.545   1.117 -0.6296  1.6807  0.5353
10594TIP3   OH253196   0.425   6.174   5.968 -0.0899 -0.0235 -0.0239
10594TIP3    H153197   0.380   6.106   5.918  0.1632 -0.3601  0.2064
10594TIP3    H253198   0.420   6.144   6.059 -0.2719  0.4301  0.1215
10595TIP3   OH253199   1.034   3.386   0.158  0.2537  0.2873 -0.3229
10595TIP3    H153200   0.975   3.384   0.233  0.3201  1.7724 -0.2302
10595TIP3    H253201   1.108   3.440   0.186  0.7899 -0.0394 -1.0809
10596TIP3   OH253202   4.451   5.837  12.006  0.4103  0.2872  0.4073
10596TIP3    H153203   4.365   5.860  12.042  0.4975  1.1924  0.0481
10596TIP3    H253204   4.513   5.889  12.057  0.6056  0.9010 -0.4463
10597TIP3   OH253205   5.389   3.891   4.901  0.3602  0.2745  0.1193
10597TIP3    H153206   5.333   3.962   4.868 -1.3001 -0.9378  0.2824
10597TIP3    H253207   5.441   3.865   4.825  0.0068  0.7668 -0.2986
10598TIP3   OH253208   3.890   2.093  16.158  0.1270  0.1709  0.1897
10598TIP3    H153209   3.876   2.186  16.145 -0.7121 -0.0848 -0.8211
10598TIP3    H253210   3.812   2.051  16.122  0.5051 -0.9194  0.6022
10599TIP3   OH253211   3.347   6.405   0.864  0.7887  0.6723  0.5556
10599TIP3    H153212   3.366   6.493   0.830  0.7511 -0.1763 -1.7675
10599TIP3    H253213   3.254   6.393   0.847  1.1567 -0.4558 -0.6780
10600TIP3   OH253214   1.573   3.605   1.152 -0.6435  0.0533 -0.7824
10600TIP3    H153215   1.488   3.648   1.155 -0.5168  0.3773 -1.6673
10600TIP3    H253216   1.631   3.668   1.110  0.4251  0.4775  1.2847
10601TIP3   OH253217   1.170   0.232   0.072  0.7900  0.3384  0.4658
10601TIP3    H153218   1.146   0.182  -0.006 -0.0819 -0.0075  0.9379
10601TIP3    H253219   1.197   0.317   0.040  2.1588 -0.3840 -0.3479
10602TIP3   OH253220   1.423   2.111  16.913  0.2658  0.3242 -0.0030
10602TIP3    H153221   1.450   2.019  16.915 -0.4231  0.1228  0.3525
10602TIP3    H253222   1.439   2.143  17.002  0.0293  0.4016  0.0121
10603TIP3   OH253223   6.715   3.373   0.466  0.0378  0.3262  0.1605
10603TIP3    H153224   6.712   3.292   0.518 -0.7138  0.0549 -0.3056
10603TIP3    H253225   6.646   3.362   0.401  0.7039  0.8524 -0.6353
10604TIP3   OH253226   6.638   6.309   3.946 -0.2971 -0.4103  0.8174
10604TIP3    H153227   6.670   6.382   3.893  0.1854 -0.0441  1.6228
10604TIP3    H253228   6.584   6.350   4.013 -2.2580 -0.9862 -0.3442
10605TIP3   OH253229   0.101   4.109   4.672 -0.1344 -0.1489  0.0225
10605TIP3    H153230   0.020   4.098   4.722  1.2390 -0.1434  2.3232
10605TIP3    H253231   0.117   4.022   4.635 -1.8140  0.1478 -1.4740
10606TIP3   OH253232   4.173   1.741  15.681  0.1498  0.3804 -0.1255
10606TIP3    H153233   4.144   1.690  15.756  0.5529  1.6570  0.9082
10606TIP3    H253234   4.111   1.720  15.612 -0.3317 -0.6608  0.6209
10607TIP3   OH253235   5.222   2.291   3.994  0.5297 -0.1704  0.0558
10607TIP3    H153236   5.268   2.374   3.986  1.1454 -0.4786  0.2970
10607TIP3    H253237   5.235   2.248   3.909 -0.7577  0.4568 -0.4720
10608TIP3   OH253238   2.946   0.925   3.158  0.2314  0.3944  0.0783
10608TIP3    H153239   2.871   0.971   3.195 -1.5576 -0.9140 -1.8322
10608TIP3    H253240   2.988   0.882   3.233 -0.3375  1.9360  1.2944
10609TIP3   OH253241   5.771   1.725  15.805  0.4178 -0.3801 -0.0088
10609TIP3    H153242   5.765   1.818  15.782  0.6514 -0.3529  0.0324
10609TIP3    H253243   5.819   1.724  15.888  1.1395 -0.5897 -0.4239
10610TIP3   OH253244   4.253   5.974  12.138 -0.0941 -0.6340  0.4712
10610TIP3    H153245   4.317   5.972  12.210  0.0209  2.8289  0.5795
10610TIP3    H253246   4.169   5.956  12.179  0.4895 -3.0957  0.6795
10611TIP3   OH253247   0.204   6.452  14.138 -0.4575 -0.4027 -0.3390
10611TIP3    H153248   0.272   6.484  14.079  0.4028 -1.8966 -0.1913
10611TIP3    H253249   0.159   6.384  14.087 -0.8929 -0.4301  0.0812
10612TIP3   OH253250   4.966   2.683   0.031 -0.5911 -0.0319  0.2241
10612TIP3    H153251   5.012   2.767   0.030  0.1840 -0.4570 -0.1148
10612TIP3    H253252   5.029   2.620  -0.006 -1.6968 -0.4864 -0.9476
10613TIP3   OH253253   0.752   4.740  11.540  0.0830 -0.4226 -0.3647
10613TIP3    H153254   0.779   4.663  11.591 -0.2015 -0.7112 -0.6460
10613TIP3    H253255   0.723   4.704  11.456  0.2254  0.0213 -0.6068
10614TIP3   OH253256   3.061   3.948  15.005 -0.3985 -0.5497  0.0714
10614TIP3    H153257   3.153   3.963  15.022 -0.6761  0.4712  0.6735
10614TIP3    H253258   3.059   3.865  14.957  0.8054 -0.6855  0.2478
10615TIP3   OH253259   4.145   4.897   1.247  0.1281 -0.3324  0.0349
10615TIP3    H153260   4.059   4.858   1.232  0.5348 -2.6671  3.2142
10615TIP3    H253261   4.129   4.992   1.242 -2.4585 -0.7388 -0.2787
10616TIP3   OH253262   3.001   3.629   3.348 -0.6218  0.1890 -0.2177
10616TIP3    H153263   3.039   3.713   3.321  0.1066  0.8415  2.6686
10616TIP3    H253264   2.912   3.651   3.375 -0.5074  0.0008  0.3205
10617TIP3   OH253265   2.686   2.088   4.916  0.1064 -0.3477 -0.0589
10617TIP3    H153266   2.696   2.124   5.004  0.5687 -1.7059  0.4562
10617TIP3    H253267   2.752   2.019   4.911 -0.1351 -0.4903 -1.3636
10618TIP3   OH253268   3.375   1.852  13.450  0.1504  0.3293 -0.6338
10618TIP3    H153269   3.446   1.792  13.473  1.4784  2.2294  0.3888
10618TIP3    H253270   3.300   1.795  13.435  0.3455 -1.4558  4.0833
10619TIP3   OH253271   2.704   3.682  12.048 -0.0473 -0.4761 -0.5424
10619TIP3    H153272   2.785   3.662  12.001 -0.5465  0.2651 -1.7294
10619TIP3    H253273   2.639   3.623  12.009 -0.0840 -1.0598  0.3950
10620TIP3   OH253274   1.209   2.696  15.707  0.1343  0.0358  0.0959
10620TIP3    H153275   1.275   2.759  15.677  2.2237 -1.7520  0.7908
10620TIP3    H253276   1.202   2.633  15.636 -0.2404 -0.2042  0.3469
10621TIP3   OH253277   3.768   4.212   4.524 -0.1702  0.6426 -0.0630
10621TIP3    H153278   3.678   4.218   4.493 -0.9961 -2.8616  1.4207
10621TIP3    H253279   3.813   4.158   4.459 -0.1534 -0.8625  1.1666
10622TIP3   OH253280   0.029   0.418   4.142  0.1414  0.6448  0.1649
10622TIP3    H153281  -0.030   0.369   4.199  1.6340  0.1137  1.2844
10622TIP3    H253282   0.044   0.501   4.187 -0.4192  1.1358 -0.5366
10623TIP3   OH253283   4.578   4.585   2.445  0.1999 -0.4752  0.1998
10623TIP3    H153284   4.558   4.679   2.452  1.0252 -0.2096 -0.7734
10623TIP3    H253285   4.663   4.583   2.401 -0.5415 -1.7181 -1.2180
10624TIP3   OH253286   5.509   1.453   0.592  0.0542  0.3357  0.5802
10624TIP3    H153287   5.449   1.505   0.645  0.5770  0.2907  1.2295
10624TIP3    H253288   5.569   1.413   0.656  0.4317 -0.0523 -0.0106
10625TIP3   OH253289   0.470   3.305   6.311 -0.1801 -0.7718 -0.3133
10625TIP3    H153290   0.534   3.271   6.373 -1.0463 -0.3783  0.8344
10625TIP3    H253291   0.389   3.257   6.332 -0.7028  0.0058 -0.5222
10626TIP3   OH253292   5.251   3.418  13.957  0.4171  0.1457 -0.0429
10626TIP3    H153293   5.308   3.496  13.954  0.5292  0.1193  1.1067
10626TIP3    H253294   5.306   3.347  13.924  0.9311  0.1962  0.6970
10627TIP3   OH253295   0.854   3.489  14.476  0.1817 -0.5456 -0.2112
10627TIP3    H153296   0.786   3.437  14.434 -1.3546  1.6093 -0.4352
10627TIP3    H253297   0.903   3.529  14.404 -0.3960  0.5318 -0.0148
10628TIP3   OH253298   3.176   4.401  12.885 -0.4506  0.6730 -0.0138
10628TIP3    H153299   3.112   4.380  12.816  0.8489  0.7449 -1.2543
10628TIP3    H253300   3.231   4.469  12.847  0.7144  0.2277  0.8516
10629TIP3   OH253301   4.417   0.170   2.560  0.4310 -0.2714 -0.1439
10629TIP3    H153302   4.443   0.244   2.506 -2.2628 -0.4919 -1.8400
10629TIP3    H253303   4.377   0.108   2.499  0.2487 -1.9619  1.6300
10630TIP3   OH253304   3.309   2.273  11.273  0.0980 -0.2903 -0.2457
10630TIP3    H153305   3.345   2.272  11.185 -0.9838 -0.1787 -0.6963
10630TIP3    H253306   3.239   2.208  11.272  1.1363 -1.4644  0.9998
10631TIP3   OH253307   1.270   4.283   3.719  0.2189 -0.0353  0.1488
10631TIP3    H153308   1.198   4.308   3.662  0.7241 -2.1125 -1.4647
10631TIP3    H253309   1.310   4.367   3.745  0.2764  0.9948 -2.9760
10632TIP3   OH253310   2.976   5.315   4.196  0.1912 -0.2268  0.3775
10632TIP3    H153311   2.882   5.330   4.186  0.3329  1.3559  1.2808
10632TIP3    H253312   3.001   5.271   4.115 -1.3492 -0.8351  0.2023
10633TIP3   OH253313   5.429   2.297  15.659  0.2391  0.2180 -0.0124
10633TIP3    H153314   5.444   2.385  15.625  2.2528 -0.3545 -0.7042
10633TIP3    H253315   5.378   2.253  15.591  3.7147 -0.7298 -2.1514
10634TIP3   OH253316   2.763   2.671  13.025 -1.2564 -0.4812  0.6098
10634TIP3    H153317   2.734   2.581  13.011  0.6914 -0.8698 -1.1469
10634TIP3    H253318   2.699   2.707  13.087 -2.4178 -2.8628  0.8692
10635TIP3   OH253319   2.821   2.689  17.226  0.2065 -0.4198  0.0147
10635TIP3    H153320   2.794   2.738  17.304 -0.8016 -0.2479 -0.4357
10635TIP3    H253321   2.833   2.757  17.159 -1.0594 -0.7563 -0.5719
10636TIP3   OH253322   0.415   0.939  10.852 -0.1148 -0.1669 -0.0915
10636TIP3    H153323   0.455   0.858  10.884 -0.0883 -0.7222 -1.4938
10636TIP3    H253324   0.482   0.978  10.796  0.5838  1.7926  2.0365
10637TIP3   OH253325   5.652   1.294   5.210  0.1144  0.1683  0.0797
10637TIP3    H153326   5.610   1.339   5.283 -2.0303 -2.3739  0.4714
10637TIP3    H253327   5.735   1.263   5.245  0.8689  2.2913  0.2725
10638TIP3   OH253328   4.893   0.864  13.908 -0.2724 -0.6430 -0.1933
10638TIP3    H153329   4.891   0.790  13.847  1.5897 -0.4446 -0.5349
10638TIP3    H253330   4.883   0.942  13.853  2.7670 -0.3800 -0.4763
10639TIP3   OH253331   1.130   2.184  11.437  0.0810  0.3191 -0.1270
10639TIP3    H153332   1.045   2.154  11.403  0.2828 -1.9224  1.2099
10639TIP3    H253333   1.116   2.276  11.459 -2.4611 -0.3455  1.3013
10640TIP3   OH253334   4.607   3.085   3.518  0.2498  0.1166 -0.5533
10640TIP3    H153335   4.657   3.147   3.464  0.5816 -0.7543 -1.2461
10640TIP3    H253336   4.543   3.047   3.458  1.0591 -1.3527 -0.5024
10641TIP3   OH253337   6.553   1.295  14.182  0.2315  0.2226  0.3281
10641TIP3    H153338   6.567   1.340  14.098 -1.6211  1.3944  0.6215
10641TIP3    H253339   6.519   1.364  14.240  0.7369 -0.7640  1.8086
10642TIP3   OH253340   3.049   6.250   0.583  0.1228 -0.7619 -0.1915
10642TIP3    H153341   2.975   6.256   0.644  0.4732  0.1794  0.1599
10642TIP3    H253342   3.109   6.319   0.612  1.6402 -2.2340  0.1808
10643TIP3   OH253343   4.934   2.627   2.458  0.2170 -0.3318  0.8613
10643TIP3    H153344   4.991   2.564   2.415 -1.0647 -1.0299  0.1478
10643TIP3    H253345   4.863   2.574   2.495 -0.7180  0.6502  0.5151
10644TIP3   OH253346   4.519   3.680  15.293  0.1811 -0.0919 -0.4371
10644TIP3    H153347   4.594   3.661  15.350 -0.8498  0.0138  0.9968
10644TIP3    H253348   4.454   3.718  15.352 -1.2099 -0.6938 -1.5703
10645TIP3   OH253349   5.606   5.994   5.308  0.3424  0.2137 -0.1010
10645TIP3    H153350   5.593   5.922   5.369 -2.7559  0.8475  0.0886
10645TIP3    H253351   5.674   6.048   5.348 -0.1515 -0.4893  1.7393
10646TIP3   OH253352   6.033   2.472   0.062 -0.4925  0.2513 -0.5060
10646TIP3    H153353   5.954   2.521   0.037 -0.5407 -0.0199 -0.8827
10646TIP3    H253354   6.001   2.386   0.088 -0.0683 -0.7531 -3.2026
10647TIP3   OH253355   4.418   0.216  13.896 -0.1805 -0.1775  0.3289
10647TIP3    H153356   4.401   0.127  13.866  0.2101 -0.3159  0.5245
10647TIP3    H253357   4.391   0.216  13.988  1.9418 -0.7130  0.9767
10648TIP3   OH253358   1.102   4.959  12.856  0.0908  0.6088 -0.4358
10648TIP3    H153359   1.158   4.902  12.908 -0.5533 -0.0474 -0.4381
10648TIP3    H253360   1.078   5.031  12.915  1.2253  1.0855 -0.5577
10649TIP3   OH253361   4.855   4.847  11.674 -0.2851  0.1184  0.0903
10649TIP3    H153362   4.934   4.849  11.620 -1.6009  1.2519 -1.8514
10649TIP3    H253363   4.851   4.934  11.714 -0.4914  0.0241  0.2747
10650TIP3   OH253364   1.705   6.537   6.172  0.3764 -0.0094 -0.3965
10650TIP3    H153365   1.654   6.608   6.211  1.2819  0.4923 -0.1075
10650TIP3    H253366   1.641   6.469   6.153 -0.5881  1.0987 -1.1684
10651TIP3   OH253367   0.249   5.959  17.065 -0.5427  0.7803 -0.0720
10651TIP3    H153368   0.260   5.945  16.971  3.4041  0.6727  0.3215
10651TIP3    H253369   0.220   5.874  17.099 -0.5549  0.4102 -0.9973
10652TIP3   OH253370   5.175   6.487   2.942  0.9910  0.0796 -0.0380
10652TIP3    H153371   5.225   6.406   2.950  0.3382 -0.2067  1.1811
10652TIP3    H253372   5.086   6.463   2.968  0.7025  1.0986 -0.0715
10653TIP3   OH253373   2.415   4.679   5.065 -0.3659 -0.2925  0.4718
10653TIP3    H153374   2.503   4.645   5.055 -0.9003 -1.4818 -0.2755
10653TIP3    H253375   2.402   4.736   4.989 -0.1460  0.1125  0.7343
10654TIP3   OH253376   2.136   1.473   5.161  0.1976  0.3550  0.3230
10654TIP3    H153377   2.187   1.491   5.082  0.2843 -1.5583 -0.0666
10654TIP3    H253378   2.195   1.423   5.217 -0.4447  0.2217  0.8867
10655TIP3   OH253379   1.015   6.695   5.071 -0.6915  0.3017  0.1485
10655TIP3    H153380   0.936   6.641   5.068 -0.3999 -0.0583 -1.7068
10655TIP3    H253381   0.982   6.785   5.077 -1.2068  0.0697  0.9622
10656TIP3   OH253382   0.645   6.370  16.647  0.3950 -0.1689  0.7615
10656TIP3    H153383   0.711   6.309  16.613  0.2149  0.2579 -0.3996
10656TIP3    H253384   0.695   6.431  16.701  0.7797 -0.5277  0.8176
10657TIP3   OH253385   1.840   5.130   3.579  0.1184  0.2416  0.0467
10657TIP3    H153386   1.783   5.206   3.587  1.6194  1.5058 -1.0777
10657TIP3    H253387   1.792   5.071   3.521 -1.1141  0.2374  1.0296
10658TIP3   OH253388   3.066   3.478   5.663  0.4132 -0.0160  0.3874
10658TIP3    H153389   3.109   3.481   5.749 -1.0119  0.6877  1.0892
10658TIP3    H253390   3.069   3.386   5.638  0.1820 -0.3387  1.5261
10659TIP3   OH253391   4.127   0.948   5.726  0.3047  0.0896 -0.1861
10659TIP3    H153392   4.122   1.003   5.648 -2.9108 -0.2403 -0.2708
10659TIP3    H253393   4.141   1.009   5.798  1.4819  0.5631 -0.8139
10660TIP3   OH253394   1.251   1.612  12.028  0.2424  1.1648  0.4764
10660TIP3    H153395   1.243   1.701  12.062  1.2435  0.6432  2.1022
10660TIP3    H253396   1.300   1.564  12.095  1.2850 -0.1691 -1.1851
10661TIP3   OH253397   5.560   0.938   2.398 -0.1414  0.1955 -0.3887
10661TIP3    H153398   5.500   0.975   2.463  0.9057 -0.3690  0.9447
10661TIP3    H253399   5.509   0.932   2.318 -2.0293 -0.7453  0.8362
10662TIP3   OH253400   1.190   3.375   3.682  0.1285  0.1451  0.0681
10662TIP3    H153401   1.098   3.363   3.704 -0.0691  1.0072 -0.2769
10662TIP3    H253402   1.190   3.442   3.614  1.1302  1.3619  1.2379
10663TIP3   OH253403   0.360   5.397   0.651  0.5990  0.1407 -0.1085
10663TIP3    H153404   0.289   5.462   0.656  0.2979 -0.2669  1.3527
10663TIP3    H253405   0.440   5.450   0.651  0.3090  0.5827 -1.1189
10664TIP3   OH253406   4.387   1.752  12.116 -0.0494  0.0149  0.7058
10664TIP3    H153407   4.394   1.707  12.199  1.8876 -2.4480 -0.7450
10664TIP3    H253408   4.353   1.686  12.055  2.3315  0.6098 -1.3433
10665TIP3   OH253409   3.717   5.885  14.429 -0.0524  0.2361 -0.1580
10665TIP3    H153410   3.781   5.895  14.500  0.1400  2.8456 -0.6414
10665TIP3    H253411   3.642   5.843  14.470  0.0899  1.6358  1.5857
10666TIP3   OH253412   5.892   5.618  16.350 -0.3068 -0.6496 -0.3439
10666TIP3    H153413   5.813   5.635  16.300 -0.7085 -1.0295  0.1606
10666TIP3    H253414   5.861   5.594  16.437  0.3966  1.7234  0.6253
10667TIP3   OH253415   5.636   1.892   2.541 -0.4266 -0.2332 -0.7379
10667TIP3    H153416   5.543   1.911   2.554  0.1667  1.4928  1.1435
10667TIP3    H253417   5.662   1.946   2.467 -0.6127  0.2656 -0.4378
10668TIP3   OH253418   4.427   0.108  11.287 -0.1613  0.6883 -0.4478
10668TIP3    H153419   4.501   0.167  11.275 -0.9475  1.9610  0.8304
10668TIP3    H253420   4.442   0.069  11.373 -0.2205 -0.1700 -0.8199
10669TIP3   OH253421   6.733   6.561   1.587 -0.5062 -0.0418 -0.3713
10669TIP3    H153422   6.732   6.471   1.619 -0.6063 -0.4568 -1.5302
10669TIP3    H253423   6.755   6.554   1.494  2.9345  1.3470  0.2245
10670TIP3   OH253424   5.396   4.935   0.891  0.0222 -0.7937  0.0073
10670TIP3    H153425   5.459   4.973   0.830  0.2806  0.4597  1.0330
10670TIP3    H253426   5.317   4.922   0.840  0.1915  0.3863 -0.5534
10671TIP3   OH253427   4.309   1.143   0.202 -0.1864  0.2189 -0.3535
10671TIP3    H153428   4.274   1.166   0.288 -0.9598 -1.4911 -0.2068
10671TIP3    H253429   4.241   1.172   0.140 -1.3987 -2.0558 -0.1369
10672TIP3   OH253430   1.518   5.405   0.072 -0.3784 -0.3860  0.0506
10672TIP3    H153431   1.457   5.467   0.112  0.9435  0.5854  0.5996
10672TIP3    H253432   1.511   5.422  -0.022 -0.6202  0.0332  0.1410
10673TIP3   OH253433   1.270   5.748  10.952 -0.4092  0.1052 -0.1663
10673TIP3    H153434   1.186   5.704  10.935  0.9527 -2.4397 -0.4452
10673TIP3    H253435   1.319   5.738  10.871  0.8793 -0.0099  0.6242
10674TIP3   OH253436   2.080   2.542   1.139  0.4273 -0.4333 -0.0400
10674TIP3    H153437   2.140   2.607   1.104  2.6101 -1.7256  1.2171
10674TIP3    H253438   2.122   2.511   1.220 -2.5994 -0.3471  1.6516
10675TIP3   OH253439   2.267   3.769  12.151  0.0493 -0.0775 -0.5718
10675TIP3    H153440   2.236   3.721  12.074  2.1132 -2.1284 -0.1895
10675TIP3    H253441   2.288   3.700  12.215 -0.1858  1.5160  1.2534
10676TIP3   OH253442   1.070   5.771   3.610 -0.6041  0.1058  0.0244
10676TIP3    H153443   1.057   5.677   3.598 -1.1898  0.1758  0.0828
10676TIP3    H253444   1.151   5.790   3.563 -0.5579 -0.4071 -0.1058
10677TIP3   OH253445   0.045   1.442   3.358 -0.5474 -0.0727  0.1990
10677TIP3    H153446   0.121   1.420   3.304 -0.0370 -1.2805  1.3898
10677TIP3    H253447   0.082   1.465   3.443 -1.4661  0.1595  0.5347
10678TIP3   OH253448   4.640   5.832  16.432  0.4850 -0.3294  0.3418
10678TIP3    H153449   4.579   5.820  16.359 -0.5710  1.2844  0.9146
10678TIP3    H253450   4.600   5.784  16.505 -0.1858  0.8073  0.7435
10679TIP3   OH253451   0.153   0.760   4.588 -0.1644  0.1098 -0.5344
10679TIP3    H153452   0.219   0.697   4.618 -1.8094 -0.6603  1.5503
10679TIP3    H253453   0.158   0.832   4.651 -0.1126  0.8846 -1.4032
10680TIP3   OH253454   5.285   6.507  11.598  0.9572  0.0254  0.0910
10680TIP3    H153455   5.310   6.525  11.688  2.0554  0.5812 -0.3281
10680TIP3    H253456   5.198   6.547  11.588  1.2670  0.8141  0.5988
10681TIP3   OH253457   0.651   2.995  13.316  0.7971 -0.1353 -0.3018
10681TIP3    H153458   0.629   3.022  13.227  1.3828 -2.6939 -1.2681
10681TIP3    H253459   0.578   3.027  13.370 -0.2503  0.2187 -1.8956
10682TIP3   OH253460   2.711   4.021   6.611 -0.5654  0.5670  0.6919
10682TIP3    H153461   2.681   4.096   6.561 -3.2749 -0.5417  0.5131
10682TIP3    H253462   2.648   4.015   6.684  0.1625 -0.9411  1.2147
10683TIP3   OH253463   2.792   3.820   2.090  0.4955 -0.6705  0.1876
10683TIP3    H153464   2.829   3.733   2.076  1.7123 -0.1424  0.1237
10683TIP3    H253465   2.863   3.871   2.128  0.0568  0.5453 -0.5857
10684TIP3   OH253466   4.371   6.024  15.849  0.3090  0.5522 -0.1975
10684TIP3    H153467   4.380   6.104  15.798 -2.2771  1.9417  1.4429
10684TIP3    H253468   4.443   6.027  15.911 -0.3205  2.1072  0.4802
10685TIP3   OH253469   5.920   0.764  16.729  0.2681 -0.1388  0.2751
10685TIP3    H153470   5.826   0.748  16.739  0.2454  0.1445  0.5248
10685TIP3    H253471   5.941   0.731  16.642  0.1240 -1.0962  0.5914
10686TIP3   OH253472   0.555   6.760  14.065 -0.0482  0.2105 -0.0768
10686TIP3    H153473   0.533   6.795  13.979  0.3799 -0.2993 -0.3987
10686TIP3    H253474   0.543   6.834  14.125 -1.1440  0.3365 -0.4549
10687TIP3   OH253475   1.782   5.182   6.133  0.3037 -0.0475 -0.4252
10687TIP3    H153476   1.739   5.099   6.155  1.1163 -0.0830  1.1494
10687TIP3    H253477   1.712   5.235   6.094 -0.8530 -0.5842  0.8392
10688TIP3   OH253478   4.771   5.232  14.721  0.4797  0.3453  1.1133
10688TIP3    H153479   4.791   5.167  14.788  1.6801 -0.7756 -0.2915
10688TIP3    H253480   4.726   5.303  14.768 -2.0418 -2.0496  2.4588
10689TIP3   OH253481   6.762   2.196  14.573 -0.3724 -0.1000  0.1378
10689TIP3    H153482   6.800   2.136  14.509  1.4028 -0.2739  1.3242
10689TIP3    H253483   6.668   2.196  14.553 -0.2366 -2.3290 -0.6323
10690TIP3   OH253484   3.102   4.902   5.297 -0.0625  0.3453  0.5028
10690TIP3    H153485   3.008   4.922   5.299  0.0141  1.0514 -1.2720
10690TIP3    H253486   3.106   4.813   5.262 -0.0794  0.3694  0.4390
10691TIP3   OH253487   0.974   5.689   5.863  0.2676 -0.0820  0.2470
10691TIP3    H153488   0.951   5.719   5.775 -0.7847  0.6305  0.7440
10691TIP3    H253489   0.890   5.681   5.908  0.9086  1.7733  1.8741
10692TIP3   OH253490   0.293   5.762   6.536  0.5525  0.1750 -0.1007
10692TIP3    H153491   0.316   5.840   6.486  0.6746  1.8560  2.4798
10692TIP3    H253492   0.206   5.738   6.505 -0.2656  2.4502  0.3603
10693TIP3   OH253493   0.618   1.802   0.204  0.1516 -0.5703 -0.0283
10693TIP3    H153494   0.596   1.770   0.292  0.7884 -2.0237 -0.3789
10693TIP3    H253495   0.594   1.730   0.146  0.5234  0.0540 -0.9680
10694TIP3   OH253496   3.587   5.116  12.081  0.0343  0.2736  0.3438
10694TIP3    H153497   3.601   5.174  12.006 -1.6727 -1.5353 -1.4664
10694TIP3    H253498   3.506   5.070  12.060  0.2814 -1.3038  2.6696
10695TIP3   OH253499   2.535   1.682   2.593 -0.3253  0.3081  0.8383
10695TIP3    H153500   2.584   1.602   2.613  0.6110  1.0239  1.4869
10695TIP3    H253501   2.570   1.747   2.654 -2.8171  0.5959  2.0195
10696TIP3   OH253502   2.123   5.443   5.388 -0.0819  0.4210 -0.6450
10696TIP3    H153503   2.169   5.519   5.424  1.0868 -0.4895 -0.1661
10696TIP3    H253504   2.102   5.389   5.464 -0.0033 -0.2242 -1.0738
10697TIP3   OH253505   4.028   5.452   1.353  0.3546  0.0806  0.1029
10697TIP3    H153506   3.997   5.525   1.408  0.3817  0.5373 -0.4794
10697TIP3    H253507   4.104   5.418   1.399 -0.3209 -0.3003  0.9506
10698TIP3   OH253508   1.790   4.763  13.322  0.5455  0.4684  0.3103
10698TIP3    H153509   1.883   4.756  13.344  0.9741 -0.7995 -1.8445
10698TIP3    H253510   1.785   4.741  13.229 -2.1123 -1.1187  0.7713
10699TIP3   OH253511   0.165   0.300   2.545 -0.3826  0.0210  0.2129
10699TIP3    H153512   0.125   0.352   2.475 -0.2715  1.4688  1.1925
10699TIP3    H253513   0.259   0.305   2.530 -0.4613 -1.7884 -0.9853
10700TIP3   OH253514   4.955   4.411   4.076 -0.4883  0.6009 -0.0913
10700TIP3    H153515   4.912   4.364   4.004 -1.7479 -0.2883  1.2120
10700TIP3    H253516   5.036   4.362   4.092 -2.1601 -1.6664  1.7819
10701TIP3   OH253517   6.388   4.058  13.918  0.0686  0.3182  0.0405
10701TIP3    H153518   6.447   4.017  13.855  0.1435 -1.7755  1.4290
10701TIP3    H253519   6.386   3.998  13.992 -2.5665  1.1313  0.6986
10702TIP3   OH253520   2.351   2.693  15.156 -0.0480  0.2004 -0.0083
10702TIP3    H153521   2.445   2.687  15.170 -0.3481 -0.9530  1.7346
10702TIP3    H253522   2.333   2.631  15.086  0.2561 -0.8772  0.8628
10703TIP3   OH253523   5.244   1.192   0.180  0.2983  0.2115  0.1196
10703TIP3    H153524   5.328   1.234   0.195  0.5473 -0.6518  1.1701
10703TIP3    H253525   5.266   1.102   0.157 -0.4598 -1.2227  4.6515
10704TIP3   OH253526   1.349   6.676   0.160  0.3435 -0.1391  0.2414
10704TIP3    H153527   1.280   6.742   0.164  0.6788  0.2499 -0.3605
10704TIP3    H253528   1.330   6.617   0.233  0.7062  1.2725  1.4967
10705TIP3   OH253529   3.861   5.104  10.167 -0.5994 -0.4897  0.4767
10705TIP3    H153530   3.919   5.037  10.132  0.6310  0.7112  0.1884
10705TIP3    H253531   3.916   5.157  10.225 -1.5943  0.1648  0.8568
10706TIP3   OH253532   0.997   3.075  12.251  0.3117  0.1677 -0.4379
10706TIP3    H153533   1.031   3.156  12.213  0.3046  1.3061  1.9381
10706TIP3    H253534   0.911   3.100  12.287  0.3673 -0.8636  0.4194
10707TIP3   OH253535   6.706   4.452   1.577  0.0226  0.1356 -0.1153
10707TIP3    H153536   6.735   4.378   1.631 -1.4075 -1.2145 -1.1802
10707TIP3    H253537   6.786   4.500   1.558  0.5619  0.8243  3.4359
10708TIP3   OH253538   0.577   2.904   1.139 -0.2216 -0.8550 -0.4324
10708TIP3    H153539   0.566   2.986   1.090 -1.9270 -1.0045 -0.3242
10708TIP3    H253540   0.667   2.908   1.172  0.2233  0.2547 -1.7368
10709TIP3   OH253541   6.647   2.444   3.233  0.2941  0.6406 -0.4766
10709TIP3    H153542   6.602   2.440   3.148  0.5249  0.4796 -0.5916
10709TIP3    H253543   6.739   2.456   3.210  0.7508 -2.2494 -0.3334
10710TIP3   OH253544   1.152   6.232   4.466  0.1501 -0.2229 -0.0933
10710TIP3    H153545   1.177   6.290   4.394  1.4986 -0.7251 -0.0409
10710TIP3    H253546   1.213   6.254   4.536  1.7805 -2.8333 -0.6163
10711TIP3   OH253547   0.549   2.705  15.865  0.1633 -0.3215 -0.1752
10711TIP3    H153548   0.462   2.665  15.864  0.4428 -0.9286 -1.0228
10711TIP3    H253549   0.573   2.707  15.957 -1.3044  1.0881  0.1982
10712TIP3   OH253550   5.801   4.539   3.413  0.0201  0.0369 -0.2743
10712TIP3    H153551   5.880   4.558   3.464  0.4675  1.5932 -1.5075
10712TIP3    H253552   5.780   4.448   3.434  2.3721 -0.5285 -0.2278
10713TIP3   OH253553   2.831   2.122  15.349  0.4797 -0.2270 -0.0935
10713TIP3    H153554   2.897   2.191  15.343 -0.6722  0.7762 -1.3709
10713TIP3    H253555   2.802   2.108  15.259  0.0167 -1.7147  0.2733
10714TIP3   OH253556   1.003   4.291  16.257 -0.1847 -0.2585 -0.5187
10714TIP3    H153557   0.996   4.196  16.257 -1.8610 -0.1381 -1.2017
10714TIP3    H253558   0.913   4.323  16.257  0.3562  1.3284 -1.4306
10715TIP3   OH253559   5.904   5.055   5.526 -0.9883 -0.4645 -0.1420
10715TIP3    H153560   5.987   5.060   5.479 -0.7308 -0.6630  0.2845
10715TIP3    H253561   5.924   5.003   5.604 -1.5172 -0.5286 -0.0447
10716TIP3   OH253562   0.057   3.594   6.405  0.4028  0.0743 -0.0171
10716TIP3    H153563   0.144   3.566   6.377  0.8069 -0.0385  1.3094
10716TIP3    H253564   0.059   3.689   6.398  1.0789  0.1556  1.2716
10717TIP3   OH253565   3.267   0.837   2.627  0.0963 -0.0865  0.0555
10717TIP3    H153566   3.286   0.913   2.572 -0.9392  1.6909  2.0697
10717TIP3    H253567   3.256   0.765   2.566  1.0998  1.3796 -1.9086
10718TIP3   OH253568   6.265   1.666  11.533 -0.2127  0.0822  0.4300
10718TIP3    H153569   6.180   1.643  11.494 -0.0047  0.2637 -0.1329
10718TIP3    H253570   6.244   1.692  11.623 -0.9534  1.6960 -0.1955
10719TIP3   OH253571   5.705   5.287   4.325  0.2198  0.5893  0.0837
10719TIP3    H153572   5.699   5.192   4.335  3.4593  0.3468  0.2461
10719TIP3    H253573   5.714   5.300   4.230  0.4832  0.6808  0.1209
10720TIP3   OH253574   6.132   6.357   1.135 -0.0480  0.8539  0.1809
10720TIP3    H153575   6.083   6.433   1.105 -0.1292  0.8629  0.3342
10720TIP3    H253576   6.168   6.383   1.220  0.2911  0.8770  0.0336
10721TIP3   OH253577   1.621   4.428   2.440 -0.4109 -0.0640 -0.0715
10721TIP3    H153578   1.537   4.460   2.406  0.6065  1.6643 -1.0384
10721TIP3    H253579   1.601   4.401   2.530 -1.8489  1.0770 -0.0220
10722TIP3   OH253580   6.286   5.282   4.164 -0.5654  0.2586 -0.5765
10722TIP3    H153581   6.345   5.210   4.142  0.6609  1.0484  0.0535
10722TIP3    H253582   6.203   5.240   4.184  0.7471 -1.2110  2.0627
10723TIP3   OH253583   5.342   5.977   4.489 -0.2318  0.1111 -0.0940
10723TIP3    H153584   5.416   5.994   4.431  1.1405 -1.4031  1.1528
10723TIP3    H253585   5.364   6.022   4.570 -0.8044 -0.1057  0.1855
10724TIP3   OH253586   6.565   1.809  16.530 -0.3900 -0.7494 -0.0753
10724TIP3    H153587   6.641   1.785  16.583 -0.0287  1.3484  0.3917
10724TIP3    H253588   6.496   1.750  16.559  0.3462 -0.9320  1.3360
10725TIP3   OH253589   2.053   3.387   0.368 -0.4581  0.2489  0.0606
10725TIP3    H153590   2.036   3.469   0.414 -2.2089  0.6958 -1.3335
10725TIP3    H253591   2.015   3.400   0.281 -1.5631 -2.3689  0.1226
10726TIP3   OH253592   4.402   1.865   4.232  0.0340  0.0241  0.4902
10726TIP3    H153593   4.402   1.959   4.250  0.9657 -0.0373  0.8300
10726TIP3    H253594   4.492   1.837   4.248  0.3714 -0.4602 -2.0883
10727TIP3   OH253595   1.119   2.141   3.515 -0.0358  1.0252  0.3280
10727TIP3    H153596   1.079   2.067   3.560  3.9589 -0.6473  1.3453
10727TIP3    H253597   1.114   2.119   3.422 -0.2734  0.2212  0.5310
10728TIP3   OH253598   2.871   6.659  17.236 -0.4399 -0.3159 -0.4815
10728TIP3    H153599   2.892   6.721  17.167 -2.2477  0.8397 -0.0432
10728TIP3    H253600   2.797   6.699  17.283  0.1626 -1.4862  1.5526
10729TIP3   OH253601   2.139   3.485   5.687  0.2387 -0.2337  0.1017
10729TIP3    H153602   2.192   3.543   5.743  0.0048 -0.2200  0.3098
10729TIP3    H253603   2.054   3.528   5.682  0.2902 -0.1857 -0.3483
10730TIP3   OH253604   5.458   1.785  14.365 -0.1559 -0.3009 -0.3254
10730TIP3    H153605   5.534   1.729  14.382  0.2391  0.4384  0.4115
10730TIP3    H253606   5.435   1.767  14.274  1.9700  0.7196 -1.1002
10731TIP3   OH253607   5.236   1.631   1.861 -0.1464  0.0099 -0.2182
10731TIP3    H153608   5.301   1.640   1.791  0.2844 -0.0353  0.1755
10731TIP3    H253609   5.287   1.639   1.942 -1.1035  3.5819  0.1142
10732TIP3   OH253610   6.034   4.403  15.883  0.3948 -0.1355 -0.4656
10732TIP3    H153611   5.951   4.394  15.928  1.2178 -1.3499  0.8419
10732TIP3    H253612   6.085   4.462  15.938  0.3352  0.7670 -1.3646
10733TIP3   OH253613   5.289   0.135   0.005 -0.5455  0.8015 -0.2928
10733TIP3    H153614   5.314   0.093  -0.077  0.5153  2.0414 -0.6225
10733TIP3    H253615   5.338   0.088   0.072  0.0472  1.0011 -0.5791
10734TIP3   OH253616   6.444   3.283   2.375  0.1519 -0.3012  0.4753
10734TIP3    H153617   6.401   3.201   2.353  1.5181 -0.8533 -0.2567
10734TIP3    H253618   6.377   3.350   2.364 -0.4245 -1.0992 -0.9628
10735TIP3   OH253619   3.857   6.474   3.863  0.3004 -0.6492 -0.3638
10735TIP3    H153620   3.888   6.445   3.777 -2.3547  0.2025 -1.6874
10735TIP3    H253621   3.837   6.566   3.851 -0.6044 -0.6492  1.0221
10736TIP3   OH253622   0.068   0.543  15.366 -0.0573 -0.0673  0.2055
10736TIP3    H153623   0.111   0.457  15.361  1.4873  0.7544 -1.0477
10736TIP3    H253624   0.101   0.580  15.448  0.0481 -0.2577  0.2510
10737TIP3   OH253625   2.992   2.470  13.188 -0.2113  0.1210 -0.3958
10737TIP3    H153626   2.981   2.513  13.104 -0.5797 -0.9054 -0.8799
10737TIP3    H253627   3.049   2.529  13.238 -0.4454  0.9995 -1.1534
10738TIP3   OH253628   3.986   5.816  14.258 -0.0305 -0.4322  0.3210
10738TIP3    H153629   4.077   5.810  14.286  0.0850 -0.4490 -0.0647
10738TIP3    H253630   3.967   5.910  14.254 -0.2447 -0.4366  1.0976
10739TIP3   OH253631   0.933   3.804   0.611  0.0760 -0.3355 -0.4860
10739TIP3    H153632   0.858   3.764   0.655 -0.3064  0.6523 -0.2256
10739TIP3    H253633   0.926   3.897   0.632  2.9741 -0.5986  1.9287
10740TIP3   OH253634   2.033   5.610   4.694 -0.4217 -0.1435 -0.0922
10740TIP3    H153635   1.975   5.670   4.740  0.4620  2.7422 -2.5193
10740TIP3    H253636   2.121   5.644   4.710  0.1801 -1.3560 -0.7131
10741TIP3   OH253637   4.242   2.273   1.962 -0.0816 -0.0952 -0.2948
10741TIP3    H153638   4.303   2.342   1.986 -0.9272  0.1652  1.1139
10741TIP3    H253639   4.297   2.197   1.943  0.7338  0.4290 -0.0179
10742TIP3   OH253640   4.786   3.001  15.247 -0.1464 -0.2754 -0.0592
10742TIP3    H153641   4.838   3.080  15.232 -2.5290  1.3338 -0.2488
10742TIP3    H253642   4.795   2.950  15.167  2.2395 -0.7192  0.4590
10743TIP3   OH253643   0.111   0.379   6.297 -0.2607 -0.0984 -0.1526
10743TIP3    H153644   0.051   0.380   6.222 -1.0056 -0.3547  0.4370
10743TIP3    H253645   0.120   0.286   6.318 -0.4574  0.0145  0.4123
10744TIP3   OH253646   2.158   1.722  16.214 -0.4496  0.1548  0.7979
10744TIP3    H153647   2.097   1.796  16.214 -1.0791 -0.2857  3.7972
10744TIP3    H253648   2.242   1.762  16.237 -0.3116  0.2507  0.1422
10745TIP3   OH253649   2.575   4.342   2.298  0.2225  0.4363  0.5001
10745TIP3    H153650   2.589   4.416   2.239  0.2194  0.1696  0.1620
10745TIP3    H253651   2.584   4.379   2.385  0.7370  0.7287  0.3261
10746TIP3   OH253652   0.033   1.897  12.393 -0.0742  0.0540 -0.1071
10746TIP3    H153653   0.024   1.985  12.431 -0.4685 -0.0681  0.0874
10746TIP3    H253654   0.121   1.896  12.356 -0.2004  0.6563 -0.4303
10747TIP3   OH253655   2.411   2.317  15.031 -0.4345  0.4133  0.9809
10747TIP3    H153656   2.467   2.394  15.023  0.0022  0.0459  0.4250
10747TIP3    H253657   2.324   2.347  15.006  0.2037  0.1473 -1.7483
10748TIP3   OH253658   1.816   0.993   2.106  0.0740 -0.1074 -0.0993
10748TIP3    H153659   1.759   0.916   2.110 -0.9552  0.6078 -0.9059
10748TIP3    H253660   1.901   0.958   2.077 -0.0460 -1.1195  0.7498
10749TIP3   OH253661   2.624   4.312  14.272  1.2695  0.0158 -0.2623
10749TIP3    H153662   2.546   4.301  14.327  0.4269 -1.4018 -1.7010
10749TIP3    H253663   2.618   4.402  14.240 -0.0513 -0.2242 -0.7336
10750TIP3   OH253664   1.199   0.758  14.537  0.2805  0.4277  0.2623
10750TIP3    H153665   1.152   0.733  14.457  0.6064  1.8457 -0.3878
10750TIP3    H253666   1.131   0.792  14.595  0.0274 -0.7060  0.6401
10751TIP3   OH253667   1.913   3.259   1.064 -0.2026 -0.2436 -0.2497
10751TIP3    H153668   1.888   3.312   1.140  0.4326  1.1073 -0.9694
10751TIP3    H253669   1.850   3.187   1.064  0.0990 -0.5541  1.8517
10752TIP3   OH253670   4.622   4.208  15.946  0.0248 -0.2460 -0.1158
10752TIP3    H153671   4.680   4.142  15.908  0.1220 -0.4194  0.3310
10752TIP3    H253672   4.667   4.237  16.025 -0.2317  0.0300 -0.0685
10753TIP3   OH253673   3.231   4.001  15.924  0.1287 -0.4628  0.0269
10753TIP3    H153674   3.311   4.052  15.912  0.7796 -1.3699  0.4770
10753TIP3    H253675   3.261   3.918  15.961 -0.9070 -1.2108 -0.7985
10754TIP3   OH253676   3.180   2.546  16.764  0.3094  0.3681  0.1728
10754TIP3    H153677   3.260   2.579  16.722  0.8482 -2.3014 -1.0138
10754TIP3    H253678   3.112   2.606  16.736  1.7502  2.1789  0.4676
10755TIP3   OH253679   5.623   4.363  11.014 -0.0244  0.3850  0.5391
10755TIP3    H153680   5.530   4.349  10.994 -0.0819  2.9087 -1.1001
10755TIP3    H253681   5.669   4.334  10.936  0.6875 -1.6844  1.6737
10756TIP3   OH253682   6.638   0.677  11.539 -0.3049 -0.3454  0.0730
10756TIP3    H153683   6.672   0.587  11.543  1.2227  0.1985 -0.2658
10756TIP3    H253684   6.704   0.725  11.489 -1.2273  0.9177  0.0562
10757TIP3   OH253685   0.081   0.299   4.452  0.4333  0.4751  0.5910
10757TIP3    H153686  -0.009   0.330   4.467  0.6816  0.1673  2.9246
10757TIP3    H253687   0.076   0.204   4.461  0.9663  0.4501  0.6376
10758TIP3   OH253688   4.855   1.698  16.376 -0.5597  0.1601 -0.0601
10758TIP3    H153689   4.943   1.688  16.411 -0.2115  1.3533 -0.5772
10758TIP3    H253690   4.821   1.608  16.370  0.6226 -0.3032  0.1068
10759TIP3   OH253691   2.106   3.206   2.210  0.2372  0.0776  0.2490
10759TIP3    H153692   2.166   3.246   2.148  0.0034  1.1680  0.7160
10759TIP3    H253693   2.059   3.140   2.159  2.2879 -1.2918  0.0304
10760TIP3   OH253694   1.431   5.588  14.862  0.0868  0.1010  0.0022
10760TIP3    H153695   1.455   5.563  14.773 -3.7803 -0.3415 -0.9998
10760TIP3    H253696   1.380   5.668  14.852 -0.4307  0.0350  1.8274
10761TIP3   OH253697   3.334   1.320  11.575 -0.1729 -0.1037  0.4751
10761TIP3    H153698   3.303   1.380  11.643 -1.7385  0.0410 -0.3353
10761TIP3    H253699   3.355   1.239  11.623  1.5768  0.9292  1.5157
10762TIP3   OH253700   4.441   5.704  10.864 -0.8638  0.0308 -0.2905
10762TIP3    H153701   4.503   5.729  10.795  0.0728  2.0060  1.2179
10762TIP3    H253702   4.359   5.746  10.840 -0.9254 -0.4421 -0.9203
10763TIP3   OH253703   3.889   4.082   1.588  0.0428  0.2473  0.1887
10763TIP3    H153704   3.904   3.988   1.583  0.7000  0.3571 -0.0314
10763TIP3    H253705   3.863   4.098   1.679 -0.3092 -0.1767  0.1622
10764TIP3   OH253706   6.677   0.011  13.172 -0.4864  0.1445 -0.2296
10764TIP3    H153707   6.766  -0.015  13.148 -0.2478  1.7123 -1.0849
10764TIP3    H253708   6.621  -0.042  13.115 -0.1936 -2.0736  1.4615
10765TIP3   OH253709   6.712   6.483  15.070  0.2389 -0.4778 -0.5535
10765TIP3    H153710   6.673   6.543  15.006 -0.4244  1.2232  1.3916
10765TIP3    H253711   6.646   6.472  15.137  1.9016 -0.0743  1.1988
10766TIP3   OH253712   1.915   5.097  15.983 -0.5785  0.2338  0.0238
10766TIP3    H153713   1.829   5.124  16.013 -0.4046 -0.1269  0.8685
10766TIP3    H253714   1.974   5.119  16.055 -0.2434 -1.1617  0.2078
10767TIP3   OH253715   5.687   4.588  15.491 -0.4281 -0.0822  0.3757
10767TIP3    H153716   5.707   4.660  15.549 -2.2633  1.1301 -0.4746
10767TIP3    H253717   5.604   4.553  15.522 -0.1324 -1.1053  0.0639
10768TIP3   OH253718   0.311   3.403  12.298 -0.0047  0.0345  0.4146
10768TIP3    H153719   0.240   3.340  12.301  0.9441 -1.0587  0.1387
10768TIP3    H253720   0.308   3.440  12.209 -1.1187  1.0464  0.8614
10769TIP3   OH253721   0.127   5.727   0.404 -0.6124 -0.3580 -0.1397
10769TIP3    H153722   0.102   5.813   0.370 -0.2984 -0.6804 -1.2124
10769TIP3    H253723   0.127   5.670   0.327 -1.9541 -1.5857  0.7277
10770TIP3   OH253724   4.816   2.067   5.613  0.4832  0.1544 -0.2865
10770TIP3    H153725   4.784   2.155   5.591  3.4991  0.9516 -1.8773
10770TIP3    H253726   4.810   2.018   5.532  3.4287  0.4413 -0.7489
10771TIP3   OH253727   4.904   1.287   0.807 -0.1549 -0.1102  0.4164
10771TIP3    H153728   4.844   1.219   0.839  0.7630 -0.1513  2.0604
10771TIP3    H253729   4.987   1.241   0.793 -0.0809  0.2659 -0.3958
10772TIP3   OH253730   0.527   2.619  15.415  0.0844  0.0215 -0.6548
10772TIP3    H153731   0.532   2.525  15.401  1.6622 -0.0140  0.1106
10772TIP3    H253732   0.474   2.629  15.494  0.2592 -0.2456 -0.5025
10773TIP3   OH253733   6.475   2.668   1.587  0.4196  0.2770  0.7450
10773TIP3    H153734   6.395   2.622   1.610 -1.4537  1.2411 -3.2985
10773TIP3    H253735   6.480   2.741   1.649 -2.7799  1.1849 -0.0019
10774TIP3   OH253736   5.532   1.936  10.948 -0.2893 -0.1582 -0.1592
10774TIP3    H153737   5.611   1.989  10.956 -0.3083 -0.2049  0.3382
10774TIP3    H253738   5.558   1.849  10.977 -0.4129 -0.2778 -0.4038
10775TIP3   OH253739   3.990   5.901  11.918 -0.4512  0.0043 -0.2647
10775TIP3    H153740   4.019   5.988  11.890 -1.6098  0.7123  0.6344
10775TIP3    H253741   3.952   5.916  12.005 -0.1674 -1.5032  0.1299
10776TIP3   OH253742   4.079   2.721  14.012  0.3429 -0.0560  0.5169
10776TIP3    H153743   4.136   2.774  14.067  1.4156 -2.5660  1.8916
10776TIP3    H253744   4.026   2.670  14.073 -0.8702 -0.3674 -0.7598
10777TIP3   OH253745   6.775   2.667   3.462 -0.0979  0.6310 -0.1668
10777TIP3    H153746   6.849   2.688   3.405  0.1174  1.0044  0.2473
10777TIP3    H253747   6.711   2.737   3.446  0.5725  1.5652  1.1298
10778TIP3   OH253748   1.262   4.579   1.850 -0.4271 -0.9095 -0.0868
10778TIP3    H153749   1.169   4.572   1.872 -0.6406 -0.7227 -0.9111
10778TIP3    H253750   1.286   4.667   1.879  0.2410 -2.0038  2.8331
10779TIP3   OH253751   0.487   0.714  15.240 -0.2026  0.1615 -0.1226
10779TIP3    H153752   0.427   0.641  15.253  0.0011 -0.3511 -1.8878
10779TIP3    H253753   0.535   0.721  15.323 -1.1458 -0.8437  0.5196
10780TIP3   OH253754   1.017   6.106  12.915 -0.0050  1.0468 -0.0348
10780TIP3    H153755   0.968   6.049  12.855 -0.2187  1.8628 -0.6387
10780TIP3    H253756   1.109   6.085  12.898 -0.0860  0.7935 -0.1628
10781TIP3   OH253757   4.673   1.440   0.217 -0.4574 -0.1676 -0.5397
10781TIP3    H153758   4.728   1.492   0.159  1.9135  0.1078  1.8393
10781TIP3    H253759   4.637   1.371   0.162  2.8396 -0.7681 -2.0416
10782TIP3   OH253760   5.857   6.044  15.548 -0.2382 -0.7028 -0.0516
10782TIP3    H153761   5.898   6.115  15.598 -0.1529 -0.1908 -0.8377
10782TIP3    H253762   5.776   6.083  15.514  0.8110 -0.3351 -2.1889
10783TIP3   OH253763   3.385   2.258  15.659  0.4372 -0.0695 -0.4752
10783TIP3    H153764   3.359   2.320  15.591 -0.2136  0.2491  0.0587
10783TIP3    H253765   3.479   2.272  15.670  0.0525  1.8479  0.6353
10784TIP3   OH253766   0.555   6.752  11.748 -0.2708  0.3456  0.3193
10784TIP3    H153767   0.630   6.811  11.749 -0.1794  0.2199  1.3616
10784TIP3    H253768   0.543   6.730  11.656  1.3517 -0.1134  0.1943
10785TIP3   OH253769   1.413   6.750  12.673 -0.2181  0.1469  0.0965
10785TIP3    H153770   1.391   6.834  12.714 -3.2947  0.3129 -1.7005
10785TIP3    H253771   1.395   6.685  12.742  2.1349  0.9029  1.4806
10786TIP3   OH253772   2.035   5.726   2.444  0.1904  0.0491 -0.3335
10786TIP3    H153773   2.078   5.748   2.527  2.2677 -1.4721 -0.9589
10786TIP3    H253774   2.089   5.769   2.378  1.6747 -3.0814 -1.2341
10787TIP3   OH253775   5.182   1.380  12.475 -0.0328 -0.2939 -0.4157
10787TIP3    H153776   5.248   1.362  12.542 -0.9877  2.4407  1.3961
10787TIP3    H253777   5.116   1.433  12.521 -2.6005 -1.4309 -2.6128
10788TIP3   OH253778   2.810   0.003  14.087  0.1965 -0.2046 -0.1626
10788TIP3    H153779   2.756  -0.058  14.137 -0.5276  0.4231 -0.1709
10788TIP3    H253780   2.764   0.086  14.092  0.5437  0.0623 -1.1796
10789TIP3   OH253781   0.695   5.077  11.284 -0.0750 -0.0909 -0.1480
10789TIP3    H153782   0.632   5.010  11.310  0.7554 -0.0385  2.1202
10789TIP3    H253783   0.778   5.048  11.323  0.1588  2.5920  1.4850
10790TIP3   OH253784   3.886   4.454   6.203  0.5355  0.3224 -0.2196
10790TIP3    H153785   3.970   4.499   6.187  1.2448  0.2444  2.9669
10790TIP3    H253786   3.824   4.525   6.220  0.4727  0.2990 -0.3525
10791TIP3   OH253787   5.610   3.798  14.744 -0.7626  0.6253  0.4537
10791TIP3    H153788   5.552   3.723  14.735  0.3163 -0.2627  0.7997
10791TIP3    H253789   5.557   3.873  14.715 -2.0100 -0.1871  0.5885
10792TIP3   OH253790   1.043   3.269  15.890 -0.1908  0.7116  0.3459
10792TIP3    H153791   1.064   3.281  15.798  0.3953  0.5832  0.4619
10792TIP3    H253792   0.977   3.336  15.909 -0.3522  0.7004 -0.1771
10793TIP3   OH253793   3.185   4.281  11.897  0.5515 -0.3480 -0.0128
10793TIP3    H153794   3.265   4.323  11.927 -0.0379  1.5238 -0.9720
10793TIP3    H253795   3.156   4.228  11.971  1.4685  0.7541  1.1425
10794TIP3   OH253796   3.187   3.352   4.519 -0.8683  0.1961 -0.1748
10794TIP3    H153797   3.124   3.296   4.564  0.8810  0.7088  3.1068
10794TIP3    H253798   3.159   3.442   4.540  0.5427  0.4301  0.7869
10795TIP3   OH253799   5.236   3.786   5.427  0.5535  0.2442  0.4346
10795TIP3    H153800   5.270   3.731   5.497  0.8298 -1.4269 -0.9878
10795TIP3    H253801   5.145   3.758   5.416  0.8190 -0.2270 -0.5803
10796TIP3   OH253802   3.399   3.359  13.031  0.0051  0.4001  0.4199
10796TIP3    H153803   3.390   3.273  13.072  2.0858  0.3664  0.8593
10796TIP3    H253804   3.357   3.419  13.092  0.5114 -0.0292  1.2057
10797TIP3   OH253805   6.434   4.164   1.739 -0.4788  0.2250 -0.1155
10797TIP3    H153806   6.443   4.188   1.647 -0.6848 -0.1964 -0.2500
10797TIP3    H253807   6.367   4.096   1.739  0.6029 -0.8515  0.1749
10798TIP3   OH253808   6.247   0.449   3.351  0.2372 -0.1729  0.0036
10798TIP3    H153809   6.209   0.392   3.418  0.3599 -0.0451  0.1833
10798TIP3    H253810   6.215   0.414   3.268  0.1967 -0.4151  0.1222
10799TIP3   OH253811   2.646   2.443  11.395 -0.3054 -0.6687 -0.1373
10799TIP3    H153812   2.603   2.405  11.318 -1.6817  0.4923  0.0394
10799TIP3    H253813   2.581   2.502  11.432  1.5393  1.3029  0.0309
10800TIP3   OH253814   1.348   4.849   1.932 -0.0080 -0.6297 -0.1372
10800TIP3    H153815   1.314   4.917   1.873 -3.7060 -1.2288  1.1941
10800TIP3    H253816   1.349   4.890   2.018  0.5149 -1.3425  0.1953
10801TIP3   OH253817   5.919   1.921   0.339 -0.8125  0.1842  0.5677
10801TIP3    H153818   5.963   1.991   0.291 -2.5318 -0.2849 -1.8318
10801TIP3    H253819   5.989   1.876   0.385  1.0368  0.3672 -1.9354
10802TIP3   OH253820   6.598   5.706  13.041  0.3728  0.4136 -0.2896
10802TIP3    H153821   6.659   5.661  12.982 -0.7223  2.3518 -3.0161
10802TIP3    H253822   6.515   5.661  13.029  0.2747  0.4806  0.1514
10803TIP3   OH253823   1.063   1.200  13.865  0.0806 -0.0718  0.3505
10803TIP3    H153824   1.061   1.167  13.775 -0.0108 -0.1651  0.3871
10803TIP3    H253825   0.972   1.198  13.894 -0.0446  1.0626  0.0448
10804TIP3   OH253826   4.304   1.270   1.357 -0.2590 -0.1421 -0.9176
10804TIP3    H153827   4.274   1.187   1.393 -0.3282 -0.0820 -0.8361
10804TIP3    H253828   4.226   1.326   1.357 -0.2763 -0.1636 -1.2229
10805TIP3   OH253829   0.196   6.677   2.003  0.5030 -0.1868 -0.4004
10805TIP3    H153830   0.139   6.753   1.991 -1.8159 -1.6579  0.8955
10805TIP3    H253831   0.209   6.673   2.098 -1.4414 -2.8038 -0.1906
10806TIP3   OH253832   1.655   5.684  13.020  0.8834  0.0439 -0.2965
10806TIP3    H153833   1.681   5.593  13.031 -2.2185 -0.8557  0.0890
10806TIP3    H253834   1.659   5.722  13.108 -1.1064 -0.6729  0.1175
10807TIP3   OH253835   4.939   1.816  14.660 -0.0416 -0.4662 -0.4053
10807TIP3    H153836   4.991   1.871  14.602  0.7340  0.9624  1.5681
10807TIP3    H253837   4.974   1.728  14.648  0.8964  0.0060 -1.2348
10808TIP3   OH253838   4.567   5.826  16.882 -0.1850 -0.0888  0.3582
10808TIP3    H153839   4.635   5.878  16.839 -0.3825 -0.2203 -0.1110
10808TIP3    H253840   4.525   5.778  16.811 -0.3381 -0.5060  0.7346
10809TIP3   OH253841   3.691   3.211  11.419  0.1406  0.2815 -0.2033
10809TIP3    H153842   3.756   3.212  11.349  0.4273 -0.7720  0.0321
10809TIP3    H253843   3.616   3.258  11.383  0.2084 -0.4301 -1.2996
10810TIP3   OH253844   0.120   4.656   0.539  0.0397  0.1298 -0.4020
10810TIP3    H153845   0.166   4.734   0.508 -0.1082 -0.1035 -1.2288
10810TIP3    H253846   0.113   4.668   0.634  1.2206  0.4694 -0.3500
10811TIP3   OH253847   0.234   1.952   5.553 -0.4047  0.3625 -0.4446
10811TIP3    H153848   0.200   2.038   5.579 -0.7735  0.2608 -0.6044
10811TIP3    H253849   0.324   1.971   5.524  0.6371  0.2404  2.5347
10812TIP3   OH253850   3.740   2.771  11.604 -0.0460  0.1694 -0.5823
10812TIP3    H153851   3.693   2.853  11.590  0.1636  0.4641  0.4478
10812TIP3    H253852   3.803   2.768  11.531 -1.4237 -0.0802 -1.7889
10813TIP3   OH253853   2.109   5.111  15.148 -0.3003  0.1440 -0.4855
10813TIP3    H153854   2.022   5.143  15.171 -0.1357  0.0836  0.2220
10813TIP3    H253855   2.102   5.016  15.152 -0.6321  0.0909 -2.0136
10814TIP3   OH253856   0.419   6.257   1.045  0.0723 -0.1711  0.4411
10814TIP3    H153857   0.421   6.187   1.111 -0.5847 -1.0120 -0.4262
10814TIP3    H253858   0.489   6.317   1.072  0.0935 -0.7315  1.6618
10815TIP3   OH253859   3.509   1.984   5.140  0.1732  0.3314 -0.3952
10815TIP3    H153860   3.590   1.977   5.090 -1.0164  1.9375 -2.6959
10815TIP3    H253861   3.448   2.027   5.079 -2.8430 -2.1876  0.7057
10816TIP3   OH253862   0.621   5.535   0.276  0.4848 -0.1793 -0.0526
10816TIP3    H153863   0.692   5.576   0.324  1.7474 -0.3793 -1.7268
10816TIP3    H253864   0.664   5.488   0.204 -1.3421 -0.1623 -1.1836
10817TIP3   OH253865   2.816   1.125   2.240  0.1286 -0.4566 -0.5341
10817TIP3    H153866   2.783   1.036   2.230 -0.2133 -0.2800 -0.9822
10817TIP3    H253867   2.860   1.124   2.324  1.2016 -1.3926 -1.0887
10818TIP3   OH253868   2.925   0.787   2.231 -0.7642 -0.1005  0.5489
10818TIP3    H153869   2.972   0.711   2.197 -1.5234 -0.9167  1.2976
10818TIP3    H253870   2.871   0.818   2.158 -0.9046 -0.6457  0.4254
10819TIP3   OH253871   0.033   4.542  11.146 -0.2733 -0.2741  0.7696
10819TIP3    H153872  -0.045   4.504  11.105 -1.1255  1.1351  1.0641
10819TIP3    H253873   0.080   4.584  11.074 -0.7556  0.4992  0.9042
10820TIP3   OH253874   1.490   4.103   0.623 -0.2734 -0.1313  0.0463
10820TIP3    H153875   1.401   4.123   0.596  0.1199  0.9042 -0.4697
10820TIP3    H253876   1.522   4.184   0.663  1.0901  0.0914 -1.4738
10821TIP3   OH253877   4.863   4.558   3.610  0.1726 -0.7734  0.2280
10821TIP3    H153878   4.940   4.594   3.565  1.4210 -1.7039  1.5690
10821TIP3    H253879   4.838   4.483   3.557 -0.5968  0.2436 -0.8978
10822TIP3   OH253880   5.320   1.264  13.151  0.0976 -0.2741  0.1698
10822TIP3    H153881   5.284   1.281  13.063  1.1645 -0.6391 -0.3374
10822TIP3    H253882   5.330   1.351  13.189 -3.0654 -0.2071  1.0475
10823TIP3   OH253883   0.241   1.336  12.131 -0.0399  0.2174  0.0925
10823TIP3    H153884   0.200   1.361  12.049 -0.1509  0.4804  0.2266
10823TIP3    H253885   0.298   1.409  12.153  1.6509 -0.7900 -0.8532
10824TIP3   OH253886   2.479   6.621   0.329 -0.1205 -0.0338 -0.7585
10824TIP3    H153887   2.512   6.545   0.378 -2.3802  0.8802  2.3952
10824TIP3    H253888   2.520   6.696   0.371 -0.1915  0.6391 -1.8966
10825TIP3   OH253889   6.650   1.320   3.018  0.0589 -0.6538 -0.2934
10825TIP3    H153890   6.631   1.372   3.096  1.4282 -0.0661 -0.3254
10825TIP3    H253891   6.585   1.347   2.954  0.0673  0.2140  0.0578
10826TIP3   OH253892   0.847   0.819   3.491  0.1248 -0.3003  0.1610
10826TIP3    H153893   0.835   0.780   3.578 -0.8166 -0.5804 -0.0965
10826TIP3    H253894   0.778   0.885   3.485  0.0064 -0.4894 -0.5085
10827TIP3   OH253895   5.887   3.344   5.814  0.1255 -0.0263  0.4508
10827TIP3    H153896   5.878   3.332   5.719  0.0215 -1.9577  0.6938
10827TIP3    H253897   5.960   3.405   5.823  0.7953 -0.6097 -0.8395
10828TIP3   OH253898   0.797   5.545  12.273  0.1851  0.0249 -0.2713
10828TIP3    H153899   0.722   5.498  12.236 -1.3683  1.2454  1.2754
10828TIP3    H253900   0.857   5.475  12.301 -0.1087 -0.9535 -1.9814
10829TIP3   OH253901   5.285   1.244   3.201 -0.0048  0.1224 -0.0376
10829TIP3    H153902   5.301   1.317   3.261  0.7374 -1.0649  1.2558
10829TIP3    H253903   5.313   1.276   3.116  1.5434  0.9269  0.7453
10830TIP3   OH253904   2.645   6.278   4.558 -0.0153  0.1893 -0.5912
10830TIP3    H153905   2.729   6.248   4.593 -0.6736 -0.7215  0.2525
10830TIP3    H253906   2.581   6.215   4.592 -1.1535  1.3578 -0.5166
10831TIP3   OH253907   1.039   2.354  14.351  0.0151 -0.1115 -0.0553
10831TIP3    H153908   1.013   2.419  14.417  0.0096 -0.5245  0.3600
10831TIP3    H253909   1.122   2.386  14.317  0.5746 -0.4582  0.9508
10832TIP3   OH253910   4.354   4.404  16.757 -0.8595 -0.2646 -0.0150
10832TIP3    H153911   4.422   4.384  16.822 -1.1325 -1.6706 -0.1549
10832TIP3    H253912   4.391   4.374  16.674 -0.7832  0.9294 -0.4230
10833TIP3   OH253913   5.055   3.466  16.546 -0.0426 -0.3788  0.2915
10833TIP3    H153914   5.113   3.535  16.515  0.1986 -1.0914 -0.8892
10833TIP3    H253915   4.975   3.511  16.572  0.2625  0.3819 -0.0683
10834TIP3   OH253916   5.406   4.420   5.857 -0.2441  0.0848 -0.0543
10834TIP3    H153917   5.421   4.512   5.877  3.2233 -0.8138  2.0781
10834TIP3    H253918   5.419   4.412   5.763  1.2201  1.4940  0.0167
10835TIP3   OH253919   3.426   5.656  16.020 -0.0572  0.0658 -0.6023
10835TIP3    H153920   3.441   5.606  15.941 -0.1398  0.0660 -0.6175
10835TIP3    H253921   3.432   5.592  16.091  1.4888  0.3289 -0.4823
10836TIP3   OH253922   0.121   0.489   5.092 -0.1530 -0.0588 -0.5558
10836TIP3    H153923   0.033   0.477   5.128  0.6152  0.2633  1.4610
10836TIP3    H253924   0.158   0.401   5.089 -0.3109 -0.1171 -0.8049
10837TIP3   OH253925   3.641   0.715  13.262  0.0011 -0.8611 -0.4005
10837TIP3    H153926   3.549   0.712  13.287 -0.1040 -0.3840 -0.7134
10837TIP3    H253927   3.642   0.764  13.180  0.4072 -1.9017 -1.0269
10838TIP3   OH253928   4.641   1.304  17.209 -0.7609 -0.3420 -0.5750
10838TIP3    H153929   4.720   1.252  17.214 -0.3537  0.4782  2.9262
10838TIP3    H253930   4.572   1.242  17.185  0.3430 -1.7843 -0.0558
10839TIP3   OH253931   0.154   5.528  11.894  0.3662 -0.4686  0.1453
10839TIP3    H153932   0.062   5.542  11.916 -0.0551 -1.1160 -1.1265
10839TIP3    H253933   0.203   5.584  11.955 -0.8632 -0.0924  0.8005
10840TIP3   OH253934   4.613   0.007   2.723  0.0852  0.3137  0.2021
10840TIP3    H153935   4.529   0.032   2.682  0.7540 -0.0500 -1.4529
10840TIP3    H253936   4.655   0.091   2.743 -1.5401  0.5159  2.9406
10841TIP3   OH253937   6.267   0.882  14.755 -0.0465 -0.2632 -0.5736
10841TIP3    H153938   6.266   0.908  14.847 -0.3308 -1.0678 -0.3420
10841TIP3    H253939   6.175   0.881  14.730 -0.0420 -1.0666 -0.5685
10842TIP3   OH253940   6.594   2.342   2.970 -0.1725 -0.1931  0.6447
10842TIP3    H153941   6.655   2.279   3.009 -0.0781  0.3355  1.3558
10842TIP3    H253942   6.526   2.288   2.929  0.7351 -0.7931 -0.1123
10843TIP3   OH253943   3.503   3.609   0.819 -0.4187 -0.0461  0.1463
10843TIP3    H153944   3.491   3.703   0.805  4.7818  0.6811 -0.4721
10843TIP3    H253945   3.508   3.600   0.914  2.6413  0.9502  0.1417
10844TIP3   OH253946   0.237   4.440  13.795  0.2638 -0.1559 -0.1229
10844TIP3    H153947   0.246   4.510  13.859 -0.2568 -0.0618 -0.1459
10844TIP3    H253948   0.302   4.460  13.728 -0.0190  0.4199 -0.2322
10845TIP3   OH253949   0.904   2.293  14.128 -0.2332  0.3922 -0.6844
10845TIP3    H153950   0.978   2.323  14.075  0.0608  0.7134 -0.0972
10845TIP3    H253951   0.929   2.314  14.218  0.1704 -1.9949 -0.1926
10846TIP3   OH253952   5.146   0.304  12.933 -0.1194  0.1264  0.4202
10846TIP3    H153953   5.227   0.353  12.920  0.0388 -0.1338  0.4288
10846TIP3    H253954   5.143   0.243  12.859 -1.2626  1.4484 -0.6602
10847TIP3   OH253955   4.998   3.860  11.521 -0.4876 -1.0002 -0.2414
10847TIP3    H153956   4.936   3.865  11.448  0.0555  0.7243 -0.6213
10847TIP3    H253957   5.070   3.805  11.489 -0.8814 -1.3447 -0.5254
10848TIP3   OH253958   0.284   4.524  11.514 -0.6062  0.0327  0.3359
10848TIP3    H153959   0.211   4.577  11.482 -1.5915 -1.3008  0.3290
10848TIP3    H253960   0.291   4.453  11.451  0.5031 -0.0317  0.5163
10849TIP3   OH253961   2.455   5.494  15.987  0.1937  0.7370 -0.1968
10849TIP3    H153962   2.425   5.403  15.978  1.0565  0.5866 -1.7405
10849TIP3    H253963   2.488   5.500  16.076 -2.5712  0.3515  0.9083
10850TIP3   OH253964   2.284   3.649  15.624  0.2321 -0.0590 -0.0198
10850TIP3    H153965   2.228   3.684  15.692  0.3071 -0.3272  0.1798
10850TIP3    H253966   2.224   3.603  15.564 -0.0235  1.4425 -0.9474
10851TIP3   OH253967   3.918   2.182  15.846  0.3658 -0.1141  0.6696
10851TIP3    H153968   3.878   2.171  15.932  0.3495 -2.3273  0.4054
10851TIP3    H253969   3.859   2.136  15.786  1.1185  0.2034 -0.3340
10852TIP3   OH253970   4.993   2.721  15.183 -0.0952 -0.5056  0.4170
10852TIP3    H153971   4.979   2.628  15.202 -0.8607 -0.1301  1.7390
10852TIP3    H253972   4.980   2.765  15.267  0.2257  0.8033 -0.2112
10853TIP3   OH253973   1.867   4.722   5.238 -0.4314  0.1068 -0.1607
10853TIP3    H153974   1.954   4.698   5.270 -0.6433  0.0870  0.4062
10853TIP3    H253975   1.811   4.720   5.316 -0.9204  0.2111 -0.5039
10854TIP3   OH253976   1.677   5.295  12.147 -0.1070 -0.4198 -0.4934
10854TIP3    H153977   1.599   5.254  12.186 -0.5516 -1.4778 -2.4661
10854TIP3    H253978   1.656   5.389  12.145 -2.2285 -0.9035 -2.9395
10855TIP3   OH253979   1.185   1.241   0.532 -0.1562 -0.5325  0.5033
10855TIP3    H153980   1.115   1.292   0.491 -0.3217 -0.0273  1.3942
10855TIP3    H253981   1.151   1.152   0.537 -1.1465 -0.0953  1.8387
10856TIP3   OH253982   1.104   1.293   4.012  0.1938 -0.2326  0.4413
10856TIP3    H153983   1.064   1.352   3.948  0.1110  0.3042  0.9844
10856TIP3    H253984   1.030   1.246   4.051 -0.1528  2.3168  3.0043
10857TIP3   OH253985   1.954   5.153   0.969 -1.0402  0.0853  0.1094
10857TIP3    H153986   1.939   5.119   1.057  0.7484  1.2747  0.9142
10857TIP3    H253987   1.962   5.075   0.914 -1.6814 -0.6758  1.0736
10858TIP3   OH253988   4.980   0.467  13.565  0.7424  0.3517  0.3798
10858TIP3    H153989   4.936   0.502  13.487 -2.2801  0.7735  2.1642
10858TIP3    H253990   5.048   0.531  13.584  1.2404  0.4683 -1.6488
10859TIP3   OH253991   0.212   0.144  13.366  0.0773 -1.1167  0.5449
10859TIP3    H153992   0.297   0.119  13.330 -0.1218  0.6614 -1.2723
10859TIP3    H253993   0.231   0.218  13.424 -0.2861 -0.0905 -0.5954
10860TIP3   OH253994   5.907   3.478   1.652 -0.4483  0.2494 -0.7191
10860TIP3    H153995   5.819   3.476   1.614 -0.8127  2.9092 -0.1182
10860TIP3    H253996   5.964   3.506   1.580 -0.3842  0.4231 -0.6021
10861TIP3   OH253997   4.956   2.563   4.818 -0.0689 -0.3726  0.0583
10861TIP3    H153998   4.948   2.476   4.778  0.1667 -1.0955  1.5612
10861TIP3    H253999   5.016   2.550   4.891  0.7674  1.2783 -0.3185
10862TIP3   OH254000   5.987   2.383   4.128 -0.4364  1.0390 -0.0311
10862TIP3    H154001   6.066   2.329   4.136 -1.0108 -0.4836 -3.8034
10862TIP3    H254002   5.939   2.367   4.210  1.5634 -0.6157  0.8615
10863TIP3   OH254003   3.042   1.425  14.728 -0.2275  0.3966 -0.1418
10863TIP3    H154004   2.969   1.461  14.778  1.0214  2.0207  0.5606
10863TIP3    H254005   3.031   1.330  14.734 -1.4971  0.6098  1.1226
10864TIP3   OH254006   4.786   2.895  13.753 -0.3682  0.3101  0.3697
10864TIP3    H154007   4.766   2.960  13.820 -0.1027  0.8619 -0.0837
10864TIP3    H254008   4.703   2.883  13.707 -0.5924 -0.1906  0.8969
10865TIP3   OH254009   3.625   5.117   4.163  0.0567  0.0395  0.1406
10865TIP3    H154010   3.713   5.096   4.131 -0.0378  0.1663 -0.2041
10865TIP3    H254011   3.569   5.051   4.123 -0.1557  0.5968 -0.4735
10866TIP3   OH254012   6.389   6.235  11.229  0.4129  0.0857 -0.2213
10866TIP3    H154013   6.344   6.168  11.280  0.3494  1.0406  0.9991
10866TIP3    H254014   6.393   6.199  11.140 -0.4462 -1.1183  0.2160
10867TIP3   OH254015   2.726   0.815  14.195 -0.0776  0.0653 -0.6401
10867TIP3    H154016   2.724   0.894  14.250 -3.0198 -0.3690 -0.0666
10867TIP3    H254017   2.791   0.759  14.237 -0.7223  0.6386  1.1830
10868TIP3   OH254018   5.701   4.942  14.391  0.2304 -0.1281 -0.1227
10868TIP3    H154019   5.673   5.024  14.430  0.7232 -0.2756  0.5624
10868TIP3    H254020   5.774   4.966  14.334 -1.0538  0.2089 -1.6487
10869TIP3   OH254021   1.934   4.770   6.052 -0.7377  0.0135 -0.3715
10869TIP3    H154022   1.954   4.856   6.090 -2.4384 -0.3757  1.4551
10869TIP3    H254023   1.988   4.709   6.102 -1.0259 -0.2056 -0.3294
10870TIP3   OH254024   0.648   6.341   6.312 -0.1990 -0.5558  0.1966
10870TIP3    H154025   0.568   6.288   6.321 -0.8373  0.8446  3.6155
10870TIP3    H254026   0.708   6.304   6.376  1.7311 -1.2171 -1.9531
10871TIP3   OH254027   5.322   5.308   3.623  0.0173  0.6245 -0.3428
10871TIP3    H154028   5.236   5.282   3.655  0.9201  1.1950  2.7416
10871TIP3    H254029   5.374   5.228   3.628 -0.2278  0.3550 -1.9046
10872TIP3   OH254030   6.034   3.272   3.191  0.2443 -0.0695 -0.4273
10872TIP3    H154031   6.124   3.255   3.163  0.4691  0.5468 -0.0867
10872TIP3    H254032   6.035   3.362   3.222 -1.1654  0.9528 -3.1662
10873TIP3   OH254033   2.441   2.366   0.798 -0.7471  0.1042 -0.7723
10873TIP3    H154034   2.485   2.368   0.713  2.8649 -1.7612  0.9301
10873TIP3    H254035   2.446   2.457   0.829  0.1043  0.3271 -1.5252
10874TIP3   OH254036   4.489   3.099   2.525 -0.1450  0.4031  0.0563
10874TIP3    H154037   4.576   3.128   2.497 -0.1677  1.1124  0.7093
10874TIP3    H254038   4.474   3.144   2.608 -2.5182  2.9220 -1.6311
10875TIP3   OH254039   2.428   3.475   3.637  0.2491 -0.0232 -0.2590
10875TIP3    H154040   2.452   3.449   3.548 -2.5393 -0.3667 -0.9380
10875TIP3    H254041   2.438   3.571   3.638 -0.9618  0.1167 -1.3336
10876TIP3   OH254042   0.932   2.861  13.960 -0.1802 -0.0471 -0.3243
10876TIP3    H154043   0.842   2.865  13.929  0.2610  0.0099 -1.6386
10876TIP3    H254044   0.984   2.892  13.886  1.2200 -3.7454 -0.9720
10877TIP3   OH254045   6.677   4.391   2.392 -0.4532  0.2442  0.1123
10877TIP3    H154046   6.597   4.410   2.343 -0.5271  0.4012  0.2923
10877TIP3    H254047   6.716   4.477   2.408  0.8276  0.0313 -1.7647
10878TIP3   OH254048   5.336   3.828  15.346  0.4832  0.2567  0.6076
10878TIP3    H154049   5.417   3.880  15.341 -0.7426  1.9946 -3.5179
10878TIP3    H254050   5.361   3.742  15.310  0.7960  0.4338  0.3948
10879TIP3   OH254051   5.488   4.265   3.013  0.1798  0.2000  0.0339
10879TIP3    H154052   5.501   4.212   2.934  0.4893  0.4890 -0.1119
10879TIP3    H254053   5.533   4.216   3.082  0.7226  0.4112 -0.1595
10880TIP3   OH254054   4.245   0.526   5.787 -0.1936  0.6349  0.3882
10880TIP3    H154055   4.214   0.589   5.852 -1.8036  1.1361 -0.8279
10880TIP3    H254056   4.209   0.442   5.815  0.0913  0.6399  0.7757
10881TIP3   OH254057   5.398   1.720   5.676 -0.0940 -0.0327 -0.3956
10881TIP3    H154058   5.456   1.715   5.752  0.0654  1.1579 -0.4315
10881TIP3    H254059   5.310   1.716   5.713 -0.0408  1.6977 -0.0296
10882TIP3   OH254060   4.481   2.564   5.360 -0.2376  0.6173 -0.0630
10882TIP3    H154061   4.494   2.500   5.430  0.3650  1.7527  0.8770
10882TIP3    H254062   4.439   2.639   5.403  0.7988  1.6167 -0.7556
10883TIP3   OH254063   1.437   3.991  15.675 -0.0387 -0.1112 -0.2003
10883TIP3    H154064   1.360   3.942  15.704  0.5132 -0.2255  1.0725
10883TIP3    H254065   1.497   3.989  15.749  0.1934  2.0774 -0.2974
10884TIP3   OH254066   6.686   3.486  15.359 -0.7246 -0.3269  0.1287
10884TIP3    H154067   6.692   3.402  15.404  2.9244 -0.1974  0.0318
10884TIP3    H254068   6.723   3.470  15.272  1.1025  1.5823  0.4970
10885TIP3   OH254069   5.857   2.546  16.002 -0.6789 -0.1857 -0.2497
10885TIP3    H154070   5.880   2.541  16.095  2.4997  1.3570 -0.8932
10885TIP3    H254071   5.900   2.469  15.963  1.6853  1.4913 -1.0914
10886TIP3   OH254072   1.173   2.666  12.138 -0.0148 -0.3770  1.0020
10886TIP3    H154073   1.169   2.724  12.214  0.0235 -1.1834  1.6246
10886TIP3    H254074   1.245   2.700  12.085 -1.1257  1.2197  0.4705
10887TIP3   OH254075   5.140   3.889   5.761  0.3552 -0.0186 -0.3787
10887TIP3    H154076   5.082   3.917   5.690  0.5955 -1.9933 -1.3885
10887TIP3    H254077   5.118   3.947   5.834 -1.2112  0.8181 -1.4851
10888TIP3   OH254078   6.253   5.959   0.835 -0.1639  0.3556 -0.0167
10888TIP3    H154079   6.308   5.904   0.891  1.2696  1.1782 -0.5920
10888TIP3    H254080   6.205   6.015   0.895  1.1534  1.0381  0.4228
10889TIP3   OH254081   6.703   6.369   0.946 -0.2938 -0.0712 -0.7032
10889TIP3    H154082   6.667   6.383   0.858  1.0465  0.5058 -1.1619
10889TIP3    H254083   6.661   6.288   0.975 -1.4893  0.2448 -1.4826
10890TIP3   OH254084   4.190   1.121   4.540  0.1465 -0.2382 -0.1428
10890TIP3    H154085   4.147   1.049   4.587  0.9756  0.4923  1.7681
10890TIP3    H254086   4.206   1.188   4.606  1.8424  0.5998 -1.3418
10891TIP3   OH254087   3.726   1.561   5.531  0.4532  0.6833 -0.0540
10891TIP3    H154088   3.749   1.515   5.612  0.9293  1.7405  0.4107
10891TIP3    H254089   3.649   1.612   5.553  0.4526  0.8012 -0.3329
10892TIP3   OH254090   1.540   0.486  12.331 -0.3886  0.1183  0.0064
10892TIP3    H154091   1.594   0.448  12.262  0.1947  1.0558 -0.0645
10892TIP3    H254092   1.455   0.503  12.289 -0.1786  0.2711 -0.3588
10893TIP3   OH254093   1.181   3.885  11.376  0.4914 -0.7388 -0.6587
10893TIP3    H154094   1.174   3.892  11.280 -2.1145  1.3749 -0.3997
10893TIP3    H254095   1.221   3.968  11.402  2.8728 -2.0710 -0.0267
10894TIP3   OH254096   6.074   6.402   3.255  0.3221  0.3617  0.0394
10894TIP3    H154097   6.117   6.364   3.331 -0.1142 -0.3438 -0.0549
10894TIP3    H254098   6.072   6.330   3.191 -1.2679  0.2873  0.1577
10895TIP3   OH254099   5.672   4.893   5.833  0.0415 -0.2067  0.3373
10895TIP3    H154100   5.702   4.979   5.862  0.3624  0.1291 -0.9651
10895TIP3    H254101   5.613   4.864   5.902  3.0614 -0.7427  2.8346
10896TIP3   OH254102   4.298   2.919   5.255 -0.0614 -0.5184  0.2325
10896TIP3    H154103   4.389   2.935   5.281  0.4021 -0.1704 -1.5598
10896TIP3    H254104   4.285   2.825   5.269 -0.0806 -0.2149  2.4370
10897TIP3   OH254105   0.277   3.570   0.208 -0.0639 -0.0507 -0.0107
10897TIP3    H154106   0.265   3.664   0.194 -2.2529 -0.1699  0.7698
10897TIP3    H254107   0.241   3.528   0.130  0.6180 -0.2578 -0.2184
10898TIP3   OH254108   0.307   0.369   1.451  0.0487  0.2597  0.3445
10898TIP3    H154109   0.244   0.324   1.394  1.6095  0.7062 -1.8033
10898TIP3    H254110   0.389   0.367   1.401  1.5504  0.3791  2.7475
10899TIP3   OH254111   5.572   3.648  16.920 -0.7408  0.0078  0.3878
10899TIP3    H154112   5.496   3.674  16.868 -0.6570  1.0930  0.7979
10899TIP3    H254113   5.538   3.582  16.981 -1.2115  0.0257  0.1483
10900TIP3   OH254114   2.921   2.785   3.095  0.1687  0.5797  0.5801
10900TIP3    H154115   2.983   2.711   3.096 -0.7879 -0.2257  0.8583
10900TIP3    H254116   2.956   2.845   3.029  0.2005 -0.7701 -0.6445
10901TIP3   OH254117   0.461   5.480   4.639  0.1242  0.7040 -0.1037
10901TIP3    H154118   0.492   5.509   4.725  0.4725  0.7529 -0.2439
10901TIP3    H254119   0.374   5.519   4.630 -0.7832 -0.9818  1.0986
10902TIP3   OH254120   5.940   5.008   0.855 -0.0016  0.1704 -0.4579
10902TIP3    H154121   5.896   5.009   0.940  1.1143 -0.0377  0.1435
10902TIP3    H254122   6.021   4.960   0.871  1.3462  2.1753 -1.0491
10903TIP3   OH254123   1.460   5.439   2.151  0.3340 -0.5287 -0.2307
10903TIP3    H154124   1.429   5.528   2.168 -0.0636 -1.0623  2.0871
10903TIP3    H254125   1.538   5.430   2.205 -0.0391 -1.8078  0.1282
10904TIP3   OH254126   1.502   1.926   0.267 -0.0041  0.5362  0.3588
10904TIP3    H154127   1.470   1.865   0.201  1.7072  0.3051 -0.2822
10904TIP3    H254128   1.449   2.005   0.254  0.9214  0.8212 -1.9147
10905TIP3   OH254129   0.019   2.296   0.077  0.7652 -0.1206  0.0681
10905TIP3    H154130   0.096   2.241   0.066 -1.0708 -2.6661 -0.7201
10905TIP3    H254131   0.034   2.371   0.019  3.1019 -0.0314  0.7716
10906TIP3   OH254132   1.355   1.118  11.228 -0.4373 -0.7909 -0.3693
10906TIP3    H154133   1.422   1.059  11.261  1.2371  0.7709 -0.9320
10906TIP3    H254134   1.342   1.182  11.298 -0.5913 -0.4818 -0.6812
10907TIP3   OH254135   0.640   4.998   4.206 -0.3427 -0.0872  0.0239
10907TIP3    H154136   0.667   4.980   4.296  0.2593 -0.1241 -0.1600
10907TIP3    H254137   0.564   5.055   4.215 -0.6163 -0.5343  0.5612
10908TIP3   OH254138   5.128   6.612  13.898 -0.5632  0.3045  0.0935
10908TIP3    H154139   5.116   6.699  13.860  0.5271  0.5669  0.3213
10908TIP3    H254140   5.153   6.556  13.824 -1.2933  0.1720 -0.0576
10909TIP3   OH254141   5.514   6.622   2.205  0.5638 -0.6686 -0.4246
10909TIP3    H154142   5.477   6.537   2.228 -0.7608  0.5311  2.0533
10909TIP3    H254143   5.485   6.638   2.116 -0.0869 -2.3170 -0.5176
10910TIP3   OH254144   6.259   4.889   6.053  0.4761 -0.6964 -0.0991
10910TIP3    H154145   6.194   4.837   6.101  2.1004 -1.6787  1.1002
10910TIP3    H254146   6.340   4.838   6.060  1.7709  1.2888 -0.1696
10911TIP3   OH254147   4.194   2.877   1.915 -0.3883 -0.2154  0.7119
10911TIP3    H154148   4.233   2.831   1.840 -1.1881 -0.2503  0.3126
10911TIP3    H254149   4.141   2.811   1.959  0.0713 -0.1910  1.3162
10912TIP3   OH254150   0.914   5.742   0.462  0.3490 -0.3167  0.4962
10912TIP3    H154151   0.845   5.764   0.400 -0.6322 -0.2191  1.6037
10912TIP3    H254152   0.995   5.752   0.412 -0.4828 -1.8585 -1.2604
10913TIP3   OH254153   6.088   0.437   2.911 -0.2210  0.3782  0.6450
10913TIP3    H154154   6.149   0.487   2.858  0.1181  0.3496  1.0117
10913TIP3    H254155   6.064   0.495   2.983  0.0208  0.0939  0.9619
10914TIP3   OH254156   5.197   3.445   4.600  0.0264  0.5984  0.7958
10914TIP3    H154157   5.128   3.422   4.662  1.2085 -2.3829  1.1127
10914TIP3    H254158   5.177   3.393   4.522  1.6437 -0.0230  0.7628
10915TIP3   OH254159   0.618   3.739   4.142 -0.2695  0.3789  0.3280
10915TIP3    H154160   0.622   3.708   4.233  1.1990  0.3662  0.2594
10915TIP3    H254161   0.632   3.833   4.148  2.6312  0.0091 -0.1173
10916TIP3   OH254162   4.724   2.815  15.723  0.3938  0.7112  0.4498
10916TIP3    H154163   4.808   2.771  15.739  0.2034  0.2183  0.0898
10916TIP3    H254164   4.734   2.855  15.637  0.6980  1.6904  0.9236
10917TIP3   OH254165   6.669   4.668  14.482  0.1916 -0.5022 -0.6014
10917TIP3    H154166   6.753   4.642  14.444  0.8738 -0.3462  0.7941
10917TIP3    H254167   6.611   4.680  14.406  1.6442  0.1848 -1.6068
10918TIP3   OH254168   4.768   2.910  14.377  0.2033 -0.2427 -0.0212
10918TIP3    H154169   4.703   2.937  14.312  2.1458  0.1762 -1.8514
10918TIP3    H254170   4.850   2.908  14.329  1.1156 -3.5865  1.5513
10919TIP3   OH254171   5.792   4.403   3.772 -0.2780  0.3830  0.0651
10919TIP3    H154172   5.806   4.488   3.813 -0.1816  0.4460 -0.0968
10919TIP3    H254173   5.757   4.348   3.842 -0.3060  0.5454  0.1792
10920TIP3   OH254174   6.020   4.495  11.737 -0.2040 -0.1413 -0.4207
10920TIP3    H154175   6.016   4.401  11.719  1.2832 -0.0106 -1.4867
10920TIP3    H254176   6.029   4.536  11.651 -0.4084  0.9588  0.0696
10921TIP3   OH254177   0.784   0.275  17.202  0.5435  0.1768  0.4081
10921TIP3    H154178   0.763   0.220  17.277  0.4319  0.1771  0.3753
10921TIP3    H254179   0.700   0.299  17.165  0.5929  0.3233  0.3869
10922TIP3   OH254180   6.405   2.951  12.584  0.2175  0.6872  0.0658
10922TIP3    H154181   6.347   3.015  12.543  0.5840  0.6419 -0.5473
10922TIP3    H254182   6.392   2.871  12.533  0.2097  0.4491  0.4419
10923TIP3   OH254183   3.745   4.475   5.210  0.3654 -0.2712 -0.4909
10923TIP3    H154184   3.680   4.500   5.275 -0.0240  0.0207 -0.9875
10923TIP3    H254185   3.715   4.517   5.129  0.1087 -1.7608 -1.1737
10924TIP3   OH254186   5.451   5.432   1.021 -0.7881  0.5076 -0.3050
10924TIP3    H154187   5.378   5.370   1.015  0.7654 -1.5501  1.2098
10924TIP3    H254188   5.503   5.415   0.942 -1.7177  1.7451 -1.2154
10925TIP3   OH254189   2.677   4.633  12.854 -0.1665  0.8885  0.2265
10925TIP3    H154190   2.719   4.713  12.886  0.3610  0.0597  1.6118
10925TIP3    H254191   2.748   4.582  12.815 -0.3513  0.6748  0.1707
10926TIP3   OH254192   3.366   4.722  14.347 -0.1090  0.2263  0.0017
10926TIP3    H154193   3.454   4.751  14.371 -0.1137  0.3813 -0.1705
10926TIP3    H254194   3.372   4.697  14.255  0.9863 -4.6427  1.2880
10927TIP3   OH254195   4.344   1.724  16.187  0.5277  0.1468  0.1947
10927TIP3    H154196   4.321   1.677  16.107 -1.3336  0.3250  0.6021
10927TIP3    H254197   4.289   1.685  16.255 -1.7705  3.4598  0.3851
10928TIP3   OH254198   2.168   1.310  12.089  0.0855  0.3508 -0.4951
10928TIP3    H154199   2.121   1.285  12.168  2.4287 -2.1357  0.1803
10928TIP3    H254200   2.221   1.385  12.116 -0.4169  0.6036 -0.2000
10929TIP3   OH254201   5.863   0.509   0.551 -0.0608 -0.2884 -0.1941
10929TIP3    H154202   5.812   0.550   0.481  0.5497 -1.3356 -1.2719
10929TIP3    H254203   5.920   0.579   0.583 -1.3405  0.5767  0.2333
10930TIP3   OH254204   2.693   1.664   4.021  0.5359 -0.3004 -0.4230
10930TIP3    H154205   2.669   1.693   4.109 -1.1241 -0.0956 -0.9090
10930TIP3    H254206   2.707   1.570   4.030  2.7614  0.0970  0.5248
10931TIP3   OH254207   4.337   6.573  14.581 -0.1709 -0.0104 -0.3249
10931TIP3    H154208   4.271   6.607  14.641  1.0272  1.6019  0.0844
10931TIP3    H254209   4.292   6.501  14.536 -2.3391  1.2843 -0.3177
10932TIP3   OH254210   5.673   3.136  15.753  0.0594  0.3316  0.2941
10932TIP3    H154211   5.689   3.074  15.825 -0.0356  0.5254  0.4846
10932TIP3    H254212   5.649   3.080  15.679 -1.9760  0.2258  0.9873
10933TIP3   OH254213   2.695   3.260   0.689 -0.5399  0.4825 -0.3740
10933TIP3    H154214   2.785   3.227   0.686 -0.2194  1.3195 -0.3911
10933TIP3    H254215   2.659   3.242   0.603 -0.4284  0.0326 -0.3269
10934TIP3   OH254216   2.013   0.598  14.514 -0.7019  0.2252 -0.6385
10934TIP3    H154217   1.956   0.530  14.480 -0.0763 -0.3553 -0.5440
10934TIP3    H254218   1.977   0.619  14.600 -2.0976  1.4735 -1.5113
10935TIP3   OH254219   1.687   1.946  11.543 -0.1638  0.0944 -0.0485
10935TIP3    H154220   1.770   1.952  11.590  1.6400 -1.4193 -2.8746
10935TIP3    H254221   1.672   1.852  11.533 -2.0746  0.3515  0.1575
10936TIP3   OH254222   5.690   4.643   1.144  0.4101 -0.0940  0.7168
10936TIP3    H154223   5.649   4.626   1.229 -0.2484 -2.1648  0.0176
10936TIP3    H254224   5.616   4.667   1.087  0.3470 -2.2662 -0.1514
10937TIP3   OH254225   0.911   6.038  10.486  0.3843  0.3858  0.1111
10937TIP3    H154226   0.985   6.087  10.450  1.0917 -0.9651 -0.2878
10937TIP3    H254227   0.848   6.032  10.414 -0.0682  1.4191  0.4104
10938TIP3   OH254228   6.283   1.353  11.650 -0.4338 -0.3200  0.3628
10938TIP3    H154229   6.312   1.440  11.676  3.1657 -1.4176  0.3134
10938TIP3    H254230   6.288   1.301  11.730 -1.1621 -0.8482  0.0787
10939TIP3   OH254231   2.359   0.893  11.129 -0.6378 -0.2904 -0.2334
10939TIP3    H154232   2.429   0.869  11.067  0.0418 -0.9171  0.7637
10939TIP3    H254233   2.383   0.981  11.158 -1.3668  0.3149 -1.4163
10940TIP3   OH254234   5.281   2.287   1.055  0.2881 -0.4564  0.0618
10940TIP3    H154235   5.239   2.369   1.029 -0.5753  0.5036  4.0659
10940TIP3    H254236   5.374   2.302   1.039 -0.1154  0.2917 -1.6754
10941TIP3   OH254237   1.486   2.749   2.334 -0.0997 -0.8996 -0.7692
10941TIP3    H154238   1.405   2.700   2.318 -1.1473  0.8208 -0.8185
10941TIP3    H254239   1.511   2.724   2.423 -0.9049 -1.1387 -0.6022
10942TIP3   OH254240   6.202   2.235  14.552  0.7623 -0.1326  0.2926
10942TIP3    H154241   6.198   2.161  14.491 -1.5286  1.1024 -1.1306
10942TIP3    H254242   6.125   2.225  14.608  0.0173  1.5712 -0.4007
10943TIP3   OH254243   1.253   2.092   0.422 -0.2358  0.0889 -0.1061
10943TIP3    H154244   1.256   2.115   0.514  0.3693  0.3596 -0.1914
10943TIP3    H254245   1.182   2.145   0.385  0.7388  1.3474 -0.1789
10944TIP3   OH254246   3.936   5.927  13.486  0.5907 -0.4446  0.5060
10944TIP3    H154247   4.018   5.976  13.477  0.2205  0.0696 -0.1475
10944TIP3    H254248   3.872   5.979  13.437 -0.0805 -0.9464  0.8481
10945TIP3   OH254249   5.028   6.402   3.978 -0.0362  0.1457 -0.1208
10945TIP3    H154250   4.942   6.394   3.936 -0.7943  0.5452  1.3025
10945TIP3    H254251   5.009   6.395   4.072  1.6011 -0.5951  0.1606
10946TIP3   OH254252   3.392   0.025  10.454  0.7445  0.5331 -0.0019
10946TIP3    H154253   3.461   0.016  10.519 -0.5096  0.4932  1.3521
10946TIP3    H254254   3.311   0.017  10.504 -0.2395 -0.0528 -1.6526
10947TIP3   OH254255   0.980   4.775   5.557 -0.2947  0.1009 -0.1093
10947TIP3    H154256   0.942   4.837   5.618  0.6081 -0.5774  1.1543
10947TIP3    H254257   1.020   4.829   5.489 -0.4299  0.8762  0.4296
10948TIP3   OH254258   3.760   5.447  12.193 -0.5283 -0.0696  0.0213
10948TIP3    H154259   3.675   5.403  12.199 -0.4191 -0.2707  0.1050
10948TIP3    H254260   3.743   5.536  12.225 -0.3377 -0.6102  1.6641
10949TIP3   OH254261   0.628   0.484   2.347  0.8249  0.6799  0.0176
10949TIP3    H154262   0.552   0.427   2.363  0.4254  1.6746  1.7881
10949TIP3    H254263   0.650   0.469   2.255  0.6655 -2.2567  0.4235
10950TIP3   OH254264   4.420   6.390   0.947  0.5781 -0.0006  0.3234
10950TIP3    H154265   4.435   6.401   0.854  0.1576  0.9291  0.3600
10950TIP3    H254266   4.335   6.347   0.954  1.5649 -2.0044  0.2228
10951TIP3   OH254267   0.966   4.978   2.180 -0.3732 -0.3352  0.3782
10951TIP3    H154268   0.880   4.992   2.218 -0.1604 -0.7633  1.0384
10951TIP3    H254269   0.955   4.995   2.087 -1.5784 -2.1356  0.1611
10952TIP3   OH254270   2.465   5.490   1.124 -0.1592 -0.4886  0.3224
10952TIP3    H154271   2.378   5.513   1.156  0.0559  1.0433 -0.1572
10952TIP3    H254272   2.460   5.503   1.029  0.9300  0.7637  0.4226
10953TIP3   OH254273   5.868   5.519  16.864  0.3657  0.8818  0.4521
10953TIP3    H154274   5.928   5.586  16.831  0.1303  1.0471  0.3537
10953TIP3    H254275   5.795   5.569  16.901 -0.0888  0.6738 -0.1495
10954TIP3   OH254276   3.289   1.153  14.749 -0.4583 -0.4213 -0.0594
10954TIP3    H154277   3.317   1.220  14.813  0.3688 -0.6878 -0.1316
10954TIP3    H254278   3.196   1.139  14.768 -0.4466  0.1881  0.4715
10955TIP3   OH254279   3.587   5.287   5.184 -0.3585  0.5339  0.1527
10955TIP3    H154280   3.652   5.352   5.211 -1.0616  1.1488  0.3800
10955TIP3    H254281   3.579   5.229   5.260  0.6762 -0.1610 -0.2509
10956TIP3   OH254282   2.490   1.251   2.296 -0.3870 -0.2266 -0.6698
10956TIP3    H154283   2.561   1.300   2.255 -1.0240  1.3090  0.0309
10956TIP3    H254284   2.433   1.318   2.334 -0.6250 -1.5416  1.3812
10957TIP3   OH254285   1.112   0.997  16.421  0.7262  0.5246  0.7789
10957TIP3    H154286   1.164   1.008  16.341  3.0129 -1.2592  1.9741
10957TIP3    H254287   1.064   0.916  16.408  1.3761  0.0414  1.3370
10958TIP3   OH254288   3.041   5.293   2.456 -0.0281  0.5174 -0.1549
10958TIP3    H154289   2.995   5.224   2.503 -0.5715  1.0985  0.1843
10958TIP3    H254290   3.084   5.344   2.525 -0.6551  1.2458 -0.2956
10959TIP3   OH254291   3.779   0.391  15.615 -0.6997 -0.2358  0.2631
10959TIP3    H154292   3.871   0.410  15.634  0.2131 -1.6729 -2.5566
10959TIP3    H254293   3.760   0.312  15.666  0.3457 -1.3498 -1.0692
10960TIP3   OH254294   4.885   4.964   0.951  0.0900 -0.0374  1.1275
10960TIP3    H154295   4.937   4.897   0.996 -0.9828 -0.6132  1.5068
10960TIP3    H254296   4.868   4.927   0.864  1.9532  0.9733  0.2842
10961TIP3   OH254297   0.788   0.792  10.594  0.0347 -0.0150 -0.1395
10961TIP3    H154298   0.700   0.784  10.630 -0.1810  1.0787 -0.4210
10961TIP3    H254299   0.844   0.746  10.657 -0.5552  0.4463  0.7243
10962TIP3   OH254300   1.077   0.043   0.251 -0.2394  0.2945  0.2351
10962TIP3    H154301   1.059   0.101   0.325 -0.0485 -0.0649  0.5685
10962TIP3    H254302   1.102   0.101   0.180  0.6360  0.5774  0.7695
10963TIP3   OH254303   1.205   3.565   4.246  0.2212  0.1016  0.7169
10963TIP3    H154304   1.281   3.614   4.217 -0.3636 -0.0263 -1.1193
10963TIP3    H254305   1.241   3.497   4.304  1.6636 -0.7262 -1.0849
10964TIP3   OH254306   1.352   1.021   4.889 -0.0839 -0.0762  0.1244
10964TIP3    H154307   1.402   1.006   4.809  0.1361 -1.5603  0.5294
10964TIP3    H254308   1.264   0.988   4.869 -0.7675  1.9250 -0.3641
10965TIP3   OH254309   3.023   3.894  11.757  0.3632 -0.2328 -0.0718
10965TIP3    H154310   3.008   3.984  11.785  0.9283 -0.2118  0.1875
10965TIP3    H254311   2.964   3.842  11.811 -0.5090  0.0494 -0.7544
10966TIP3   OH254312   2.269   4.091   0.805 -0.7071 -0.2920  0.0181
10966TIP3    H154313   2.330   4.104   0.732  0.9587 -1.4353  1.1700
10966TIP3    H254314   2.187   4.067   0.763 -0.4619  1.5477 -1.5830
10967TIP3   OH254315   3.517   3.377   2.750 -0.2752 -0.2939  0.3072
10967TIP3    H154316   3.606   3.410   2.735  0.1617 -1.1224  1.0675
10967TIP3    H254317   3.527   3.282   2.751 -1.0927 -0.3740  0.9340
10968TIP3   OH254318   5.712   0.747  12.535  0.1942  0.1853  0.1116
10968TIP3    H154319   5.747   0.662  12.560 -1.6000 -0.5358  0.3032
10968TIP3    H254320   5.685   0.736  12.444 -1.2387  0.1098  0.5204
10969TIP3   OH254321   2.693   5.069  10.369 -0.0249 -0.6062 -0.4098
10969TIP3    H154322   2.664   4.999  10.427 -2.9793  1.1839  0.3658
10969TIP3    H254323   2.779   5.093  10.402  1.7185 -4.7663 -1.5659
10970TIP3   OH254324   1.777   5.637  11.796 -0.2684 -0.1638  0.1178
10970TIP3    H154325   1.786   5.682  11.712 -0.9541  0.5496  0.4125
10970TIP3    H254326   1.705   5.575  11.783  1.7994 -2.4244 -0.7975
10971TIP3   OH254327   4.591   4.324   2.660 -0.0594 -0.0990 -0.0630
10971TIP3    H154328   4.500   4.297   2.676  0.7019 -0.9199  3.3168
10971TIP3    H254329   4.623   4.265   2.593 -0.6407 -2.9517  2.0855
10972TIP3   OH254330   2.137   2.752  11.512 -0.0430  0.0027 -0.2054
10972TIP3    H154331   2.183   2.790  11.437 -1.8252  0.7426 -0.9444
10972TIP3    H254332   2.105   2.667  11.481  1.4633 -0.8579  0.5490
10973TIP3   OH254333   2.265   5.145  14.658  0.2198 -0.3360 -0.2391
10973TIP3    H154334   2.248   5.158  14.752  2.2379 -1.2038  0.2663
10973TIP3    H254335   2.360   5.148  14.651  0.0473  1.0693 -2.4802
10974TIP3   OH254336   3.019   0.457  10.478 -0.0998  0.1384  0.0367
10974TIP3    H154337   3.012   0.368  10.513 -1.8303  0.3993  0.3699
10974TIP3    H254338   2.935   0.498  10.497  1.1846  2.3404  1.1932
10975TIP3   OH254339   0.492   2.195   0.480  0.0832  0.2507 -0.5369
10975TIP3    H154340   0.416   2.140   0.498 -1.3425  1.8143 -1.5157
10975TIP3    H254341   0.473   2.277   0.526  1.6954  0.2751  0.0986
10976TIP3   OH254342   0.254   3.325   6.030 -0.2634  0.3242 -0.6500
10976TIP3    H154343   0.160   3.341   6.022  0.0516  2.0242 -1.3126
10976TIP3    H254344   0.261   3.237   6.066 -2.1009 -0.0771 -1.2198
10977TIP3   OH254345   5.988   0.549   1.140 -0.1340  0.5310 -0.2966
10977TIP3    H154346   5.942   0.626   1.172 -0.0206  1.4302 -2.2320
10977TIP3    H254347   5.934   0.516   1.068  0.5545 -0.3424 -0.4269
10978TIP3   OH254348   3.182   4.126   4.257 -0.2881 -0.0345  0.7288
10978TIP3    H154349   3.206   4.034   4.240 -1.5665 -0.2795  0.2109
10978TIP3    H254350   3.246   4.155   4.322 -0.2639 -1.4874  1.3860
10979TIP3   OH254351   5.113   5.050  10.768  0.4875 -0.7161  0.2943
10979TIP3    H154352   5.156   5.003  10.839  1.9407  1.0462  0.6122
10979TIP3    H254353   5.130   5.142  10.786 -1.7616 -0.0743 -0.6684
10980TIP3   OH254354   4.983   3.211   2.501 -0.1242 -0.0659 -0.1599
10980TIP3    H154355   5.029   3.213   2.417  0.3045  0.8055  0.0894
10980TIP3    H254356   4.945   3.123   2.505 -1.4749  0.3892 -1.9797
10981TIP3   OH254357   6.420   0.280  17.040  0.4224 -0.1390 -0.5171
10981TIP3    H154358   6.363   0.256  16.967  1.3243 -2.8802 -0.3600
10981TIP3    H254359   6.501   0.311  16.998  1.5870 -3.3182 -0.7341
10982TIP3   OH254360   1.072   1.493  11.734  0.2464  0.2671  0.3884
10982TIP3    H154361   1.059   1.421  11.796 -0.2793  0.2428  0.2564
10982TIP3    H254362   1.144   1.544  11.771 -0.1015  0.2865  1.0509
10983TIP3   OH254363   6.099   2.049   5.292 -0.3196  0.4219 -0.1395
10983TIP3    H154364   6.177   2.075   5.342  1.3598 -1.3380 -1.7743
10983TIP3    H254365   6.100   1.954   5.295 -2.0527  0.3744 -0.7699
10984TIP3   OH254366   1.508   1.017   5.107  0.4046  0.2383  0.1468
10984TIP3    H154367   1.435   1.018   5.046 -0.4270 -1.4434  1.0970
10984TIP3    H254368   1.482   1.075   5.178  0.9534  1.3974 -0.5733
10985TIP3   OH254369   4.741   2.702   3.114  0.0859  0.0537  0.0263
10985TIP3    H154370   4.683   2.777   3.097 -0.1226 -0.5210 -1.9586
10985TIP3    H254371   4.804   2.704   3.041  0.9747 -0.8373  0.7668
10986TIP3   OH254372   6.008   3.101   5.901  0.5436  0.2121  0.4584
10986TIP3    H154373   6.069   3.134   5.967  0.0004  0.5977  0.7693
10986TIP3    H254374   5.964   3.179   5.868  2.1211  0.2311 -1.6932
10987TIP3   OH254375   3.317   6.362  15.887 -0.4819 -0.6548 -0.0873
10987TIP3    H154376   3.344   6.440  15.840  0.7930 -1.0844 -0.0854
10987TIP3    H254377   3.364   6.291  15.844 -0.4484 -1.2320  0.8950
10988TIP3   OH254378   0.607   1.372  16.543  0.0395  0.7207 -0.1764
10988TIP3    H154379   0.560   1.310  16.487  1.8048 -2.3430  1.5584
10988TIP3    H254380   0.697   1.372  16.509  0.3613  1.3093  0.6380
10989TIP3   OH254381   3.157   0.599   0.522 -0.4081 -0.1010  0.1400
10989TIP3    H154382   3.169   0.597   0.617 -0.3398 -0.8399  0.1151
10989TIP3    H254383   3.070   0.638   0.510 -0.5613 -0.3213  0.5200
10990TIP3   OH254384   6.367   1.675  16.700 -0.1245 -0.2896 -0.4462
10990TIP3    H154385   6.398   1.586  16.715  1.0466  0.2978  0.7467
10990TIP3    H254386   6.399   1.724  16.775  1.0605  1.5687 -2.0962
10991TIP3   OH254387   3.980   0.303   3.782 -0.5266 -0.5071 -0.6059
10991TIP3    H154388   4.040   0.236   3.816 -0.8465  0.4746  2.0169
10991TIP3    H254389   4.037   0.374   3.752 -0.3074 -0.2116  0.4912
10992TIP3   OH254390   6.171   2.416  16.672 -0.3157  0.1579 -0.0599
10992TIP3    H154391   6.240   2.366  16.628 -0.2283  1.0958 -0.9942
10992TIP3    H254392   6.218   2.471  16.735 -0.2905  0.1466 -0.0708
10993TIP3   OH254393   0.502   0.936   5.537  0.2554  0.0818 -0.1291
10993TIP3    H154394   0.512   0.909   5.446 -1.1234  0.2880 -0.3548
10993TIP3    H254395   0.408   0.935   5.552  0.4690  0.1578  1.2652
10994TIP3   OH254396   4.007   6.066  14.817  0.0635 -0.1287  0.0284
10994TIP3    H154397   3.939   6.041  14.879  0.0039 -1.3082 -0.5057
10994TIP3    H254398   4.087   6.029  14.852  0.3983  1.0826  0.5470
10995TIP3   OH254399   4.865   3.557   5.029  0.1988  0.0358 -0.2335
10995TIP3    H154400   4.931   3.494   5.058 -1.0902 -0.3451  2.0261
10995TIP3    H254401   4.897   3.641   5.063  0.1461  0.0429 -0.2020
10996TIP3   OH254402   4.138   1.092  15.638 -0.3141  0.1981  0.1540
10996TIP3    H154403   4.105   1.182  15.639 -0.5705  0.0975  0.5533
10996TIP3    H254404   4.112   1.056  15.722 -0.7632 -0.4517 -0.2605
10997TIP3   OH254405   5.789   5.549   3.999 -0.2345 -0.2274 -0.0136
10997TIP3    H154406   5.762   5.457   3.994 -0.8775 -0.0226 -0.2767
10997TIP3    H254407   5.738   5.585   4.071  0.2726 -0.1579  0.3167
10998TIP3   OH254408   2.482   4.307  14.681  0.1387 -0.0890  0.0388
10998TIP3    H154409   2.543   4.235  14.665  1.4626  1.3914 -1.6631
10998TIP3    H254410   2.528   4.385  14.650 -2.9806  0.9431 -2.1551
10999TIP3   OH254411   0.443   0.616   4.010 -0.3155  0.4466  0.6057
10999TIP3    H154412   0.529   0.597   3.972 -0.0006  0.3769  1.3604
10999TIP3    H254413   0.385   0.550   3.971  0.1190  0.0247  0.6679
11000TIP3   OH254414   4.161   0.074   2.216 -0.3982  0.2784 -0.3293
11000TIP3    H154415   4.098   0.130   2.170 -0.0144  0.5472 -0.5283
11000TIP3    H254416   4.246   0.100   2.180 -0.0564  0.7914  0.8492
11001TIP3   OH254417   3.562   5.773   4.301  0.3656 -0.0623  0.7952
11001TIP3    H154418   3.493   5.723   4.256 -0.4779 -0.1916  2.2078
11001TIP3    H254419   3.641   5.722   4.287 -0.2178 -1.0342  0.9576
11002TIP3   OH254420   2.741   5.811   2.457  0.6859 -0.5600  0.4114
11002TIP3    H154421   2.654   5.844   2.434  0.9024  0.7168  1.3145
11002TIP3    H254422   2.759   5.742   2.394 -0.6951 -0.3493 -0.2216
11003TIP3   OH254423   4.641   1.341   5.507 -0.3658  0.1382 -0.3378
11003TIP3    H154424   4.732   1.329   5.534  0.4623  0.4317 -2.8147
11003TIP3    H254425   4.622   1.433   5.527 -0.4418 -0.1809  1.0769
11004TIP3   OH254426   2.705   0.565   5.760  0.2777  0.6887 -0.1629
11004TIP3    H154427   2.624   0.537   5.718 -0.2835  0.6067  0.9569
11004TIP3    H254428   2.677   0.602   5.844  1.2830  1.8452 -0.3236
11005TIP3   OH254429   0.716   1.743  12.983  0.4695 -0.2589 -0.6118
11005TIP3    H154430   0.642   1.691  12.951  0.6433 -0.5459 -0.5574
11005TIP3    H254431   0.746   1.791  12.907  0.2270 -0.1459 -0.6371
11006TIP3   OH254432   5.403   6.690   4.835  0.2489 -0.1696  0.0487
11006TIP3    H154433   5.336   6.643   4.785 -1.0023  1.4865  0.1105
11006TIP3    H254434   5.461   6.728   4.769  0.5576 -0.7824 -0.0354
11007TIP3   OH254435   4.763   5.654   4.728  0.0785  0.3915  0.0566
11007TIP3    H154436   4.703   5.729   4.736  0.6850  0.9721 -0.8211
11007TIP3    H254437   4.847   5.693   4.703  0.2095 -0.6427 -1.1711
11008TIP3   OH254438   6.097   6.743   1.926 -0.3688  0.0041 -0.2597
11008TIP3    H154439   6.069   6.660   1.889 -1.1964  0.4962 -0.7600
11008TIP3    H254440   6.141   6.789   1.854  0.8818 -0.3655  0.2600
11009TIP3   OH254441   4.783   1.655   1.994 -0.0998  0.2266 -0.4210
11009TIP3    H154442   4.848   1.638   2.063  0.8278 -0.1938 -1.3891
11009TIP3    H254443   4.710   1.696   2.040 -1.2637 -3.7524  1.5582
11010TIP3   OH254444   4.947   0.063  13.202 -0.4204  0.0589  0.0490
11010TIP3    H154445   4.960   0.139  13.259 -1.1767 -1.1147  1.8156
11010TIP3    H254446   4.853   0.061  13.186 -0.2470  0.2079 -1.0066
11011TIP3   OH254447   4.436   1.178  17.059  0.4129  0.1280 -0.2040
11011TIP3    H154448   4.379   1.248  17.027  0.8399 -0.6820 -2.8717
11011TIP3    H254449   4.510   1.179  16.999  1.9409 -0.5888  1.6284
11012TIP3   OH254450   4.754   2.503   4.266  0.0260  0.2384  0.2451
11012TIP3    H154451   4.756   2.596   4.244  2.4129  0.1612  0.0362
11012TIP3    H254452   4.800   2.497   4.350  2.2770 -1.0753 -1.0415
11013TIP3   OH254453   6.106   5.821  13.171 -0.1155 -1.2796 -0.5209
11013TIP3    H154454   6.124   5.780  13.255 -1.2079  0.7437  0.7543
11013TIP3    H254455   6.172   5.890  13.163 -0.1520 -1.3171 -1.2337
11014TIP3   OH254456   5.384   5.703   5.657  0.6407 -0.5484  0.2682
11014TIP3    H154457   5.417   5.614   5.653  0.7244 -0.5200  0.3208
11014TIP3    H254458   5.391   5.727   5.750  2.4406  0.1991 -0.0394
11015TIP3   OH254459   5.930   0.167   5.607 -0.1839  0.1667  0.5653
11015TIP3    H154460   6.000   0.233   5.601  0.3020 -0.4002 -0.2498
11015TIP3    H254461   5.866   0.204   5.667  1.0904  0.4661  1.7670
11016TIP3   OH254462   2.685   3.465   0.382 -0.4011  0.1596 -0.0431
11016TIP3    H154463   2.695   3.472   0.287 -1.1912 -0.2817 -0.1618
11016TIP3    H254464   2.709   3.375   0.403  1.6180  0.7986  0.4214
11017TIP3   OH254465   3.919   3.645  15.061 -0.1961 -0.8701  0.4363
11017TIP3    H154466   4.012   3.633  15.076 -0.3404 -1.6103  0.7760
11017TIP3    H254467   3.878   3.566  15.097 -0.9456 -0.5857  0.2328
11018TIP3   OH254468   2.560   5.916  13.111 -0.1536 -0.7107  0.8992
11018TIP3    H154469   2.609   5.866  13.046 -0.5371 -1.2041  0.9864
11018TIP3    H254470   2.571   6.008  13.085 -4.5982 -1.0736 -2.9847
11019TIP3   OH254471   5.014   1.924   5.743 -0.1265  0.0211  0.0031
11019TIP3    H154472   4.941   1.984   5.728 -0.6497 -0.9255 -1.3026
11019TIP3    H254473   5.078   1.976   5.792 -2.1201  0.5510  2.1645
11020TIP3   OH254474   0.905   2.034   1.888  0.2732  1.2617  0.6932
11020TIP3    H154475   0.952   2.054   1.807 -1.8204  2.9046 -0.1682
11020TIP3    H254476   0.897   1.939   1.889 -0.5548  1.2841 -1.5646
11021TIP3   OH254477   2.749   3.861   0.968  0.7654  0.2374 -0.3774
11021TIP3    H154478   2.681   3.856   0.901  0.7176  1.9525 -0.4764
11021TIP3    H254479   2.717   3.806   1.039 -0.6348  0.8416 -0.5226
11022TIP3   OH254480   4.607   3.455   5.622  0.5095  0.0638  0.2408
11022TIP3    H154481   4.527   3.501   5.596  0.4923  0.1181  0.3894
11022TIP3    H254482   4.651   3.514   5.683  0.7111  0.0744  0.0881
11023TIP3   OH254483   5.864   3.061  11.196  0.2164  0.3180 -0.0457
11023TIP3    H154484   5.773   3.077  11.171 -0.2626  1.6694  2.4034
11023TIP3    H254485   5.906   3.030  11.116 -2.7671 -1.9135 -0.8448
11024TIP3   OH254486   1.866   5.004   1.442 -0.3522 -0.3101 -0.2811
11024TIP3    H154487   1.931   5.003   1.512  0.6220  0.8856 -1.1319
11024TIP3    H254488   1.794   4.952   1.475  0.1382  0.1455  1.5696
11025TIP3   OH254489   1.192   4.531  13.844 -0.0976 -0.0545  0.3381
11025TIP3    H154490   1.202   4.441  13.873  0.3404 -0.5484 -1.2678
11025TIP3    H254491   1.281   4.565  13.838 -0.3079  0.7830  1.8167
11026TIP3   OH254492   3.501   4.369   5.739 -0.5673 -0.3610 -0.0292
11026TIP3    H154493   3.469   4.285   5.770 -0.0282 -0.1005  1.2599
11026TIP3    H254494   3.481   4.430   5.810 -1.3061  0.6806 -1.1061
11027TIP3   OH254495   2.337   0.874   1.315 -0.3616 -0.4452 -0.1584
11027TIP3    H154496   2.288   0.957   1.316  0.6181  0.1386  0.6848
11027TIP3    H254497   2.310   0.830   1.395 -0.8034 -0.8936 -0.5559
11028TIP3   OH254498   1.353   1.594  12.312 -0.4548  1.0180 -0.1787
11028TIP3    H154499   1.336   1.632  12.398  0.3513 -1.0892  0.9456
11028TIP3    H254500   1.429   1.643  12.279 -0.2528  1.2704  0.6580
11029TIP3   OH254501   6.457   1.243  12.952  0.1065  0.3245 -0.2866
11029TIP3    H154502   6.437   1.219  12.862  0.8211  0.7262 -0.5600
11029TIP3    H254503   6.517   1.175  12.982 -1.3565 -0.6781  0.4069
11030TIP3   OH254504   0.321   6.070   4.593 -0.0121 -0.6141 -0.3499
11030TIP3    H154505   0.389   6.116   4.643  0.4151 -0.3382 -1.1870
11030TIP3    H254506   0.350   5.979   4.591  0.9869 -0.2745 -1.7943
11031TIP3   OH254507   3.414   2.367   4.219 -0.1871  0.2189 -0.4159
11031TIP3    H154508   3.397   2.459   4.195  0.4006  0.5328  0.3510
11031TIP3    H254509   3.418   2.368   4.314  1.4533 -0.3065 -0.4601
11032TIP3   OH254510   4.171   6.478  11.585  0.0863  0.0431 -0.6537
11032TIP3    H154511   4.150   6.385  11.590 -0.3993  0.1305 -1.1322
11032TIP3    H254512   4.159   6.501  11.493 -0.4748  0.7384 -0.4086
11033TIP3   OH254513   2.216   4.017  14.687  0.7918 -0.0615  0.0349
11033TIP3    H154514   2.213   4.105  14.649 -2.4083 -0.7331 -1.4466
11033TIP3    H254515   2.195   4.031  14.779 -0.9854  0.6358 -0.4486
11034TIP3   OH254516   6.653   6.206   3.667 -0.3096  0.1651  0.1879
11034TIP3    H154517   6.642   6.211   3.762  1.9453 -1.0528  0.5451
11034TIP3    H254518   6.748   6.213   3.653 -0.4939 -1.0539 -1.8706
11035TIP3   OH254519   1.389   0.273   1.664 -0.0562  0.4283 -0.2692
11035TIP3    H154520   1.333   0.200   1.690  1.4405 -0.0602  1.7296
11035TIP3    H254521   1.452   0.233   1.603 -0.2578  0.3939 -0.4533
11036TIP3   OH254522   2.065   1.466   4.335 -0.4246  0.4779  0.2614
11036TIP3    H154523   2.103   1.483   4.249 -1.2277 -0.2304 -0.2391
11036TIP3    H254524   2.140   1.463   4.394  0.0919  1.4013 -0.3429
11037TIP3   OH254525   1.879   0.447   2.733 -0.8758  0.0183 -0.5361
11037TIP3    H154526   1.939   0.487   2.796 -0.1517 -0.1724 -1.0973
11037TIP3    H254527   1.809   0.511   2.721 -1.5169 -0.3394  1.1844
11038TIP3   OH254528   6.222   3.991   1.629 -0.3668 -0.6427  0.5059
11038TIP3    H154529   6.276   3.955   1.559  1.7082  0.2943  1.5765
11038TIP3    H254530   6.169   3.917   1.658  1.7886 -2.1440  0.7523
11039TIP3   OH254531   3.715   0.424  13.327 -0.4111 -0.2519  0.3391
11039TIP3    H154532   3.796   0.373  13.321  0.8294  1.8010 -0.5899
11039TIP3    H254533   3.724   0.474  13.407 -2.0832 -2.1740  1.7927
11040TIP3   OH254534   5.476   3.370  12.373 -0.7170  0.2075 -0.0346
11040TIP3    H154535   5.569   3.388  12.384 -0.6629 -0.5645  0.8294
11040TIP3    H254536   5.432   3.449  12.406 -0.3393  1.5972 -2.7040
11041TIP3   OH254537   2.540   1.556  13.399 -0.0239 -0.6583 -0.1591
11041TIP3    H154538   2.568   1.528  13.487  0.4640  0.0069 -0.0928
11041TIP3    H254539   2.445   1.566  13.406  0.1076  0.1659  0.5199
11042TIP3   OH254540   6.644   1.000  16.406 -0.5090 -0.7958 -0.0213
11042TIP3    H154541   6.703   0.931  16.436  0.1773 -0.1968  0.0115
11042TIP3    H254542   6.616   1.044  16.486 -0.6253 -0.7753 -0.0725
11043TIP3   OH254543   1.873   0.276   5.423  0.4417  0.4707  0.4693
11043TIP3    H154544   1.948   0.216   5.424  0.2478  0.2227  1.7184
11043TIP3    H254545   1.875   0.316   5.510  1.0179  2.8450 -0.6201
11044TIP3   OH254546   6.365   4.201   3.135 -0.1553  0.5323 -0.2124
11044TIP3    H154547   6.423   4.270   3.101  1.8369 -0.4103  1.1795
11044TIP3    H254548   6.328   4.237   3.215 -0.3651  0.5801 -0.3299
11045TIP3   OH254549   0.114   1.740  12.075 -0.0916  0.5239  0.2606
11045TIP3    H154550   0.146   1.776  11.992 -0.9847  2.4376  0.7186
11045TIP3    H254551   0.176   1.772  12.140 -0.9981  1.4300  0.6972
11046TIP3   OH254552   1.793   1.723  14.381  0.4716 -0.3888 -0.0770
11046TIP3    H154553   1.717   1.665  14.372 -0.9596  1.1782  1.4489
11046TIP3    H254554   1.846   1.705  14.304 -2.5031  0.0061 -2.3167
11047TIP3   OH254555   0.730   1.345   0.966 -0.8599 -0.2408 -0.2658
11047TIP3    H154556   0.732   1.420   0.906 -0.5343 -1.2955 -1.5946
11047TIP3    H254557   0.799   1.287   0.934 -0.7423 -0.8647  1.0882
11048TIP3   OH254558   3.788   4.941  10.705 -0.5357 -0.2444  0.6323
11048TIP3    H154559   3.718   4.916  10.645 -0.1730  1.4975 -0.5474
11048TIP3    H254560   3.773   5.034  10.722  2.6554  0.6885 -1.2554
11049TIP3   OH254561   0.757   2.859  12.097  0.4284 -0.3569 -0.7889
11049TIP3    H154562   0.813   2.782  12.099  0.7690 -0.0933 -0.2759
11049TIP3    H254563   0.808   2.928  12.138 -0.5340 -0.2818  0.3077
11050TIP3   OH254564   1.855   4.220   4.582 -0.1976  0.1452 -0.2635
11050TIP3    H154565   1.884   4.308   4.559 -1.1361  0.7014  0.6751
11050TIP3    H254566   1.802   4.192   4.507  1.4862 -0.2932 -1.3162
11051TIP3   OH254567   1.258   1.399   1.331  0.1713 -0.0802  0.0959
11051TIP3    H154568   1.298   1.313   1.342  0.8552 -0.0152 -1.6528
11051TIP3    H254569   1.166   1.380   1.309  0.2241 -0.3558  0.1138
11052TIP3   OH254570   4.230   2.404   4.067 -0.2292 -0.8546 -0.0068
11052TIP3    H154571   4.204   2.315   4.092 -1.4395 -0.4234  0.3262
11052TIP3    H254572   4.187   2.419   3.982 -3.2072  0.7442  1.6743
11053TIP3   OH254573   1.901   2.351   3.598 -0.0181  0.1488  0.3397
11053TIP3    H154574   1.855   2.379   3.519  0.3296  0.0330  0.0903
11053TIP3    H254575   1.988   2.390   3.590  0.5491 -1.1836 -0.1334
11054TIP3   OH254576   0.599   1.089  14.817 -0.2715 -0.2053 -0.2345
11054TIP3    H154577   0.549   1.170  14.815  0.1431  0.1065  1.1142
11054TIP3    H254578   0.558   1.037  14.886  0.4041 -0.5056 -0.0519
11055TIP3   OH254579   0.098   2.438   4.343 -0.1687 -0.7724  0.2845
11055TIP3    H154580   0.006   2.445   4.318 -0.3594 -1.5784  0.7240
11055TIP3    H254581   0.147   2.466   4.266 -0.7901 -0.1799  0.1120
11056TIP3   OH254582   6.356   1.107   5.786 -0.2632  0.1014 -0.1969
11056TIP3    H154583   6.317   1.070   5.707  3.0402 -2.3176 -0.8140
11056TIP3    H254584   6.295   1.084   5.856 -2.4347  0.9088 -1.7498
11057TIP3   OH254585   4.969   6.075  16.157  0.1350 -0.6552 -0.0818
11057TIP3    H154586   4.921   6.154  16.137 -2.0909 -1.1363  3.0949
11057TIP3    H254587   5.000   6.087  16.247  1.5434 -2.5195 -0.2771
11058TIP3   OH254588   4.418   0.495   4.408  0.3510  0.0783  0.0060
11058TIP3    H154589   4.496   0.476   4.356 -0.4289 -1.2809 -0.7124
11058TIP3    H254590   4.350   0.438   4.371 -0.6120  0.1940  1.5418
11059TIP3   OH254591   2.013   0.734  15.460 -0.3235  0.3323  0.0923
11059TIP3    H154592   1.941   0.748  15.522  1.2906  1.0602  1.8543
11059TIP3    H254593   2.064   0.815  15.463  0.1987  0.0824 -1.6436
11060TIP3   OH254594   0.725   0.759   1.306 -0.0114  0.1344  0.4727
11060TIP3    H154595   0.812   0.722   1.320  0.3096  0.7779  0.2121
11060TIP3    H254596   0.709   0.813   1.384 -0.2058 -0.0321  0.5492
11061TIP3   OH254597   5.467   4.796  14.914 -1.0612  0.3038  0.2928
11061TIP3    H154598   5.436   4.877  14.953 -2.0233 -0.2806  0.7450
11061TIP3    H254599   5.481   4.818  14.822 -3.3231  0.4530 -0.0413
11062TIP3   OH254600   3.541   0.645  14.915 -0.1858  0.3640  0.4615
11062TIP3    H154601   3.455   0.662  14.954 -0.3611 -1.6961  0.9812
11062TIP3    H254602   3.582   0.582  14.973  1.2290  0.4605 -0.4246
11063TIP3   OH254603   5.985   2.133  14.868 -0.2724 -0.8178 -0.4748
11063TIP3    H154604   6.003   2.205  14.808  1.0077 -0.0943  0.7604
11063TIP3    H254605   5.997   2.171  14.955  0.5419 -2.5644  0.1837
11064TIP3   OH254606   3.511   6.152   5.955  0.0261 -0.0282  0.3609
11064TIP3    H154607   3.460   6.188   6.028  2.2158  2.4615  0.7490
11064TIP3    H254608   3.545   6.229   5.909  0.7617 -1.5960 -1.8137
11065TIP3   OH254609   4.029   2.363  16.733  0.8704  0.1731 -0.4615
11065TIP3    H154610   4.039   2.454  16.760  0.1552  0.2378 -0.4029
11065TIP3    H254611   3.936   2.354  16.714  1.1054 -0.2995 -1.3814
11066TIP3   OH254612   2.781   1.891  12.243 -0.2490  0.0379  0.5146
11066TIP3    H154613   2.708   1.931  12.290 -1.4736 -1.3615 -0.1755
11066TIP3    H254614   2.795   1.948  12.167 -0.3670  0.5189  0.8541
11067TIP3   OH254615   0.591   6.462  17.140 -0.1789  1.0311 -0.2724
11067TIP3    H154616   0.666   6.419  17.099  0.1230 -0.4812  1.8217
11067TIP3    H254617   0.515   6.412  17.110 -0.2428  1.7240 -1.2958
11068TIP3   OH254618   4.670   1.124  13.672 -0.3259 -0.0043  0.5979
11068TIP3    H154619   4.612   1.081  13.736 -0.3208 -0.2874  0.4130
11068TIP3    H254620   4.754   1.132  13.718 -0.7705  1.2893  1.2123
11069TIP3   OH254621   4.809   4.278   5.607 -0.3050 -0.4873  0.1724
11069TIP3    H154622   4.784   4.185   5.603 -1.3782 -0.2297  0.7580
11069TIP3    H254623   4.748   4.317   5.670  1.0837  0.3282  1.0551
11070TIP3   OH254624   4.045   3.607  11.353 -0.6775  0.7362  0.0849
11070TIP3    H154625   4.132   3.635  11.381 -0.4966 -1.0986  1.4234
11070TIP3    H254626   3.991   3.613  11.431 -0.8083 -1.8858  0.2383
11071TIP3   OH254627   3.066   0.973   4.320 -0.5881  0.3375  0.6687
11071TIP3    H154628   3.159   0.983   4.343 -0.5016  1.3279 -0.0967
11071TIP3    H254629   3.025   0.943   4.401  0.3797 -0.0221  1.0387
11072TIP3   OH254630   4.833   3.817  12.368  0.1116  0.4778 -0.2005
11072TIP3    H154631   4.831   3.842  12.276  0.0072  2.1464  0.2535
11072TIP3    H254632   4.740   3.811  12.393  0.1170 -1.3032 -0.5498
11073TIP3   OH254633   1.793   6.584  16.980 -0.0726 -0.5425  0.4781
11073TIP3    H154634   1.796   6.490  16.958 -0.7096 -0.4736  0.0803
11073TIP3    H254635   1.846   6.626  16.912 -0.8821 -0.4757 -0.1103
11074TIP3   OH254636   4.649   2.606  14.290  0.7007  0.0253  0.4353
11074TIP3    H154637   4.608   2.684  14.325 -0.0929  0.0341 -0.4889
11074TIP3    H254638   4.681   2.632  14.203 -1.1420 -1.1340 -0.6322
11075TIP3   OH254639   2.011   1.131   0.596 -0.2701  0.5656 -0.4354
11075TIP3    H154640   1.998   1.086   0.680 -1.3087  0.9690 -0.3681
11075TIP3    H254641   1.982   1.068   0.530  1.5310 -0.1497 -0.5806
11076TIP3   OH254642   3.101   2.820  10.616  0.4447  0.0362 -0.3872
11076TIP3    H154643   3.136   2.907  10.635  0.3594 -0.1008  0.4189
11076TIP3    H254644   3.171   2.760  10.643  0.5145 -0.1486 -0.9662
11077TIP3   OH254645   4.487   3.425   0.879  0.2780 -0.4289  0.3601
11077TIP3    H154646   4.574   3.463   0.889  0.2484  0.6125 -2.9983
11077TIP3    H254647   4.431   3.478   0.936  1.8008 -1.1397  2.5790
11078TIP3   OH254648   0.171   3.516   3.275  0.5983  0.1185  0.1703
11078TIP3    H154649   0.085   3.544   3.246  0.3923 -2.1218 -1.5491
11078TIP3    H254650   0.229   3.590   3.257 -0.6530  0.9956 -0.2556
11079TIP3   OH254651   1.245   4.033   3.878  0.1905  0.3682 -0.4796
11079TIP3    H154652   1.284   4.072   3.957 -0.3960 -0.9008  0.4563
11079TIP3    H254653   1.204   4.106   3.833  0.4091  1.0949  0.4833
11080TIP3   OH254654   6.044   2.768  14.569 -0.1562 -0.0695 -0.0544
11080TIP3    H154655   6.114   2.807  14.516  1.0941  0.4330  1.9293
11080TIP3    H254656   6.086   2.697  14.617 -1.2102 -0.3283  0.5165
11081TIP3   OH254657   3.544   1.298   4.467 -0.1868 -0.6800 -0.2293
11081TIP3    H154658   3.539   1.324   4.559 -0.1475  1.5876 -0.8212
11081TIP3    H254659   3.468   1.241   4.454 -0.2062 -0.9975  1.1896
11082TIP3   OH254660   3.925   0.510  17.003  0.2589  0.0107 -0.3697
11082TIP3    H154661   3.964   0.423  17.008  0.9309  0.2933 -0.5859
11082TIP3    H254662   3.971   0.561  17.070  0.3021  0.3660 -0.6688
11083TIP3   OH254663   5.469   1.628  10.948  0.1412 -0.0464  0.4883
11083TIP3    H154664   5.377   1.635  10.924  0.1594  0.2986  0.5172
11083TIP3    H254665   5.487   1.534  10.946  0.7780  0.0814 -3.2511
11084TIP3   OH254666   5.115   4.198   3.968 -0.3939 -0.2645 -0.1213
11084TIP3    H154667   5.095   4.121   4.022 -0.5349  0.0643  0.2953
11084TIP3    H254668   5.090   4.171   3.879 -0.2887 -0.7586 -0.0048
11085TIP3   OH254669   4.411   5.641  13.528 -0.0185  0.1399 -0.0746
11085TIP3    H154670   4.322   5.673  13.540 -0.2296  0.1622 -1.6190
11085TIP3    H254671   4.463   5.719  13.512  0.2391  0.1041  0.5801
11086TIP3   OH254672   2.020   1.684   3.918  0.0746 -0.6298 -0.4226
11086TIP3    H154673   2.016   1.736   3.838  0.5824 -0.7302 -0.5114
11086TIP3    H254674   1.930   1.652   3.930 -0.4803  1.0911  0.1768
11087TIP3   OH254675   5.198   3.286  11.365 -0.2862 -0.3057  0.2184
11087TIP3    H154676   5.211   3.191  11.364 -1.5735 -0.4895 -0.2131
11087TIP3    H254677   5.273   3.320  11.414  1.0807 -1.3941 -1.0451
11088TIP3   OH254678   5.586   4.086   2.112  0.1994  0.1817  0.4758
11088TIP3    H154679   5.613   4.008   2.063 -2.1440  0.2552 -1.0276
11088TIP3    H254680   5.601   4.063   2.204 -2.4508 -2.9317  0.2437
11089TIP3   OH254681   3.366   4.242  13.990  0.0290 -0.3622  0.2346
11089TIP3    H154682   3.285   4.292  13.994  0.0371 -0.0165 -2.7796
11089TIP3    H254683   3.358   4.177  14.060 -2.7447 -0.1950  0.1198
11090TIP3   OH254684   3.762   3.234   4.823 -0.4145  0.0777 -0.1886
11090TIP3    H154685   3.774   3.315   4.872  0.2260  0.1260 -0.4233
11090TIP3    H254686   3.789   3.165   4.884 -2.6011 -0.1182  0.6417
11091TIP3   OH254687   6.137   0.008  13.629 -0.8016  0.1499 -0.3367
11091TIP3    H154688   6.112   0.088  13.582  0.3594  1.0130  0.4871
11091TIP3    H254689   6.221   0.029  13.669 -1.1374 -1.0363  1.0218
11092TIP3   OH254690   0.091   5.585  12.840 -0.8261 -0.1743  0.0998
11092TIP3    H154691   0.157   5.630  12.892 -0.3630 -1.7108  0.8651
11092TIP3    H254692   0.138   5.553  12.763 -0.4978 -1.9008  0.9987
11093TIP3   OH254693   1.939   3.672  13.080 -0.4615  0.1325 -0.1319
11093TIP3    H154694   1.895   3.587  13.081  0.1134 -0.1639  0.1808
11093TIP3    H254695   1.902   3.718  13.005 -1.7514  0.1271  0.4801
11094TIP3   OH254696   6.043   5.550   4.668 -0.2974  0.2432  0.2137
11094TIP3    H154697   6.040   5.455   4.654  2.8092  0.2032 -0.3890
11094TIP3    H254698   5.959   5.581   4.635  0.3114 -1.7971 -3.5886
11095TIP3   OH254699   4.199   5.644  12.463  0.1062 -0.7713 -0.3231
11095TIP3    H154700   4.159   5.567  12.505 -0.5883  0.0004  0.4535
11095TIP3    H254701   4.205   5.620  12.371 -1.0879 -1.3693 -0.2667
11096TIP3   OH254702   1.906   5.605   2.637 -0.6783 -0.0729 -0.1515
11096TIP3    H154703   1.959   5.645   2.569 -0.4583  0.7484  0.4871
11096TIP3    H254704   1.969   5.566   2.698 -0.8887 -1.2337 -0.6750
11097TIP3   OH254705   2.765   1.861  15.740 -0.3540  0.3031 -0.1625
11097TIP3    H154706   2.769   1.955  15.726 -0.3725  0.0603 -2.0009
11097TIP3    H254707   2.781   1.849  15.833 -0.4179  2.1222  0.0914
11098TIP3   OH254708   4.632   6.579   5.296  0.0362  0.6883  0.4414
11098TIP3    H154709   4.681   6.659   5.276  2.8360 -0.8730  0.8144
11098TIP3    H254710   4.694   6.508   5.282 -2.9309 -1.6430 -1.7812
11099TIP3   OH254711   2.950   3.147   0.709  0.5208  0.8326 -0.4454
11099TIP3    H154712   2.994   3.146   0.794 -0.4839  1.0029  0.0887
11099TIP3    H254713   3.013   3.186   0.649  0.5311  2.5213  0.6258
11100TIP3   OH254714   1.525   2.941  10.809 -0.5038 -0.7113  0.3837
11100TIP3    H154715   1.496   3.023  10.849  0.4559  0.5068 -1.3284
11100TIP3    H254716   1.452   2.915  10.754  0.6689  1.2038 -2.2290
11101TIP3   OH254717   6.763   1.723   1.977  0.3335  0.2051  0.0928
11101TIP3    H154718   6.776   1.684   1.890  0.6585  0.4520  0.0318
11101TIP3    H254719   6.677   1.689   2.005 -0.6281  1.5894 -1.1038
11102TIP3   OH254720   3.064   6.049  17.128 -0.3301 -0.0432 -0.8325
11102TIP3    H154721   3.019   5.975  17.169  1.1001 -1.2601 -1.4057
11102TIP3    H254722   3.127   6.079  17.194 -0.4633  0.2556 -0.8402
11103TIP3   OH254723   4.745   0.878   3.821  0.3449  0.5863 -0.3262
11103TIP3    H154724   4.779   0.805   3.769  1.4541  0.3697  0.6727
11103TIP3    H254725   4.705   0.837   3.897  1.6115  1.0172  0.6044
11104TIP3   OH254726   4.501   4.260  13.866 -0.0554 -0.0238 -0.1450
11104TIP3    H154727   4.473   4.312  13.791  0.7564  0.4634 -0.1052
11104TIP3    H254728   4.497   4.321  13.940 -2.8917 -1.0358  0.6008
11105TIP3   OH254729   5.390   1.719   5.254  0.4833  0.1070  0.3522
11105TIP3    H154730   5.325   1.785   5.279 -0.3144 -0.3049 -0.6111
11105TIP3    H254731   5.338   1.640   5.237  1.2960 -0.3812  0.1417
11106TIP3   OH254732   2.617   1.679   1.220 -0.2214 -0.3513 -0.0755
11106TIP3    H154733   2.531   1.654   1.187 -0.1626 -0.1418 -0.3864
11106TIP3    H254734   2.664   1.712   1.143  0.0646 -0.2709  0.1323
11107TIP3   OH254735   4.544   5.488  11.256 -0.0796  0.0924 -0.6452
11107TIP3    H154736   4.459   5.452  11.280 -0.7718  1.5386 -0.9035
11107TIP3    H254737   4.546   5.484  11.160  0.4817 -0.6705 -0.6126
11108TIP3   OH254738   0.955   2.419  12.970 -0.3920  0.2709  0.0579
11108TIP3    H154739   0.958   2.390  12.879  3.7780  1.9793 -0.4397
11108TIP3    H254740   0.977   2.341  13.021  1.7682  0.3382 -0.7214
11109TIP3   OH254741   2.691   2.757  14.951  0.3373  0.0427 -0.4286
11109TIP3    H154742   2.757   2.790  15.011 -0.7379 -0.5514  1.1364
11109TIP3    H254743   2.611   2.804  14.975 -0.2403 -0.6233 -0.9930
11110TIP3   OH254744   1.854   2.379   1.317 -0.5871 -0.9464 -0.1060
11110TIP3    H154745   1.760   2.363   1.326 -0.7695  0.3857  0.4530
11110TIP3    H254746   1.884   2.312   1.256 -2.0341 -0.9110 -0.8647
11111TIP3   OH254747   5.788   6.228   4.306 -0.7230  0.1462 -0.5991
11111TIP3    H154748   5.801   6.223   4.400  1.4009  1.0505 -0.8220
11111TIP3    H254749   5.711   6.173   4.289 -1.4547  0.4177  1.6998
11112TIP3   OH254750   6.279   5.753  11.259  0.2832 -0.0673 -0.7751
11112TIP3    H154751   6.233   5.761  11.176  1.2409  0.4221 -1.2616
11112TIP3    H254752   6.295   5.843  11.287  0.2335 -0.2283 -0.2069
11113TIP3   OH254753   0.236   0.844  12.058 -0.0286 -0.4089 -0.2442
11113TIP3    H154754   0.152   0.847  12.103 -0.6795 -2.0692 -1.3460
11113TIP3    H254755   0.250   0.752  12.038  2.4317 -0.2615  0.6177
11114TIP3   OH254756   2.147   5.626  13.525 -0.0012 -0.2717 -0.1482
11114TIP3    H154757   2.120   5.607  13.615 -0.5100 -0.6715 -0.3824
11114TIP3    H254758   2.076   5.590  13.471  1.3778 -2.0637 -0.8011
11115TIP3   OH254759   6.495   5.710   3.971  0.4276  0.3344  0.1793
11115TIP3    H154760   6.448   5.704   3.887  1.1538  0.0439 -0.2144
11115TIP3    H254761   6.470   5.630   4.018  0.0320  0.4890  0.2348
11116TIP3   OH254762   4.522   6.319   3.868  0.5445 -0.5061  0.6996
11116TIP3    H154763   4.477   6.248   3.822  2.5292 -0.6985 -1.0148
11116TIP3    H254764   4.451   6.377   3.898 -0.8980 -1.4145 -0.8809
11117TIP3   OH254765   5.903   0.693  16.465  0.7775 -0.4768  0.3521
11117TIP3    H154766   5.946   0.652  16.390 -0.5300  0.0218 -0.6856
11117TIP3    H254767   5.819   0.646  16.473  1.3381 -1.1962  2.1200
11118TIP3   OH254768   1.729   1.608   2.274  0.1624 -0.0431  0.1455
11118TIP3    H154769   1.680   1.616   2.356  1.3904 -0.2616  0.8983
11118TIP3    H254770   1.738   1.514   2.260 -1.8184 -0.0623 -1.3255
11119TIP3   OH254771   2.441   1.031  15.483  0.4538 -0.3356  0.4482
11119TIP3    H154772   2.459   1.125  15.484 -1.3555  0.0258  0.6691
11119TIP3    H254773   2.409   1.012  15.571  2.3627 -1.4937  0.9202
11120TIP3   OH254774   4.848   6.469   1.382 -0.3366  0.2029  0.4277
11120TIP3    H154775   4.917   6.408   1.410 -0.4799  0.2590  0.9211
11120TIP3    H254776   4.792   6.418   1.324 -0.9346 -0.3849  1.5063
11121TIP3   OH254777   4.815   5.037   5.045  0.1780 -0.0392  1.0375
11121TIP3    H154778   4.729   5.044   5.005  1.1370 -0.6960 -1.2273
11121TIP3    H254779   4.803   4.976   5.118 -0.9504 -1.4102 -0.2613
11122TIP3   OH254780   2.180   1.296  11.124  0.1135  0.2255  0.0939
11122TIP3    H154781   2.250   1.317  11.186  1.3257 -1.6919 -0.5793
11122TIP3    H254782   2.225   1.269  11.044 -1.4315  1.9258 -1.4093
11123TIP3   OH254783   4.686   2.510   1.538 -0.0349  0.0614 -0.3892
11123TIP3    H154784   4.658   2.481   1.625  0.0492 -0.0569 -0.4011
11123TIP3    H254785   4.626   2.581   1.516  0.1612  0.3212 -0.0889
11124TIP3   OH254786   1.128   2.840   2.298 -0.2443  0.2348  0.1204
11124TIP3    H154787   1.035   2.827   2.315 -0.1896  0.1120  0.3253
11124TIP3    H254788   1.133   2.926   2.255 -0.7243 -0.8862 -2.2730
11125TIP3   OH254789   2.021   5.445  15.883  0.1087 -0.0603 -0.5711
11125TIP3    H154790   2.070   5.406  15.955  2.7463  1.7414 -1.3001
11125TIP3    H254791   2.001   5.534  15.912 -2.2277 -0.5504 -0.5579
11126TIP3   OH254792   3.782   4.480  11.584  0.4268  0.1970  0.0196
11126TIP3    H154793   3.816   4.489  11.494 -0.0500 -1.6556 -0.3746
11126TIP3    H254794   3.860   4.467  11.638  0.6246 -0.1224 -0.3388
11127TIP3   OH254795   0.869   0.391   3.442 -0.1774 -0.0090  0.0700
11127TIP3    H154796   0.915   0.320   3.487  0.3957 -0.7219 -1.6171
11127TIP3    H254797   0.935   0.458   3.429 -0.1166 -0.1783 -0.5050
11128TIP3   OH254798   6.323   2.674   3.067  0.0385  0.2287 -0.6354
11128TIP3    H154799   6.406   2.708   3.100  0.4742 -0.4191 -1.0315
11128TIP3    H254800   6.305   2.598   3.122 -0.6088  0.7263 -0.1549
11129TIP3   OH254801   5.756   1.267  12.544 -0.0611  0.5226 -0.4224
11129TIP3    H154802   5.833   1.324  12.546 -0.2007  0.7018 -0.2120
11129TIP3    H254803   5.779   1.194  12.600 -0.6064  1.2876  0.8118
11130TIP3   OH254804   3.870   3.849  15.254  0.4138  0.2510 -0.2448
11130TIP3    H154805   3.871   3.802  15.170 -1.5683  0.7173 -0.5587
11130TIP3    H254806   3.875   3.941  15.231 -1.7563  0.4678  0.0309
11131TIP3   OH254807   6.664   1.903   3.576 -0.1353 -0.3542 -0.2267
11131TIP3    H154808   6.654   1.993   3.547 -0.9152  0.1957  1.6861
11131TIP3    H254809   6.759   1.888   3.575 -0.0828  0.0221 -1.8612
11132TIP3   OH254810   5.838   5.739  15.034  0.0610 -0.1346  0.4437
11132TIP3    H154811   5.785   5.660  15.048 -1.9940  1.0765 -0.2569
11132TIP3    H254812   5.848   5.745  14.939 -0.2422  0.7216  0.4591
11133TIP3   OH254813   4.170   3.500   2.747 -0.6334 -0.8564 -0.0026
11133TIP3    H154814   4.105   3.485   2.815 -1.6706  1.3232 -0.4570
11133TIP3    H254815   4.129   3.467   2.667 -0.2927 -1.4504  0.0660
11134TIP3   OH254816   1.660   1.078   0.865  0.2907 -0.1439 -0.2413
11134TIP3    H154817   1.677   1.141   0.935  0.9193  1.7241 -1.9864
11134TIP3    H254818   1.566   1.062   0.869 -0.0534  1.7097 -0.3637
11135TIP3   OH254819   6.525   5.664  16.843 -0.0586 -0.1010  0.4688
11135TIP3    H154820   6.526   5.734  16.778  0.2491 -0.0971  0.4817
11135TIP3    H254821   6.571   5.701  16.919  0.3716 -0.4286  0.3634
11136TIP3   OH254822   0.832   6.286  17.176  0.0736 -0.1744  0.0613
11136TIP3    H154823   0.911   6.239  17.202 -0.3007 -0.2516  1.0988
11136TIP3    H254824   0.761   6.236  17.216 -0.1495  3.0205  3.9787
11137TIP3   OH254825   4.900   5.297   4.487  0.3439 -0.4226  0.3107
11137TIP3    H154826   4.869   5.208   4.503 -0.6637 -0.3480 -1.1177
11137TIP3    H254827   4.988   5.285   4.450  1.0011 -0.7307  1.9294
11138TIP3   OH254828   0.767   3.938   1.959  0.1570 -0.3184 -0.2084
11138TIP3    H154829   0.781   4.022   2.002  2.5389 -0.9891  0.3760
11138TIP3    H254830   0.683   3.908   1.994  0.6823  0.4683  1.8217
11139TIP3   OH254831   0.358   4.284   1.506  0.3764  0.2864  0.7919
11139TIP3    H154832   0.402   4.227   1.570  0.4617 -1.5960 -0.8991
11139TIP3    H254833   0.416   4.360   1.499  3.2597 -1.9841 -1.1077
11140TIP3   OH254834   4.268   1.153  11.824 -0.7130 -0.4943 -0.2204
11140TIP3    H154835   4.257   1.095  11.749 -0.0588  0.8914 -1.4224
11140TIP3    H254836   4.325   1.106  11.884  0.7516 -0.6263 -1.6970
11141TIP3   OH254837   5.165   0.155   1.617  0.2226  0.0352 -0.1797
11141TIP3    H154838   5.201   0.243   1.603 -2.3197  0.9464 -1.3927
11141TIP3    H254839   5.196   0.129   1.704  0.6984  2.2926  0.3542
11142TIP3   OH254840   2.097   3.413  12.379  0.4044  0.0636  0.4374
11142TIP3    H154841   2.055   3.472  12.317 -1.5830 -2.6781 -0.9341
11142TIP3    H254842   2.125   3.470  12.451 -0.8801  2.7329 -1.0972
11143TIP3   OH254843   3.748   5.820   2.718  0.0231 -0.5326 -0.1461
11143TIP3    H154844   3.775   5.775   2.638  1.0559  1.3204 -0.8626
11143TIP3    H254845   3.792   5.773   2.789  1.2783 -0.4982 -0.9015
11144TIP3   OH254846   4.475   3.633  11.252 -0.4157  0.1236 -0.5525
11144TIP3    H154847   4.502   3.558  11.305  0.1003  1.4811  1.1581
11144TIP3    H254848   4.556   3.678  11.231 -0.8080  0.7344 -0.7579
11145TIP3   OH254849   3.597   6.464  11.168 -0.3786 -0.7375  0.1896
11145TIP3    H154850   3.678   6.514  11.155 -0.5492 -0.5000  0.0477
11145TIP3    H254851   3.550   6.471  11.085 -0.9938 -0.0734  0.5948
11146TIP3   OH254852   0.767   6.529   5.071  0.1947 -0.2726 -0.4193
11146TIP3    H154853   0.676   6.557   5.062  0.6255  1.3182 -0.0017
11146TIP3    H254854   0.794   6.506   4.983 -0.6908 -1.0197 -0.5056
11147TIP3   OH254855   2.702   4.271   3.573  0.2485 -0.2086  0.4155
11147TIP3    H154856   2.627   4.257   3.630  0.4491 -0.3333  0.6485
11147TIP3    H254857   2.666   4.313   3.494 -0.1216 -0.6377  0.3605
11148TIP3   OH254858   5.834   1.905   5.835 -0.1990  0.1397 -0.0562
11148TIP3    H154859   5.748   1.947   5.840 -1.2093 -1.8483 -0.2036
11148TIP3    H254860   5.866   1.903   5.925  0.3087  2.1068 -0.1816
11149TIP3   OH254861   5.877   5.644  15.478 -0.2290  0.5640  0.7274
11149TIP3    H154862   5.906   5.707  15.411 -1.1796 -0.7831 -1.0097
11149TIP3    H254863   5.871   5.561  15.431 -1.5167 -0.2947  2.3729
11150TIP3   OH254864   4.507   2.970  14.272 -0.3096 -0.2575 -0.1459
11150TIP3    H154865   4.482   3.058  14.301 -0.6176 -0.4262  0.1123
11150TIP3    H254866   4.444   2.912  14.316  1.1664 -0.7810  1.2941
11151TIP3   OH254867   2.259   3.684  11.910 -0.6367 -0.3085  0.1895
11151TIP3    H154868   2.215   3.653  11.831 -1.4298 -0.2743  0.6109
11151TIP3    H254869   2.287   3.773  11.888 -1.3079 -0.1120  0.1183
11152TIP3   OH254870   3.000   5.545  14.734 -0.5645  0.4339  0.1814
11152TIP3    H154871   2.984   5.451  14.733 -0.1665  0.3625  0.4115
11152TIP3    H254872   3.094   5.553  14.747 -0.9355  0.8940  3.0030
11153TIP3   OH254873   3.328   0.340  12.740  0.1812 -0.5067 -0.6120
11153TIP3    H154874   3.343   0.356  12.833 -0.9290  0.4413 -0.5869
11153TIP3    H254875   3.265   0.268  12.738  0.0240 -0.3700 -0.6207
11154TIP3   OH254876   0.443   2.883   1.379 -0.1568  0.0885 -0.3308
11154TIP3    H154877   0.408   2.797   1.398  1.5038 -0.3010  1.1445
11154TIP3    H254878   0.467   2.880   1.286 -3.2752  0.1556 -1.1808
11155TIP3   OH254879   5.185   2.137  16.185  0.0639  0.0250  0.5595
11155TIP3    H154880   5.264   2.084  16.177 -1.2982 -2.1744  1.2590
11155TIP3    H254881   5.127   2.105  16.115 -0.7482  0.6288  0.9459
11156TIP3   OH254882   5.362   2.325   5.009  0.2696 -0.0661 -0.6344
11156TIP3    H154883   5.377   2.241   4.966  0.6636 -0.1140 -0.4093
11156TIP3    H254884   5.324   2.381   4.941  1.2678 -0.0196 -1.1593
11157TIP3   OH254885   0.284   5.997  13.494  0.1603 -0.3042  0.1107
11157TIP3    H154886   0.346   6.046  13.547  1.1675 -2.6576  1.1556
11157TIP3    H254887   0.339   5.944  13.435 -0.8800 -0.7247 -0.4961
11158TIP3   OH254888   0.410   6.581  13.368  0.2101 -0.1863  0.3035
11158TIP3    H154889   0.441   6.497  13.403  0.0039 -0.5784 -0.4476
11158TIP3    H254890   0.429   6.576  13.274 -1.7524 -0.2601 -0.0931
11159TIP3   OH254891   2.814   2.251   3.584  0.5984  0.1503  0.3462
11159TIP3    H154892   2.825   2.157   3.578 -1.1998 -0.0228 -0.3302
11159TIP3    H254893   2.848   2.285   3.501 -2.7331 -0.2818 -1.2341
11160TIP3   OH254894   3.335   0.916  14.017  0.6079  0.1808  0.4220
11160TIP3    H154895   3.412   0.878  13.975  1.4021  2.1632  0.0064
11160TIP3    H254896   3.261   0.889  13.962  1.1757 -0.5172 -0.0029
11161TIP3   OH254897   5.347   2.876  13.794  0.0507  0.1273  0.1292
11161TIP3    H154898   5.310   2.905  13.877  3.1050  0.0822  1.5859
11161TIP3    H254899   5.374   2.785  13.810  2.1303  0.6233 -0.3499
11162TIP3   OH254900   3.042   5.009  12.478 -0.1314  0.8445 -0.3572
11162TIP3    H154901   3.101   5.084  12.486  0.4222  0.4255 -0.4629
11162TIP3    H254902   3.008   4.995  12.566  1.0423  0.1995  0.0151
11163TIP3   OH254903   6.078   5.017  17.105 -0.3896  0.8555  0.2208
11163TIP3    H154904   6.143   5.058  17.163  0.1128  0.8928 -0.3622
11163TIP3    H254905   6.011   5.084  17.095 -0.1393  1.1094  0.2081
11164TIP3   OH254906   2.588   4.138   3.116  0.4930 -0.4770 -0.4185
11164TIP3    H154907   2.672   4.094   3.099 -0.1738 -2.5608  1.4314
11164TIP3    H254908   2.539   4.076   3.171 -0.7863  2.3023  1.6872
11165TIP3   OH254909   2.657   0.348   2.424  0.2204 -0.3038 -0.1191
11165TIP3    H154910   2.715   0.421   2.448  0.0498  0.0591 -0.7948
11165TIP3    H254911   2.649   0.354   2.329 -1.3847 -0.0129  0.0258
11166TIP3   OH254912   6.436   5.347  13.921 -0.1159  0.2618  0.1748
11166TIP3    H154913   6.342   5.337  13.909 -0.0356  0.0928 -0.3455
11166TIP3    H254914   6.446   5.426  13.974 -0.7257 -1.7988  3.5137
11167TIP3   OH254915   6.103   2.583  12.187 -0.4886  0.3188 -0.1187
11167TIP3    H154916   6.102   2.579  12.283 -1.2042  1.9667 -0.0424
11167TIP3    H254917   6.114   2.676  12.167  0.9000 -0.1369 -1.6507
11168TIP3   OH254918   0.272   0.612   5.901 -0.3610  0.3665  0.0889
11168TIP3    H154919   0.274   0.560   5.821 -0.4921 -1.3155  1.1519
11168TIP3    H254920   0.364   0.627   5.922 -0.2233 -1.8257  1.2565
11169TIP3   OH254921   0.267   0.894  11.581  0.2147 -0.0978 -0.3108
11169TIP3    H154922   0.326   0.846  11.523  0.3608  1.4203 -1.4641
11169TIP3    H254923   0.322   0.925  11.652 -0.1648 -2.8712  1.2321
11170TIP3   OH254924   3.587   3.348  16.968 -0.0595 -0.1288  0.2511
11170TIP3    H154925   3.528   3.418  16.941 -0.5111 -0.3778  0.5838
11170TIP3    H254926   3.541   3.304  17.040  0.3640 -0.5617  0.2595
11171TIP3   OH254927   6.749   6.297  11.497 -0.2669  0.6701 -0.1398
11171TIP3    H154928   6.741   6.234  11.569 -0.4355  1.7209  0.7747
11171TIP3    H254929   6.692   6.370  11.522 -1.0286  0.6559 -1.7698
11172TIP3   OH254930   2.302   2.411   1.399  0.1128 -0.2279  0.0801
11172TIP3    H154931   2.293   2.407   1.304 -2.0603  1.3154  0.1936
11172TIP3    H254932   2.352   2.491   1.415  2.4995 -1.6830  0.1602
11173TIP3   OH254933   0.751   4.508   4.235  0.3384 -0.0079  0.4443
11173TIP3    H154934   0.809   4.552   4.297  0.2635  0.0953  0.4396
11173TIP3    H254935   0.676   4.567   4.226  0.1059 -0.2703  0.6593
11174TIP3   OH254936   4.461   2.218   1.447 -0.2497  0.0084  0.2049
11174TIP3    H154937   4.535   2.174   1.489 -0.2781 -0.0692  0.1728
11174TIP3    H254938   4.389   2.155   1.452 -0.5264  0.3779  0.9200
11175TIP3   OH254939   6.094   4.465  16.914 -0.5669  0.0002  0.6821
11175TIP3    H154940   6.087   4.515  16.833 -2.1196 -1.3219 -0.0037
11175TIP3    H254941   6.005   4.438  16.934  0.1061 -1.5847  1.6333
11176TIP3   OH254942   5.752   1.546  14.058  0.1287  0.1221 -0.4009
11176TIP3    H154943   5.722   1.631  14.026 -0.1581  0.3855  0.5617
11176TIP3    H254944   5.673   1.506  14.096  0.6830  0.2346  0.8819
11177TIP3   OH254945   2.417   4.612  12.929 -0.1680  0.1920  0.5523
11177TIP3    H154946   2.385   4.627  12.840  0.1084 -1.5606  0.1514
11177TIP3    H254947   2.505   4.577  12.918  0.8143  2.2537  1.5965
11178TIP3   OH254948   2.973   1.962  13.988  0.5086  0.2681 -0.2433
11178TIP3    H154949   2.944   1.953  13.897  2.4466  0.3292 -0.8853
11178TIP3    H254950   2.981   2.056  14.002  1.3465  0.2181 -0.3791
11179TIP3   OH254951   5.886   2.515  15.296  0.1135 -0.2779  0.1657
11179TIP3    H154952   5.836   2.525  15.215  0.6075  0.3537 -0.0715
11179TIP3    H254953   5.828   2.546  15.365 -0.0726 -0.1975 -0.0268
11180TIP3   OH254954   6.103   0.888   3.662  0.2432  0.0450 -0.3823
11180TIP3    H154955   6.139   0.976   3.675  0.5178 -0.1784  0.4048
11180TIP3    H254956   6.176   0.836   3.629  0.2475 -0.0388 -0.2420
11181TIP3   OH254957   3.615   5.803  11.320 -0.3790  0.4038  0.0773
11181TIP3    H154958   3.626   5.787  11.413 -0.2757  2.0766  0.3623
11181TIP3    H254959   3.675   5.742  11.277 -2.7636 -2.6857  0.9517
11182TIP3   OH254960   0.206   0.481   0.635  0.0813 -0.3985 -0.1156
11182TIP3    H154961   0.227   0.389   0.655 -0.0378 -0.4043 -0.0122
11182TIP3    H254962   0.290   0.526   0.638  0.1795 -0.5622 -0.4803
11183TIP3   OH254963   0.053   4.795  14.149 -0.3432  0.3151  0.1918
11183TIP3    H154964   0.027   4.877  14.108  3.5107  2.7310  2.2754
11183TIP3    H254965  -0.008   4.785  14.222  0.4685  2.5287  1.2277
11184TIP3   OH254966   1.467   5.906  14.625  0.0846  0.4073 -0.3816
11184TIP3    H154967   1.515   5.840  14.575  1.0213  0.2489  0.6958
11184TIP3    H254968   1.515   5.912  14.708 -0.0420  2.3832 -0.4325
11185TIP3   OH254969   5.981   0.741   0.697  0.4157  0.1172  0.0405
11185TIP3    H154970   5.979   0.827   0.655 -1.2089  0.1042  0.0511
11185TIP3    H254971   6.061   0.740   0.748  1.3736  0.9313 -1.4275
11186TIP3   OH254972   2.951   4.613  14.948 -0.2143 -0.6484 -0.3690
11186TIP3    H154973   3.014   4.542  14.944  1.8848  1.1491 -0.0691
11186TIP3    H254974   2.910   4.614  14.861  2.0241 -0.2106 -1.4605
11187TIP3   OH254975   5.712   2.300  13.065 -0.1000  0.4459 -0.1243
11187TIP3    H154976   5.757   2.278  12.984 -0.6823  1.0154 -0.6060
11187TIP3    H254977   5.782   2.327  13.125  0.3672 -0.3605 -0.3062
11188TIP3   OH254978   0.227   0.426   3.928  0.2554 -0.4799  0.0693
11188TIP3    H154979   0.162   0.413   3.997 -0.0098  0.7218  0.0593
11188TIP3    H254980   0.268   0.341   3.917 -1.7307 -1.4052 -0.3224
11189TIP3   OH254981   6.498   1.471  15.951 -0.1879  1.1510 -0.1929
11189TIP3    H154982   6.462   1.455  15.864 -0.7465  1.1888  0.0253
11189TIP3    H254983   6.494   1.566  15.962 -1.3804  1.0510  0.3905
11190TIP3   OH254984   6.765   0.641  14.331  0.3742  0.5017 -0.0381
11190TIP3    H154985   6.741   0.683  14.414  1.7431 -0.7397  1.0119
11190TIP3    H254986   6.814   0.708  14.284  2.1527  0.2791  1.4406
11191TIP3   OH254987   5.757   5.343   1.082 -0.1161  0.5624 -0.3316
11191TIP3    H154988   5.782   5.366   0.993  0.4678  0.1917 -0.2651
11191TIP3    H254989   5.754   5.247   1.083 -1.0403  0.5957 -0.2042
11192TIP3   OH254990   6.005   0.530   4.483  0.2699 -0.1564  0.0547
11192TIP3    H154991   5.978   0.460   4.543 -0.1018  0.2737  0.3934
11192TIP3    H254992   5.946   0.520   4.408  0.3881 -0.3708 -0.0094
11193TIP3   OH254993   0.526   1.594   1.172  0.5665 -0.5820 -0.0078
11193TIP3    H154994   0.441   1.561   1.145  0.1415  0.1326  0.4366
11193TIP3    H254995   0.522   1.688   1.154  0.9039 -0.3844  0.9049
11194TIP3   OH254996   3.633   0.396   2.358 -0.2430 -0.0406 -0.2988
11194TIP3    H154997   3.713   0.376   2.407 -0.1161 -2.0606 -1.2636
11194TIP3    H254998   3.661   0.400   2.267 -1.1570 -0.3513 -0.6036
11195TIP3   OH254999   0.284   3.654   1.490 -0.2270  0.2395 -0.0156
11195TIP3    H155000   0.306   3.737   1.448  1.5269  0.4365  1.2326
11195TIP3    H255001   0.364   3.601   1.481 -1.3349 -1.3435 -0.8322
11196TIP3   OH255002   2.950   0.961   0.456  0.2754  0.1852  0.2627
11196TIP3    H155003   2.972   0.874   0.423  0.8377  0.2999  0.3316
11196TIP3    H255004   2.856   0.970   0.438  0.4492  0.0180 -0.7604
11197TIP3   OH255005   6.585   1.275  16.153  0.0139 -0.5465 -0.3140
11197TIP3    H155006   6.533   1.308  16.079  2.2138  0.3140 -1.5294
11197TIP3    H255007   6.563   1.332  16.226  0.3380  0.7683 -1.2148
11198TIP3   OH255008   2.506   2.034   5.240 -0.4607  0.5728  0.2151
11198TIP3    H155009   2.545   2.119   5.221 -0.1713  0.8842  2.1552
11198TIP3    H255010   2.469   2.043   5.327 -3.5592 -0.1995 -0.9456
11199TIP3   OH255011   2.991   3.806   3.799 -0.2193  0.0844  0.3801
11199TIP3    H155012   2.905   3.814   3.840 -0.6072 -2.4828  0.1719
11199TIP3    H255013   2.986   3.862   3.721 -1.2044  1.0591  1.1334
11200TIP3   OH255014   3.360   0.920   4.696  0.3103  0.2906  0.0054
11200TIP3    H155015   3.330   0.915   4.605 -0.4647  1.7770  0.1596
11200TIP3    H255016   3.454   0.903   4.692 -0.0252 -1.4145 -0.8572
11201TIP3   OH255017   1.638   4.244  15.401  0.2807  0.2837 -0.3285
11201TIP3    H155018   1.577   4.302  15.356  0.3243 -0.3644 -1.2446
11201TIP3    H255019   1.617   4.253  15.493  0.4643  1.9628 -0.4325
11202TIP3   OH255020   3.879   4.149  11.852  0.5190 -0.2069 -0.5986
11202TIP3    H155021   3.884   4.054  11.846  0.7496 -0.1176 -2.0662
11202TIP3    H255022   3.803   4.172  11.798 -0.2765  0.3635  0.7255
11203TIP3   OH255023   3.637   2.248  13.312  0.3016  0.9334  0.3223
11203TIP3    H155024   3.561   2.306  13.317 -0.0780  0.4426  0.3708
11203TIP3    H255025   3.612   2.182  13.247  0.9713  1.1754 -0.1796
11204TIP3   OH255026   0.268   1.252   3.341 -0.3170  0.2846  0.1769
11204TIP3    H155027   0.255   1.209   3.257  0.5501  0.8626 -0.2619
11204TIP3    H255028   0.309   1.336   3.319 -0.0032  0.4038  1.1826
11205TIP3   OH255029   1.063   5.592  14.658  0.0635  0.2920  0.2023
11205TIP3    H155030   1.023   5.521  14.709 -1.4716  2.0367  1.5120
11205TIP3    H255031   1.146   5.609  14.702  0.1322 -0.2517  0.2839
11206TIP3   OH255032   4.505   1.726   2.094  0.3522  0.1016  0.0828
11206TIP3    H155033   4.432   1.689   2.144  0.9563 -1.7176 -0.3630
11206TIP3    H255034   4.473   1.730   2.004 -0.4415  2.6212  0.4253
11207TIP3   OH255035   5.354   1.045   4.577  0.2563 -0.5591  0.1692
11207TIP3    H155036   5.300   1.089   4.510  1.1997  0.1917 -0.1077
11207TIP3    H255037   5.426   1.006   4.528  0.9597  0.0044  0.7397
11208TIP3   OH255038   4.577   3.737   2.280  0.0653  0.7440 -0.1741
11208TIP3    H155039   4.568   3.648   2.314  1.4030  0.6894  0.0556
11208TIP3    H255040   4.496   3.780   2.306 -0.3459 -0.2418  0.2199
11209TIP3   OH255041   3.263   5.492  16.429 -0.9739 -0.1126  0.5878
11209TIP3    H155042   3.350   5.451  16.426 -0.9590 -0.0674  0.4081
11209TIP3    H255043   3.202   5.421  16.408 -0.7271  0.7069 -3.4336
11210TIP3   OH255044   2.860   4.870  14.976 -0.6252 -0.1959  0.1276
11210TIP3    H155045   2.893   4.780  14.973  2.5416  0.9387 -0.6593
11210TIP3    H255046   2.871   4.896  15.068 -1.1797 -0.4769  0.2741
11211TIP3   OH255047   0.840   0.921  14.258  0.5165  0.2383 -0.1846
11211TIP3    H155048   0.884   0.935  14.342  0.7708  0.5570 -0.3671
11211TIP3    H255049   0.797   1.005  14.240  0.0350  0.0022 -0.1220
11212TIP3   OH255050   4.126   2.745  11.233  0.4479 -0.0200 -0.4495
11212TIP3    H155051   4.159   2.767  11.320  0.2954 -1.6191  0.0323
11212TIP3    H255052   4.098   2.829  11.196  0.0887  0.6168  1.2201
11213TIP3   OH255053   2.098   0.037  15.353 -0.3447  0.1429 -0.1226
11213TIP3    H155054   2.023   0.093  15.375 -0.0858  1.2615 -2.0193
11213TIP3    H255055   2.174   0.093  15.365  0.3014 -1.2542  2.6451
11214TIP3   OH255056   6.331   3.903   2.425 -0.2659 -0.7589 -0.1837
11214TIP3    H155057   6.309   3.866   2.510  0.3635  0.2091  0.4128
11214TIP3    H255058   6.427   3.900   2.421 -0.2493 -0.0442 -0.5072
11215TIP3   OH255059   5.381   0.718   5.532  0.2618  0.2752  0.6085
11215TIP3    H155060   5.292   0.719   5.497  0.7157 -1.7653 -0.7158
11215TIP3    H255061   5.436   0.699   5.456  1.8737  1.8946  1.3421
11216TIP3   OH255062   2.920   4.547  11.543 -0.3338 -0.3380 -0.2344
11216TIP3    H155063   2.932   4.463  11.500  1.7852  0.5345 -1.3803
11216TIP3    H255064   2.938   4.529  11.636  0.8895 -0.9808 -0.5902
11217TIP3   OH255065   3.740   3.838  15.509 -0.0902  0.4370  0.2853
11217TIP3    H155066   3.776   3.820  15.422 -0.5095  0.3011  0.1392
11217TIP3    H255067   3.736   3.933  15.514  1.3733  0.4888  0.7515
11218TIP3   OH255068   4.738   6.620   5.602  0.0569 -0.0315 -0.0900
11218TIP3    H155069   4.769   6.701   5.560  0.3259 -0.5262 -0.8433
11218TIP3    H255070   4.642   6.627   5.599  0.0655 -0.3714 -1.3940
11219TIP3   OH255071   1.588   6.677   4.978 -0.1851 -0.0162 -0.1723
11219TIP3    H155072   1.660   6.734   4.952  1.7274 -1.1161  2.5383
11219TIP3    H255073   1.533   6.731   5.034  0.1052 -0.0036  0.1027
11220TIP3   OH255074   0.395   3.829   2.620  0.7622  0.2461  0.3663
11220TIP3    H155075   0.330   3.881   2.667  1.3519  2.3849 -1.1231
11220TIP3    H255076   0.461   3.892   2.592  1.8457 -1.4134 -0.9093
11221TIP3   OH255077   5.907   4.283  15.011 -0.4096  0.0931  0.6380
11221TIP3    H155078   5.847   4.315  15.079 -1.3188  1.2072 -0.6798
11221TIP3    H255079   5.974   4.351  15.004 -1.0556  0.6117 -0.5228
11222TIP3   OH255080   6.042   3.122   3.969 -0.1249  0.3445 -0.1975
11222TIP3    H155081   6.107   3.153   3.905 -0.5438  0.3968 -0.5992
11222TIP3    H255082   6.088   3.053   4.017  0.5548  1.0610  0.1878
11223TIP3   OH255083   5.695   5.041   3.757  0.2773  0.2662  0.0924
11223TIP3    H155084   5.638   4.965   3.764 -0.0984  0.6173  0.8618
11223TIP3    H255085   5.700   5.059   3.663  0.9648 -1.1533 -0.1551
11224TIP3   OH255086   4.550   3.032   1.673 -0.4879  0.4783 -0.2363
11224TIP3    H155087   4.595   3.059   1.593 -0.8847 -0.0344 -0.6374
11224TIP3    H255088   4.498   2.956   1.647 -2.0904  1.4394  0.0698
11225TIP3   OH255089   3.945   6.029   3.745 -0.3688 -0.0976 -0.0651
11225TIP3    H155090   3.969   6.031   3.838  0.1890 -1.6100 -0.1706
11225TIP3    H255091   3.860   5.984   3.743 -0.5185  0.1882 -0.2689
11226TIP3   OH255092   3.599   1.497   5.087  0.2296  0.4005  0.0265
11226TIP3    H155093   3.651   1.539   5.155 -0.7417  0.9578  0.4354
11226TIP3    H255094   3.585   1.565   5.021 -1.1884  0.6995  0.6039
11227TIP3   OH255095   3.163   1.846  16.434 -0.3539  0.1022  0.6485
11227TIP3    H155096   3.151   1.886  16.521 -1.6601 -0.3191  0.6823
11227TIP3    H255097   3.107   1.769  16.436  0.9976 -0.9045  0.0494
11228TIP3   OH255098   1.860   0.344   4.736 -0.4456  0.3339  0.2176
11228TIP3    H155099   1.846   0.428   4.780  1.0423  0.5729  0.2845
11228TIP3    H255100   1.773   0.305   4.728 -1.2627  2.2847 -0.6371
11229TIP3   OH255101   4.525   3.465   2.331  0.5770  0.1066 -0.8209
11229TIP3    H155102   4.435   3.432   2.326 -0.8214  3.2489  1.6180
11229TIP3    H255103   4.578   3.388   2.352 -1.9792 -1.2779  0.7298
11230TIP3   OH255104   2.111   5.837   5.581  0.0054  0.3591 -0.0148
11230TIP3    H155105   2.176   5.773   5.551 -0.5021 -0.4194  0.5083
11230TIP3    H255106   2.027   5.798   5.558 -0.3808 -0.0279  1.9328
11231TIP3   OH255107   5.796   0.034  15.830  0.2628  0.4524 -0.1797
11231TIP3    H155108   5.778  -0.011  15.747  0.7432 -0.9144  0.4481
11231TIP3    H255109   5.719   0.016  15.884  0.6594  0.0003  0.2354
11232TIP3   OH255110   4.697   4.499   5.211  0.0990  0.5226 -0.4887
11232TIP3    H155111   4.715   4.406   5.227  1.0821  0.6091 -1.0469
11232TIP3    H255112   4.622   4.499   5.152  0.6271  0.0568 -1.1729
11233TIP3   OH255113   3.982   5.462   1.892  0.0217 -0.0856 -0.6499
11233TIP3    H155114   3.970   5.495   1.981  1.8207 -0.2882 -0.3189
11233TIP3    H255115   4.022   5.534   1.844  0.4712 -0.4984 -0.8995
11234TIP3   OH255116   2.631   3.245  16.492  0.1962  0.2845  0.1021
11234TIP3    H155117   2.707   3.237  16.549 -0.6081  0.2042  1.1642
11234TIP3    H255118   2.642   3.329  16.449  0.9886  0.1830  0.1087
11235TIP3   OH255119   3.718   4.879  14.933 -0.0145 -0.5516 -0.1151
11235TIP3    H155120   3.634   4.833  14.925 -0.1053 -0.6712  1.5188
11235TIP3    H255121   3.781   4.812  14.956  0.1433 -0.1313  0.7016
11236TIP3   OH255122   1.363   1.606  13.638  0.3689  0.0806 -0.6048
11236TIP3    H155123   1.330   1.547  13.706  0.8956 -0.8370 -1.1340
11236TIP3    H255124   1.413   1.672  13.686 -1.4445  0.9735  0.1242
11237TIP3   OH255125   2.468   6.560   4.467 -0.0471  0.3325 -0.6425
11237TIP3    H155126   2.539   6.503   4.437 -0.7463 -1.1034  0.3347
11237TIP3    H255127   2.507   6.646   4.476  1.5368 -0.4229 -0.2341
11238TIP3   OH255128   0.450   4.263   4.147 -0.5733  0.2835  0.2829
11238TIP3    H155129   0.418   4.174   4.135 -1.5384  0.2278  2.9847
11238TIP3    H255130   0.386   4.319   4.104 -0.6157 -0.2501 -0.3403
11239TIP3   OH255131   0.692   2.195  10.913 -0.1415  0.1443  0.1052
11239TIP3    H155132   0.603   2.228  10.916  0.0991  0.7744  0.4256
11239TIP3    H255133   0.702   2.161  10.824 -1.8711 -3.3084  1.1364
11240TIP3   OH255134   0.105   2.246  14.962 -0.0515  0.4013  0.3120
11240TIP3    H155135   0.188   2.269  15.004  0.2715 -0.0570 -0.0723
11240TIP3    H255136   0.127   2.234  14.870  0.0088 -2.5863  0.6846
11241TIP3   OH255137   1.664   5.199  10.604 -0.6129 -0.2824 -0.3224
11241TIP3    H155138   1.621   5.160  10.680 -1.2020 -1.5153 -1.2715
11241TIP3    H255139   1.646   5.293  10.611  0.6778 -0.1640  1.9022
11242TIP3   OH255140   5.528   6.277  17.204  0.4283  0.4477  0.3127
11242TIP3    H155141   5.519   6.230  17.287  1.2787  0.5071  0.4411
11242TIP3    H255142   5.585   6.351  17.225  1.2932  0.0201 -0.5031
11243TIP3   OH255143   1.120   0.863   1.743 -1.2142  0.5683 -0.2813
11243TIP3    H155144   1.159   0.789   1.790  1.8006  0.2254 -3.1304
11243TIP3    H255145   1.081   0.824   1.665 -1.5089  1.7491 -0.7362
11244TIP3   OH255146   4.934   2.691   6.551  0.7170 -0.4147 -0.0704
11244TIP3    H155147   4.878   2.754   6.504  2.3281  0.5694 -0.6956
11244TIP3    H255148   4.900   2.605   6.525  0.0115  0.1638 -1.0941
11245TIP3   OH255149   4.761   4.021   1.996  0.0366 -0.4249 -0.5569
11245TIP3    H155150   4.822   3.989   1.929  0.7108 -0.7831  0.2269
11245TIP3    H255151   4.679   3.977   1.976  0.7779 -2.1504  0.1136
11246TIP3   OH255152   0.207   1.911  14.142 -0.2464 -0.1078 -0.4288
11246TIP3    H155153   0.287   1.960  14.123  0.1034 -1.0339 -1.3893
11246TIP3    H255154   0.148   1.976  14.179  0.8868  0.6241  0.1341
11247TIP3   OH255155   5.947   5.289  14.243  0.1159 -0.0748  0.0887
11247TIP3    H155156   5.928   5.325  14.329  0.9981  0.4923  0.0447
11247TIP3    H255157   5.947   5.365  14.184 -1.2805 -0.5439 -0.5639
11248TIP3   OH255158   6.557   1.149   3.238 -0.1593 -0.7227  0.1425
11248TIP3    H155159   6.531   1.088   3.170 -0.4538  0.6026 -0.9626
11248TIP3    H255160   6.486   1.213   3.241  0.6672  0.1919  0.4964
11249TIP3   OH255161   0.342   0.960   3.953 -0.3837 -0.1980 -0.6305
11249TIP3    H155162   0.425   0.989   3.917 -0.7455 -2.6162 -3.5166
11249TIP3    H255163   0.365   0.906   4.029  0.5461  0.8227 -0.1732
11250TIP3   OH255164   1.439   5.154  17.217 -0.0375  0.1532 -0.1021
11250TIP3    H155165   1.404   5.117  17.298 -0.3553  0.8576  0.0848
11250TIP3    H255166   1.507   5.215  17.246  1.0538 -0.8733 -0.4427
11251TIP3   OH255167   4.724   5.932   5.024  0.4336 -0.1795  0.2147
11251TIP3    H155168   4.687   6.011   5.064  0.9551 -0.0698  0.4892
11251TIP3    H255169   4.765   5.963   4.943 -2.9433 -0.7955 -1.8499
11252TIP3   OH255170   0.938   4.047  14.225  0.1901  0.0073 -0.1824
11252TIP3    H155171   0.995   4.069  14.299 -0.1966 -2.8787  1.0571
11252TIP3    H255172   0.998   4.026  14.153  0.6779 -0.8411  0.4576
11253TIP3   OH255173   5.755   1.761   4.938 -0.1076 -0.4260 -0.3758
11253TIP3    H155174   5.660   1.768   4.922 -0.4185 -1.1694  1.0170
11253TIP3    H255175   5.772   1.824   5.008  0.4864 -0.0692 -0.8460
11254TIP3   OH255176   6.111   4.442   0.936  0.0752 -0.5733 -0.4628
11254TIP3    H155177   6.034   4.423   0.990 -1.9345  0.9224 -2.6722
11254TIP3    H255178   6.102   4.385   0.860  0.8330 -0.0046 -0.9917
11255TIP3   OH255179   3.902   5.282  16.953  0.5121 -0.1865  0.3191
11255TIP3    H155180   3.861   5.286  17.039  0.2327  1.4174  0.1402
11255TIP3    H255181   3.964   5.209  16.959  1.1123  0.4304  2.1565
11256TIP3   OH255182   4.795   0.230  14.768  0.0993  0.2977  0.5988
11256TIP3    H155183   4.837   0.264  14.689 -0.5533  1.2326  0.6494
11256TIP3    H255184   4.837   0.279  14.839 -0.6947  0.8563  0.6877
11257TIP3   OH255185   6.330   4.428  16.680 -0.1103  0.0194 -0.6658
11257TIP3    H155186   6.328   4.350  16.735  0.1597 -0.1556 -0.9022
11257TIP3    H255187   6.277   4.492  16.727  0.1844 -0.1040 -0.1716
11258TIP3   OH255188   4.572   1.513  12.186  0.3455  0.1083 -0.0323
11258TIP3    H155189   4.604   1.566  12.113  0.6581 -0.4962 -0.3385
11258TIP3    H255190   4.543   1.576  12.251  2.2645  0.6612  0.2863
11259TIP3   OH255191   5.011   0.279  13.789  0.5198  0.5860 -0.4944
11259TIP3    H155192   4.923   0.277  13.827  0.8135  1.2618  0.2462
11259TIP3    H255193   4.997   0.307  13.699 -0.0400  0.5469 -0.4233
11260TIP3   OH255194   2.389   5.531  11.997 -0.1127 -0.3729  0.3008
11260TIP3    H155195   2.391   5.619  11.960 -0.1022 -1.0625 -1.3754
11260TIP3    H255196   2.480   5.502  11.994  0.0752  0.0156  1.9943
11261TIP3   OH255197   2.742   0.885  11.767 -0.1398  0.0303 -0.2954
11261TIP3    H155198   2.757   0.799  11.806 -1.7968  0.0370  0.3776
11261TIP3    H255199   2.730   0.943  11.842  3.6956  1.4132 -0.6392
11262TIP3   OH255200   4.387   6.773  16.071 -0.2521  0.1010  0.3064
11262TIP3    H155201   4.436   6.845  16.032 -1.0661  0.9658  0.8500
11262TIP3    H255202   4.345   6.729  15.997 -1.3794  1.4272  0.1282
11263TIP3   OH255203   4.558   0.556  14.058 -0.1183  1.0462 -0.6836
11263TIP3    H155204   4.557   0.467  14.091 -0.1985  1.8826  1.6811
11263TIP3    H255205   4.465   0.580  14.052 -0.0700  1.9100  1.4621
11264TIP3   OH255206   6.493   3.025  12.938  0.0760 -0.1809 -0.0177
11264TIP3    H155207   6.399   3.016  12.922  0.3388 -0.7922 -1.2038
11264TIP3    H255208   6.523   2.936  12.959  0.4966 -0.0896 -0.2225
11265TIP3   OH255209   1.017   1.842   4.524  0.4523 -0.5286 -0.6326
11265TIP3    H155210   1.034   1.855   4.618 -0.2979  0.8406 -0.6839
11265TIP3    H255211   1.008   1.747   4.515  0.8720 -0.7048  0.6218
11266TIP3   OH255212   2.316   6.081  14.090 -0.5941  0.1362 -0.6970
11266TIP3    H155213   2.233   6.056  14.048  0.1921 -0.3585 -1.9979
11266TIP3    H255214   2.344   6.002  14.136 -0.0075 -0.2363 -1.6703
11267TIP3   OH255215   3.872   4.231  16.841  0.2606  0.1864 -0.1716
11267TIP3    H155216   3.953   4.245  16.793  0.6769  1.4850  0.8742
11267TIP3    H255217   3.883   4.146  16.883  0.3666 -0.4248 -1.4135
11268TIP3   OH255218   3.984   1.598  11.711  0.4314 -0.0972  0.4531
11268TIP3    H155219   4.053   1.577  11.648 -2.9120  0.7840 -3.7970
11268TIP3    H255220   3.938   1.515  11.725  0.6080 -0.1049  0.9785
11269TIP3   OH255221   3.935   5.674  12.660 -0.1396  0.1712 -0.4040
11269TIP3    H155222   3.934   5.745  12.723  1.9073  0.8715 -1.1121
11269TIP3    H255223   3.953   5.596  12.712  0.2267  0.5511  0.0455
11270TIP3   OH255224   1.674   3.806   3.792 -0.1715 -0.3488  0.4955
11270TIP3    H155225   1.691   3.739   3.726  0.4534  2.1992 -2.0143
11270TIP3    H255226   1.579   3.813   3.796 -0.2588 -1.8906  1.3206
11271TIP3   OH255227   2.298   5.853  13.825 -0.9845 -0.8275 -0.4545
11271TIP3    H155228   2.371   5.908  13.854 -2.1915 -0.7733  2.6765
11271TIP3    H255229   2.249   5.908  13.764  0.9705 -0.4828 -1.7367
11272TIP3   OH255230   4.811   6.573   4.147 -0.2273  0.0543  0.4934
11272TIP3    H155231   4.896   6.614   4.130 -0.8203  0.6569 -1.2300
11272TIP3    H255232   4.792   6.525   4.066 -0.8683 -1.2491  1.4111
11273TIP3   OH255233   2.845   3.917   1.272  0.7280  0.1516  0.0492
11273TIP3    H155234   2.823   4.003   1.307 -1.5714  0.2367 -1.4446
11273TIP3    H255235   2.842   3.929   1.177 -3.2535 -2.3318 -0.2530
11274TIP3   OH255236   6.126   4.712   2.760  0.7024  0.2939 -0.5234
11274TIP3    H155237   6.160   4.758   2.683 -0.1615  0.0903 -1.0346
11274TIP3    H255238   6.054   4.659   2.725  0.9052 -0.5041  0.2661
11275TIP3   OH255239   0.142   3.845  12.327 -0.4822  0.3067 -0.1682
11275TIP3    H155240   0.056   3.842  12.369 -0.6760  0.7774 -0.5424
11275TIP3    H255241   0.195   3.783  12.378 -1.1588 -0.3077 -0.2052
11276TIP3   OH255242   0.987   1.847   0.657 -0.4086 -0.7437 -0.8444
11276TIP3    H155243   0.948   1.911   0.598 -0.6600 -0.3492 -0.2565
11276TIP3    H255244   1.052   1.897   0.708 -0.5147 -0.9764 -0.4762
11277TIP3   OH255245   3.129   3.260  15.968 -0.4475  0.3362 -0.2322
11277TIP3    H155246   3.148   3.166  15.974 -1.2172  0.1268 -0.8697
11277TIP3    H255247   3.033   3.265  15.975 -0.5050  0.9612 -1.3078
11278TIP3   OH255248   0.823   5.321   5.774  0.2315  0.5697 -0.0044
11278TIP3    H155249   0.774   5.396   5.808  0.7174  1.0484 -0.3469
11278TIP3    H255250   0.859   5.352   5.691  0.6491  0.0379 -0.0240
11279TIP3   OH255251   4.702   2.967   1.211 -0.0330 -0.0214  0.5905
11279TIP3    H155252   4.719   2.881   1.250  2.1492  0.1265 -0.0064
11279TIP3    H255253   4.702   3.027   1.285  1.8250 -0.0698  0.6483
11280TIP3   OH255254   4.084   3.409  11.624  0.1932  0.2724 -0.1577
11280TIP3    H155255   4.071   3.370  11.538  0.9048  0.1622 -0.2143
11280TIP3    H255256   4.033   3.490  11.621 -0.6603 -0.2640 -0.3047
11281TIP3   OH255257   5.748   3.551   0.098 -0.2279 -0.0999 -0.0398
11281TIP3    H155258   5.809   3.477   0.101  1.5259  1.3274  0.4779
11281TIP3    H255259   5.726   3.567   0.189  1.4813  1.6862  0.0713
11282TIP3   OH255260   2.365   4.094  15.857 -0.0488  0.3395 -0.6939
11282TIP3    H155261   2.351   4.189  15.855 -2.2701  0.0431 -3.4966
11282TIP3    H255262   2.370   4.069  15.764 -0.2056 -2.3624 -0.0211
11283TIP3   OH255263   5.247   4.630   5.375  0.1734  0.1155 -0.3983
11283TIP3    H155264   5.158   4.601   5.356  0.1057 -0.5646  0.9118
11283TIP3    H255265   5.302   4.556   5.348  0.3368  0.5001 -1.1243
11284TIP3   OH255266   3.651   5.113  11.299  0.1663  0.3590  0.6821
11284TIP3    H155267   3.639   5.155  11.214 -0.1876 -1.3292 -0.1176
11284TIP3    H255268   3.705   5.175  11.349  0.3391  1.3805 -0.7482
11285TIP3   OH255269   6.119   0.576  12.213  1.3381 -0.3245 -0.0441
11285TIP3    H155270   6.105   0.590  12.307  0.0647  0.6650 -0.3584
11285TIP3    H255271   6.214   0.570  12.203  1.4051 -2.7588  1.6091
11286TIP3   OH255272   1.133   3.338   5.756 -0.6569 -0.5623  0.2136
11286TIP3    H155273   1.139   3.411   5.818 -0.4721 -0.2092 -0.2143
11286TIP3    H255274   1.210   3.348   5.701 -1.1447 -0.5090 -0.4631
11287TIP3   OH255275   5.854   5.199  12.164 -0.2007  0.2116  0.1267
11287TIP3    H155276   5.775   5.151  12.191  0.1787 -0.5175 -0.0565
11287TIP3    H255277   5.922   5.132  12.159  0.9347  1.1490  2.3007
11288TIP3   OH255278   3.074   0.808   5.746  0.4504 -1.3964 -0.1501
11288TIP3    H155279   2.994   0.775   5.705  0.0977 -0.0667 -0.5513
11288TIP3    H255280   3.122   0.730   5.772 -1.9223 -2.2141  1.9099
11289TIP3   OH255281   6.228   0.669   5.456  0.9122 -0.0931 -0.6368
11289TIP3    H155282   6.163   0.622   5.403  1.3575 -1.8702  0.3268
11289TIP3    H255283   6.183   0.747   5.486 -0.6318 -1.0338 -0.4364
11290TIP3   OH255284   0.059   1.191   5.044  0.1835  0.5841 -0.0640
11290TIP3    H155285  -0.010   1.150   5.096 -0.8125  1.4423 -0.6867
11290TIP3    H255286   0.012   1.246   4.982  1.4144  0.6317 -0.9623
11291TIP3   OH255287   2.874   2.792   5.414 -0.4441  0.8197 -0.5319
11291TIP3    H155288   2.809   2.859   5.393 -0.6369 -0.2188 -3.6329
11291TIP3    H255289   2.823   2.710   5.414  0.2955  0.3585  0.2095
11292TIP3   OH255290   0.674   3.558  12.285  0.2579 -0.7270 -0.5884
11292TIP3    H155291   0.722   3.489  12.239  3.1683  0.5227  0.4881
11292TIP3    H255292   0.640   3.615  12.216  0.7929 -1.3140 -1.3347
11293TIP3   OH255293   3.985   0.032   4.681  0.0370 -0.0693 -0.2047
11293TIP3    H155294   3.935  -0.025   4.740  0.3517 -0.1230  0.0135
11293TIP3    H255295   4.037   0.087   4.740 -0.7062  0.8647 -0.3953
11294TIP3   OH255296   2.456   4.203   0.970  0.5159  0.4551 -0.4464
11294TIP3    H155297   2.392   4.140   0.936 -0.0515  2.6929 -3.7664
11294TIP3    H255298   2.409   4.250   1.039  0.3280 -1.3731  0.7183
11295TIP3   OH255299   5.962   6.270  14.274  0.1541  0.3336  0.1470
11295TIP3    H155300   5.924   6.265  14.186 -0.8261  0.7095  0.5419
11295TIP3    H255301   6.038   6.327  14.263  2.1702 -2.4818 -1.1709
11296TIP3   OH255302   3.827   1.710  14.076 -0.6559  0.4143  0.1464
11296TIP3    H155303   3.800   1.702  13.984  2.6349 -0.9252 -0.7699
11296TIP3    H255304   3.914   1.748  14.072 -0.0364 -0.6577  2.6602
11297TIP3   OH255305   1.646   0.063  15.193 -0.0962  0.0367  0.3114
11297TIP3    H155306   1.556   0.038  15.210 -0.2082  1.3757  1.8662
11297TIP3    H255307   1.688  -0.017  15.161 -1.7164 -0.7001 -0.0153
11298TIP3   OH255308   1.402   2.422  16.475 -0.3480  0.7852  0.2662
11298TIP3    H155309   1.424   2.515  16.478 -0.1834  0.7429  0.3819
11298TIP3    H255310   1.351   2.407  16.555  1.3951  0.3311  1.3253
11299TIP3   OH255311   5.151   2.962  13.608  0.4261 -0.1299 -0.1541
11299TIP3    H155312   5.085   3.015  13.652  1.1376  3.0776 -2.7837
11299TIP3    H255313   5.230   2.974  13.660 -0.3496 -1.9052  1.5172
11300TIP3   OH255314   0.720   3.609   3.927  0.3048 -0.2643  0.0710
11300TIP3    H155315   0.699   3.678   3.990 -1.8202  0.4477 -1.3636
11300TIP3    H255316   0.781   3.650   3.865 -1.8766  0.7713 -1.4744
11301TIP3   OH255317   0.278   3.647  17.053 -0.2516  0.1122 -0.5292
11301TIP3    H155318   0.215   3.618  17.119 -0.9478  1.1903 -0.7038
11301TIP3    H255319   0.256   3.739  17.037 -1.2178 -0.5859 -3.5448
11302TIP3   OH255320   3.487   4.382   1.134 -0.5218 -0.0206 -0.1863
11302TIP3    H155321   3.495   4.476   1.151 -1.7796  0.1035 -0.2756
11302TIP3    H255322   3.550   4.366   1.064  1.9800  0.1452  1.9523
11303TIP3   OH255323   5.428   1.102   2.744  0.4755  0.0117 -0.8269
11303TIP3    H155324   5.404   1.146   2.825  0.6083 -1.1470 -0.1438
11303TIP3    H255325   5.419   1.169   2.676 -1.5615  0.4557 -0.1397
11304TIP3   OH255326   1.530   1.756   1.828  0.1379  0.2822  0.3258
11304TIP3    H155327   1.439   1.772   1.851 -0.2767 -0.1368 -0.9877
11304TIP3    H255328   1.576   1.755   1.912 -1.4402 -1.9087  1.2024
11305TIP3   OH255329   4.412   4.332   4.046 -0.8433 -0.1815  0.2491
11305TIP3    H155330   4.360   4.293   3.977 -0.3072 -0.7906  0.1800
11305TIP3    H255331   4.403   4.272   4.120 -0.3922 -0.2038  0.2925
11306TIP3   OH255332   4.413   3.304  16.242 -0.3110 -0.5376 -0.2000
11306TIP3    H155333   4.348   3.281  16.176 -0.8647 -0.4883  0.3213
11306TIP3    H255334   4.496   3.273  16.206 -0.5308 -0.0309 -1.1626
11307TIP3   OH255335   5.255   4.464   2.037 -0.4524 -0.1021  0.1045
11307TIP3    H155336   5.345   4.431   2.031  0.4391  1.6913  2.8510
11307TIP3    H255337   5.263   4.559   2.038 -2.5029  0.1167 -1.0638
11308TIP3   OH255338   2.730   2.955  16.749 -0.5971  0.0137  0.6212
11308TIP3    H155339   2.807   3.001  16.715 -0.0262 -0.5085  1.1689
11308TIP3    H255340   2.666   2.959  16.679  0.4463 -0.7638 -0.3907
11309TIP3   OH255341   0.023   1.755   4.307 -0.3882  0.1988  0.8268
11309TIP3    H155342  -0.002   1.665   4.327 -0.6429  0.0684 -0.0711
11309TIP3    H255343  -0.026   1.808   4.371  1.0607 -0.3989  2.4532
11310TIP3   OH255344   0.179   6.417   5.033  0.1752  0.4420 -0.5088
11310TIP3    H155345   0.124   6.355   4.986 -1.7708  1.7827 -0.0339
11310TIP3    H255346   0.226   6.363   5.097  3.3399 -1.5052 -4.2613
11311TIP3   OH255347   2.973   0.468  14.980  0.1101  0.0820 -0.6198
11311TIP3    H155348   3.032   0.429  14.916 -0.7899 -0.0196 -1.4004
11311TIP3    H255349   2.980   0.412  15.058  2.4725  1.1682 -0.0174
11312TIP3   OH255350   2.987   1.187  17.185 -0.3434  0.5222  0.7968
11312TIP3    H155351   2.951   1.276  17.190  1.0018  1.0400  1.3894
11312TIP3    H255352   2.998   1.161  17.276 -1.0354 -0.3911  0.6235
11313TIP3   OH255353   3.937   3.646   0.039  0.2643  0.0338 -0.5014
11313TIP3    H155354   3.901   3.571  -0.008  0.8261  0.0626 -0.9823
11313TIP3    H255355   3.886   3.721   0.007  1.7647  0.2929 -2.3255
11314TIP3   OH255356   6.697   6.764  14.561  0.1702  0.3875  0.3054
11314TIP3    H155357   6.732   6.853  14.569 -0.2782  0.3925  2.8007
11314TIP3    H255358   6.625   6.773  14.499 -0.1814  1.8971  0.8875
11315TIP3   OH255359   2.176   6.777  11.992  0.1489 -0.0399 -0.2551
11315TIP3    H155360   2.104   6.750  12.048  0.7255  0.4579  0.7523
11315TIP3    H255361   2.173   6.718  11.917 -2.1838  0.8951 -0.9188
11316TIP3   OH255362   0.857   2.474   1.714  0.4728 -0.1244  0.5379
11316TIP3    H155363   0.852   2.392   1.664 -0.3262  0.3308 -0.1362
11316TIP3    H255364   0.840   2.543   1.650 -1.4787  0.4100  1.5800
11317TIP3   OH255365   5.563   6.305  14.440 -0.5044 -0.0847  0.1027
11317TIP3    H155366   5.643   6.269  14.477 -0.2420  0.2707 -0.1205
11317TIP3    H255367   5.530   6.365  14.506 -0.4033  0.0300  0.0485
11318TIP3   OH255368   4.888   4.829  12.746 -0.1599 -0.7388 -0.2658
11318TIP3    H155369   4.796   4.850  12.731 -0.2427 -1.1344 -0.2933
11318TIP3    H255370   4.915   4.891  12.815 -0.0393  0.4103 -1.3189
11319TIP3   OH255371   4.589   1.574   1.129 -0.3031 -0.1026  0.1311
11319TIP3    H155372   4.514   1.515   1.132 -0.1990 -0.2242  0.3330
11319TIP3    H255373   4.665   1.518   1.145 -0.2465  0.1632  0.8232
11320TIP3   OH255374   0.973   5.531   0.707 -0.0327  0.4649 -0.0761
11320TIP3    H155375   0.983   5.501   0.617  1.0100 -1.2629  0.5732
11320TIP3    H255376   0.902   5.595   0.704 -1.1003 -0.7637 -1.8563
11321TIP3   OH255377   0.688   5.034   2.217  0.2095  0.7103 -0.2388
11321TIP3    H155378   0.602   5.034   2.176  0.1394  1.6197 -0.1158
11321TIP3    H255379   0.694   5.120   2.260  0.3440 -0.1437  1.5039
11322TIP3   OH255380   4.233   1.403  11.636  0.9346 -0.4989 -0.2407
11322TIP3    H155381   4.155   1.363  11.675  1.3578 -2.1556 -1.0886
11322TIP3    H255382   4.203   1.434  11.550  0.2209  2.3992  0.9940
11323TIP3   OH255383   2.363   5.479   5.075 -0.1618 -0.4558 -0.5362
11323TIP3    H155384   2.420   5.443   5.143  2.2866 -0.2731 -2.4252
11323TIP3    H255385   2.321   5.555   5.116  0.9643 -0.5827  0.8915
11324TIP3   OH255386   0.068   1.386   5.789  0.0702 -0.1850  0.4595
11324TIP3    H155387   0.012   1.365   5.864 -0.4601 -0.0386  0.1009
11324TIP3    H255388   0.009   1.388   5.714  0.6150 -0.4144  0.0196
11325TIP3   OH255389   6.067   0.394  11.183  0.9006  0.0422  0.3017
11325TIP3    H155390   6.112   0.345  11.252  1.7828 -0.6038 -0.7154
11325TIP3    H255391   6.130   0.399  11.111  0.2990  1.4305 -0.1575
11326TIP3   OH255392   1.864   3.326  16.573 -0.3820  0.5771  0.2401
11326TIP3    H155393   1.854   3.255  16.636 -2.6312  0.0081 -0.7076
11326TIP3    H255394   1.955   3.321  16.545 -0.4889 -1.8817  0.2435
11327TIP3   OH255395   3.770   5.531   3.406  0.1200  0.2508  0.1751
11327TIP3    H155396   3.861   5.527   3.376  0.8631  2.1237  2.0799
11327TIP3    H255397   3.742   5.621   3.386 -1.0643 -0.0688  0.3276
11328TIP3   OH255398   4.635   3.142  16.417 -0.7882  0.6412 -0.0118
11328TIP3    H155399   4.688   3.062  16.418 -0.9201  0.5579  1.0416
11328TIP3    H255400   4.669   3.192  16.343  0.2198  0.2255  0.1564
11329TIP3   OH255401   1.330   0.693   4.926 -0.3055 -0.0685  0.4927
11329TIP3    H155402   1.301   0.784   4.917 -1.6709 -0.0175  4.4789
11329TIP3    H255403   1.252   0.641   4.907 -0.7937 -0.2123  2.7685
11330TIP3   OH255404   0.842   5.329   1.616 -0.5335  0.1183  0.0028
11330TIP3    H155405   0.830   5.356   1.707 -1.5626 -2.9643  0.8331
11330TIP3    H255406   0.932   5.297   1.611 -0.8193 -0.7170  0.2056
11331TIP3   OH255407   1.876   2.024   3.801 -0.8256 -0.3890 -0.1846
11331TIP3    H155408   1.832   2.108   3.806  0.8141  0.4808 -0.1158
11331TIP3    H255409   1.877   1.991   3.891 -3.0066 -1.3114 -0.4688
11332TIP3   OH255410   3.555   3.648   1.731  0.2025 -0.4259 -0.0325
11332TIP3    H155411   3.612   3.715   1.770  1.0653 -1.0581 -0.1995
11332TIP3    H255412   3.486   3.635   1.796 -0.3285  1.0788 -0.2665
11333TIP3   OH255413   5.546   4.801  11.488 -0.3177  0.2017 -0.3113
11333TIP3    H155414   5.551   4.716  11.532 -1.0120  0.3145 -0.0082
11333TIP3    H255415   5.533   4.864  11.559 -0.1237  0.5239 -0.5624
11334TIP3   OH255416   4.493   6.263  17.009 -0.0353 -0.4169 -0.1353
11334TIP3    H155417   4.485   6.289  16.918 -0.2195  1.7471  0.4780
11334TIP3    H255418   4.587   6.249  17.022  0.1900  1.0655 -0.1742
11335TIP3   OH255419   6.500   4.380   3.434 -0.1704  0.1177  0.3321
11335TIP3    H155420   6.415   4.424   3.442  0.2024  0.6111  1.7461
11335TIP3    H255421   6.562   4.439   3.476  0.5913 -1.0320  0.8538
11336TIP3   OH255422   1.241   2.587   6.056  0.0260 -0.4201 -0.1683
11336TIP3    H155423   1.184   2.626   6.122 -1.5908 -1.5723 -0.8516
11336TIP3    H255424   1.298   2.528   6.104 -0.0766 -0.0652  0.3914
11337TIP3   OH255425   3.956   4.106   5.585 -0.6243  0.3546  0.5860
11337TIP3    H155426   4.023   4.173   5.598 -0.9642  0.8761 -0.3139
11337TIP3    H255427   3.878   4.142   5.629 -1.2010  1.1938 -1.0959
11338TIP3   OH255428   5.385   6.600  10.718 -0.1443  0.1868  0.0624
11338TIP3    H155429   5.444   6.588  10.644  0.5608  0.7217  0.5326
11338TIP3    H255430   5.402   6.689  10.748  0.5259 -0.4633  1.6816
11339TIP3   OH255431   3.556   2.236  14.484 -0.2926  0.5022  0.6013
11339TIP3    H155432   3.574   2.160  14.538  1.9784 -1.2709 -2.4479
11339TIP3    H255433   3.643   2.271  14.462 -1.1193  1.0306 -2.0063
11340TIP3   OH255434   6.252   5.823   3.168 -0.1360  0.1110 -0.4184
11340TIP3    H155435   6.276   5.747   3.221  1.1527  0.5665 -0.3302
11340TIP3    H255436   6.334   5.871   3.157 -0.7486  0.9632 -1.3145
11341TIP3   OH255437   0.906   4.412  12.196  1.0857  0.1839 -0.2657
11341TIP3    H155438   0.928   4.487  12.251 -0.5452  0.8770 -0.5243
11341TIP3    H255439   0.811   4.417  12.186  0.7937 -2.5927  0.6921
11342TIP3   OH255440   2.696   2.088   4.639  0.2411  0.1122 -0.0598
11342TIP3    H155441   2.698   2.095   4.734  2.9271  1.8143 -0.1797
11342TIP3    H255442   2.613   2.128   4.613  0.9467  2.6682  1.4211
11343TIP3   OH255443   3.196   5.846  10.505  0.4073 -0.5354 -0.0172
11343TIP3    H155444   3.248   5.827  10.583 -0.3220 -0.5442  0.4692
11343TIP3    H255445   3.244   5.918  10.462  1.3455 -1.1974 -0.0957
11344TIP3   OH255446   0.362   1.299  14.396 -0.3752 -0.1815  0.3876
11344TIP3    H155447   0.356   1.273  14.304  2.5627  1.6858 -0.4045
11344TIP3    H255448   0.348   1.217  14.444 -2.4988 -1.0971 -1.6725
11345TIP3   OH255449   6.686   2.391  13.836  0.5804  0.2570 -0.0829
11345TIP3    H155450   6.674   2.407  13.742  1.2279  1.4419  0.0396
11345TIP3    H255451   6.615   2.440  13.877 -0.3219 -1.0834 -0.0009
11346TIP3   OH255452   0.416   6.726   4.553 -0.0091 -0.1325  0.0131
11346TIP3    H155453   0.378   6.640   4.536 -0.6631 -0.0079  0.8054
11346TIP3    H255454   0.448   6.721   4.643 -0.8102  0.7139  0.3557
11347TIP3   OH255455   0.134   5.714  14.637  0.1351 -0.1452 -0.0515
11347TIP3    H155456   0.105   5.648  14.700  0.5396 -0.0838  0.2008
11347TIP3    H255457   0.161   5.788  14.691  4.2764 -1.5291 -0.0194
11348TIP3   OH255458   6.225   5.526  14.835  0.0309 -0.5737  0.7601
11348TIP3    H155459   6.252   5.465  14.904  1.4846 -0.2808  0.4679
11348TIP3    H255460   6.207   5.470  14.760 -1.4967 -0.8887  1.3433
11349TIP3   OH255461   3.094   2.288   1.509  0.2932 -0.1001 -0.2431
11349TIP3    H155462   3.104   2.234   1.588 -1.4199 -1.4597 -0.9118
11349TIP3    H255463   3.014   2.338   1.525 -0.7215 -1.2559 -1.5922
11350TIP3   OH255464   3.497   6.316   5.676 -0.1862  0.2668  0.5882
11350TIP3    H155465   3.593   6.323   5.677 -0.2368  0.8474  1.5122
11350TIP3    H255466   3.466   6.396   5.717 -1.1170  0.6769 -0.8744
11351TIP3   OH255467   0.333   3.772  13.284  0.0457 -0.0620 -0.4884
11351TIP3    H155468   0.407   3.712  13.285 -0.0087 -0.1635  1.8134
11351TIP3    H255469   0.351   3.832  13.212  2.1735 -0.3153 -0.2050
11352TIP3   OH255470   2.993   3.969   6.607 -0.1961  1.1305  0.2928
11352TIP3    H155471   2.978   3.874   6.605 -0.1101  1.1237  0.0079
11352TIP3    H255472   2.907   4.006   6.626 -0.5843  1.0847 -1.3177
11353TIP3   OH255473   4.594   0.918  16.815 -0.5915  0.1711  0.5246
11353TIP3    H155474   4.659   0.926  16.745  0.7268  1.1851  1.8204
11353TIP3    H255475   4.548   1.002  16.815 -0.4885  0.2301  0.9486
11354TIP3   OH255476   3.271   5.410  13.139 -0.2827 -0.2476  0.4740
11354TIP3    H155477   3.253   5.322  13.107  0.1834 -0.4809  0.8527
11354TIP3    H255478   3.184   5.445  13.162 -0.5428 -0.3320 -0.3668
11355TIP3   OH255479   5.729   0.146  17.000 -0.2324 -0.5651 -0.0685
11355TIP3    H155480   5.735   0.241  16.988  0.4268 -0.2502  2.6607
11355TIP3    H255481   5.743   0.111  16.912  2.1302  1.7460 -0.6696
11356TIP3   OH255482   0.091   4.024  11.453  0.5107  0.3475  0.0169
11356TIP3    H155483   0.128   4.064  11.374 -0.3985 -0.2630 -0.7353
11356TIP3    H255484   0.167   3.993  11.502  1.0696  0.3292 -0.8388
11357TIP3   OH255485   6.552   3.886  13.215  0.2988 -0.1133 -0.0788
11357TIP3    H155486   6.608   3.935  13.156 -0.8055  2.2091  0.7228
11357TIP3    H255487   6.591   3.799  13.220  2.5087  0.7859 -1.2792
11358TIP3   OH255488   3.163   4.237   2.765 -0.4771  0.0731 -0.2883
11358TIP3    H155489   3.085   4.191   2.797 -1.4381  1.6979 -0.1796
11358TIP3    H255490   3.138   4.268   2.678  0.0894  0.4704 -0.3119
11359TIP3   OH255491   4.004   6.073   5.243 -0.2172 -0.1852  0.1410
11359TIP3    H155492   4.087   6.027   5.256 -0.4072 -0.6761 -0.3529
11359TIP3    H255493   3.988   6.067   5.148 -0.9861 -0.3958  0.2829
11360TIP3   OH255494   3.953   2.281   5.321  0.1146  0.4745 -0.4184
11360TIP3    H155495   3.939   2.258   5.229  1.6018 -0.4732 -0.4322
11360TIP3    H255496   3.893   2.354   5.338 -0.1037  0.7105 -2.1652
11361TIP3   OH255497   5.726   6.617  13.740 -0.3314 -0.2664 -0.0575
11361TIP3    H155498   5.722   6.700  13.787  0.9906  0.6657 -1.5285
11361TIP3    H255499   5.675   6.556  13.794  0.5454  0.9295  2.1666
11362TIP3   OH255500   3.856   6.321  16.859 -0.0198 -0.6509 -0.3435
11362TIP3    H155501   3.851   6.240  16.910  0.9089  0.1971  1.1342
11362TIP3    H255502   3.790   6.311  16.791 -2.3533 -1.2071  1.9333
11363TIP3   OH255503   1.958   3.235  11.901  0.1862 -0.0351 -0.0004
11363TIP3    H155504   1.875   3.229  11.854  0.6563 -1.8848 -0.6560
11363TIP3    H255505   1.956   3.162  11.963  1.6446 -0.5989 -0.5902
11364TIP3   OH255506   2.132   3.338   3.247  0.1660 -0.2543  0.5665
11364TIP3    H155507   2.124   3.332   3.342 -0.4766 -1.4661  0.4420
11364TIP3    H255508   2.087   3.260   3.213  0.2650  0.2304 -0.7352
11365TIP3   OH255509   0.488   1.519  12.689 -0.8264 -0.2281  0.6066
11365TIP3    H155510   0.409   1.466  12.693  0.0546 -1.6253 -0.1254
11365TIP3    H255511   0.556   1.459  12.658 -0.1201  1.6341 -1.6599
11366TIP3   OH255512   5.059   4.619  15.907 -0.0552  0.3965  0.0223
11366TIP3    H155513   4.970   4.640  15.879 -0.0037 -0.1636 -0.5674
11366TIP3    H255514   5.057   4.524  15.922  0.7327  0.2061 -1.0536
11367TIP3   OH255515   4.174   2.091  16.738 -0.3447 -0.0662  0.1575
11367TIP3    H155516   4.125   2.025  16.787  2.0539  0.2815  3.2324
11367TIP3    H255517   4.129   2.173  16.757  0.1037 -0.0456  1.1854
11368TIP3   OH255518   2.261   4.593  12.497  0.1715  0.2135 -0.1956
11368TIP3    H155519   2.339   4.623  12.544 -0.9941  0.8970  1.3421
11368TIP3    H255520   2.290   4.514  12.452  1.5437  0.0077  0.9857
11369TIP3   OH255521   3.018   2.744   4.063 -0.3921 -0.1429  0.0518
11369TIP3    H155522   2.994   2.819   4.117  1.4559  0.1362  0.5302
11369TIP3    H255523   3.026   2.780   3.975 -0.9072 -0.0809  0.0269
11370TIP3   OH255524   0.228   4.417   3.456 -0.0302 -0.1620  0.5487
11370TIP3    H155525   0.298   4.434   3.393 -1.0316 -0.0660 -0.5626
11370TIP3    H255526   0.234   4.488   3.520  0.7453 -0.0356  0.3300
11371TIP3   OH255527   5.258   5.192  13.651 -0.8728  0.6246  0.0348
11371TIP3    H155528   5.324   5.154  13.710  0.4313  1.7398 -0.6877
11371TIP3    H255529   5.236   5.121  13.591 -0.5914  0.1422  0.4990
11372TIP3   OH255530   4.352   4.658   1.807  0.0585  0.3799  0.4341
11372TIP3    H155531   4.420   4.644   1.741  0.8163  0.8396  1.1149
11372TIP3    H255532   4.390   4.719   1.869  0.2279 -1.8250  2.5720
11373TIP3   OH255533   2.582   1.003   6.054  0.3960 -0.3572  0.9092
11373TIP3    H155534   2.538   0.982   6.136  1.0621  0.3329  1.4528
11373TIP3    H255535   2.646   1.071   6.078 -0.0945  0.5644 -0.3632
11374TIP3   OH255536   3.288   3.944   0.535 -0.0342 -0.0350 -0.2420
11374TIP3    H155537   3.285   3.946   0.630 -0.2893 -0.1984 -0.2450
11374TIP3    H255538   3.355   3.879   0.515 -0.3974 -0.4342 -0.1732
11375TIP3   OH255539   5.240   4.355  13.625  0.2242  0.1071 -0.0430
11375TIP3    H155540   5.172   4.341  13.559 -1.8882  0.3338  2.0202
11375TIP3    H255541   5.279   4.269  13.639 -0.5965 -0.3001 -0.2352
11376TIP3   OH255542   2.535   4.467   1.740 -0.7807 -0.4416  0.1075
11376TIP3    H155543   2.598   4.480   1.669 -2.9559 -1.0996 -1.9807
11376TIP3    H255544   2.537   4.373   1.757 -2.4530 -0.7057 -1.1435
11377TIP3   OH255545   0.921   1.207  14.605  0.0126  0.2922 -0.5932
11377TIP3    H155546   0.951   1.282  14.655  1.5348 -0.6935  0.0053
11377TIP3    H255547   0.875   1.152  14.669  0.8380 -0.3512 -0.5475
11378TIP3   OH255548   0.823   1.745   5.610 -0.2204 -0.7315 -0.2107
11378TIP3    H155549   0.839   1.768   5.702  0.7071  1.5317 -0.9133
11378TIP3    H255550   0.856   1.656   5.602  2.0134 -0.0503  1.0600
11379TIP3   OH255551   5.596   0.188   5.430 -0.1885  0.5967 -0.5759
11379TIP3    H155552   5.642   0.231   5.358 -1.1672 -0.7494 -2.0263
11379TIP3    H255553   5.503   0.205   5.414 -0.3483  1.6882  1.3018
11380TIP3   OH255554   5.099   0.020  13.718  0.0942 -0.3463 -0.4055
11380TIP3    H155555   5.081   0.113  13.730 -1.8486 -0.4790 -1.9827
11380TIP3    H255556   5.130   0.013  13.628  2.1544 -1.0020  0.3135
11381TIP3   OH255557   1.777   4.495  11.446  0.1575  0.0301 -0.3377
11381TIP3    H155558   1.727   4.433  11.392  0.6883 -0.8459  0.1556
11381TIP3    H255559   1.868   4.478  11.423  0.2818  1.0464 -0.6191
11382TIP3   OH255560   5.012   1.152  12.808 -0.5091  0.1269  0.0572
11382TIP3    H155561   5.093   1.144  12.758 -0.1016  2.1809  0.3143
11382TIP3    H255562   5.035   1.210  12.881 -2.4606  1.6856 -0.4939
11383TIP3   OH255563   0.792   4.627  11.998  0.2394  0.0031 -0.3165
11383TIP3    H155564   0.705   4.587  12.002 -0.1668  0.7269 -1.7403
11383TIP3    H255565   0.780   4.713  12.039  0.3024  0.0689 -0.4377
11384TIP3   OH255566   0.755   2.371  15.377  0.2191  0.2638  0.2023
11384TIP3    H155567   0.802   2.420  15.444  0.7343 -0.0368  0.0617
11384TIP3    H255568   0.696   2.313  15.426 -0.0657  0.6933  0.3758
11385TIP3   OH255569   1.862   5.582   2.270 -0.6722  0.0312  0.3098
11385TIP3    H155570   1.908   5.643   2.328  0.9780  0.0627 -0.9771
11385TIP3    H255571   1.781   5.628   2.247 -0.2684  0.9869  0.7433
11386TIP3   OH255572   5.745   2.309  11.598 -0.4517 -0.4486 -0.2844
11386TIP3    H155573   5.764   2.383  11.656  1.5201 -1.3007  0.1963
11386TIP3    H255574   5.735   2.348  11.511  0.4854  0.3962 -0.0250
11387TIP3   OH255575   1.909   4.906   1.894 -0.6253  0.2603  0.2326
11387TIP3    H155576   1.966   4.832   1.877  0.4124  1.0108  0.4161
11387TIP3    H255577   1.822   4.877   1.865 -0.3463 -1.2283  0.8621
11388TIP3   OH255578   3.896   5.238  17.238  0.1159  0.5857 -0.7071
11388TIP3    H155579   3.878   5.175  17.308  0.0149 -1.4964 -2.5444
11388TIP3    H255580   3.986   5.264  17.251  0.4483 -0.6522 -0.4312
11389TIP3   OH255581   6.288   5.412  15.576 -0.2490 -0.5600 -0.3903
11389TIP3    H155582   6.365   5.432  15.523 -0.8363  0.4463 -0.8582
11389TIP3    H255583   6.321   5.349  15.641  0.8684 -0.4687 -0.8452
11390TIP3   OH255584   3.206   0.608  12.728 -0.6759 -0.0295  0.3532
11390TIP3    H155585   3.148   0.646  12.662 -1.4141 -2.3739 -0.3946
11390TIP3    H255586   3.258   0.543  12.680  1.8322  1.2476  1.2286
11391TIP3   OH255587   0.585   2.358  14.890 -0.2338 -0.3552  0.6902
11391TIP3    H155588   0.623   2.418  14.954 -0.0466  1.9130 -1.4773
11391TIP3    H255589   0.491   2.358  14.909 -0.2251  0.6072  0.7696
11392TIP3   OH255590   6.492   3.647   4.757  0.2961 -0.4445 -0.0263
11392TIP3    H155591   6.419   3.624   4.700 -1.1307  0.2768  1.4970
11392TIP3    H255592   6.570   3.634   4.702 -0.9338 -1.5084 -1.5585
11393TIP3   OH255593   4.558   6.153   0.594 -0.4134 -0.2859 -0.4091
11393TIP3    H155594   4.614   6.124   0.522 -0.3550 -1.6189  0.1544
11393TIP3    H255595   4.469   6.150   0.559 -0.3871 -0.9631 -0.4197
11394TIP3   OH255596   6.393   3.886  10.611 -0.0510  0.8717 -0.4886
11394TIP3    H155597   6.318   3.864  10.557 -0.4286  2.9952 -0.8567
11394TIP3    H255598   6.427   3.968  10.574  0.2052  1.9047  1.9143
11395TIP3   OH255599   3.469   4.322  11.942  0.5887 -0.1782 -0.3586
11395TIP3    H155600   3.546   4.318  12.000  0.3813 -0.2956 -0.0898
11395TIP3    H255601   3.503   4.353  11.859  0.8598  0.1790 -0.1156
11396TIP3   OH255602   5.506   5.831   2.260 -0.0718 -0.0608  0.4983
11396TIP3    H155603   5.552   5.779   2.326  2.7847 -0.7833 -1.9442
11396TIP3    H255604   5.552   5.915   2.259 -1.0328  0.4753  0.4077
11397TIP3   OH255605   3.602   2.802   0.053  0.8301  0.4102  0.0480
11397TIP3    H155606   3.656   2.766  -0.018  2.2677  0.9765  0.8252
11397TIP3    H255607   3.595   2.730   0.116  0.0058  0.0803 -0.4206
11398TIP3   OH255608   5.629   4.546   0.799  0.1643  0.1101  0.8550
11398TIP3    H155609   5.711   4.496   0.802  0.1913  0.1473  0.7465
11398TIP3    H255610   5.619   4.568   0.706 -0.4641 -0.7293  0.7221
11399TIP3   OH255611   2.794   6.489   5.596  0.1085  0.8231 -0.3086
11399TIP3    H155612   2.711   6.487   5.645  0.4437 -1.1409  0.2287
11399TIP3    H255613   2.840   6.565   5.632 -0.7920  1.0005  0.5140
11400TIP3   OH255614   5.315   5.760   0.113 -0.0432 -0.4819 -0.3711
11400TIP3    H155615   5.311   5.673   0.153  0.0559 -0.0206  0.6693
11400TIP3    H255616   5.372   5.749   0.037 -0.9650 -1.5764 -0.9190
11401TIP3   OH255617   3.782   2.249   4.685  0.1594 -0.6267  0.4696
11401TIP3    H155618   3.861   2.303   4.688 -0.4927  0.4047 -0.6698
11401TIP3    H255619   3.815   2.159   4.693  1.5735 -0.2992 -1.3589
11402TIP3   OH255620   5.008   2.294  12.453  0.0505  0.5684 -0.4155
11402TIP3    H155621   4.928   2.263  12.410  0.1656  0.4402 -0.5371
11402TIP3    H255622   5.069   2.310  12.382  0.3181  0.1358 -0.2829
11403TIP3   OH255623   3.339   2.413  15.441 -0.4761 -1.0724 -0.2221
11403TIP3    H155624   3.296   2.483  15.392 -0.4470  1.3339  2.9982
11403TIP3    H255625   3.421   2.396  15.394 -0.8455  0.5249 -1.4717
11404TIP3   OH255626   5.792   0.307  16.265  0.9161  0.4432 -0.4430
11404TIP3    H155627   5.798   0.380  16.203 -0.0153  0.2486 -0.7758
11404TIP3    H255628   5.698   0.297  16.281  1.0405 -0.6025 -0.3061
11405TIP3   OH255629   2.512   0.961   4.544  0.2580  0.1736  0.6986
11405TIP3    H155630   2.417   0.966   4.552  0.1242 -0.1630 -0.4728
11405TIP3    H255631   2.530   1.005   4.460  1.0922 -0.0856  0.7432
11406TIP3   OH255632   0.249   5.638  12.223 -0.1328  0.2284 -0.5384
11406TIP3    H155633   0.278   5.562  12.273  0.1264  0.3026 -0.5765
11406TIP3    H255634   0.209   5.696  12.288  0.5310  0.4871 -0.3638
11407TIP3   OH255635   0.613   6.190   0.047  0.9623  0.4497  0.0389
11407TIP3    H155636   0.613   6.096   0.031  0.7775 -0.0191  2.6650
11407TIP3    H255637   0.533   6.222   0.003 -0.4610 -1.0547  1.4622
11408TIP3   OH255638   0.360   2.729  11.861  0.3352 -0.1005 -0.3447
11408TIP3    H155639   0.445   2.687  11.848  0.5905  0.1564  0.4670
11408TIP3    H255640   0.380   2.809  11.910 -0.4479 -0.3590  0.4065
11409TIP3   OH255641   4.815   5.464  13.014  0.1976  0.7495 -0.7265
11409TIP3    H155642   4.861   5.423  13.088  0.1238 -1.8535 -2.0801
11409TIP3    H255643   4.727   5.425  13.016  0.6627 -0.4558 -3.0828
11410TIP3   OH255644   0.577   2.136  16.573 -0.0835  0.6324  0.2580
11410TIP3    H155645   0.580   2.183  16.490 -1.7214  1.4437  0.6346
11410TIP3    H255646   0.499   2.081  16.566  1.3517 -1.4589  0.1443
11411TIP3   OH255647   6.270   4.752   2.988  0.1408  0.4249 -0.3222
11411TIP3    H155648   6.223   4.755   2.905  0.0107  0.9328 -0.2300
11411TIP3    H255649   6.309   4.839   2.996  0.0494  0.4157  0.2112
11412TIP3   OH255650   1.864   0.153   0.433  0.1578  0.0331 -0.6241
11412TIP3    H155651   1.819   0.238   0.432  1.0462  0.5213 -4.1859
11412TIP3    H255652   1.879   0.136   0.526 -0.6705  3.4410  0.2159
11413TIP3   OH255653   6.644   5.741  13.310  0.0011  0.7363 -0.4499
11413TIP3    H155654   6.726   5.788  13.298  0.3960 -0.1070 -1.0843
11413TIP3    H255655   6.618   5.714  13.222 -0.7549  0.6631 -0.2099
11414TIP3   OH255656   3.063   2.757  15.795 -0.0000  0.2904  0.5947
11414TIP3    H155657   3.081   2.789  15.707  1.7561  0.1971  0.9057
11414TIP3    H255658   2.969   2.737  15.795  0.2567 -1.0897 -1.6933
11415TIP3   OH255659   1.799   3.586   4.673 -0.6054  0.0101 -0.1319
11415TIP3    H155660   1.789   3.539   4.590 -0.3706 -0.4776  0.1160
11415TIP3    H255661   1.751   3.532   4.737  0.7961 -0.5994  0.4167
11416TIP3   OH255662   0.610   3.972  14.511  0.1213 -0.1993 -0.0227
11416TIP3    H155663   0.591   3.896  14.456  1.1911 -0.1373 -0.4988
11416TIP3    H255664   0.524   4.004  14.538 -0.3316 -1.6661  0.3110
11417TIP3   OH255665   3.836   3.365  15.418 -0.0279 -0.1426 -0.1721
11417TIP3    H155666   3.764   3.428  15.413  0.2183  0.0895 -0.8771
11417TIP3    H255667   3.905   3.403  15.364  0.7529 -0.2061  0.7693
11418TIP3   OH255668   4.026   1.333  12.386  0.2703  0.5728  0.8014
11418TIP3    H155669   3.994   1.245  12.367 -0.2024  0.7854  0.5806
11418TIP3    H255670   3.976   1.360  12.463 -0.8452  1.2965 -0.1499
11419TIP3   OH255671   6.765   4.613   3.871  0.6754  0.5412 -0.1075
11419TIP3    H155672   6.713   4.685   3.834  1.9480  1.6949  0.3358
11419TIP3    H255673   6.767   4.631   3.965  3.3547  1.4893 -0.3221
11420TIP3   OH255674   1.540   0.204  11.450 -0.5496  0.3216  0.1785
11420TIP3    H155675   1.502   0.260  11.518 -1.7738 -0.6993  0.3663
11420TIP3    H255676   1.587   0.263  11.392 -0.7258  1.3780  1.1120
11421TIP3   OH255677   1.625   5.316   1.739 -0.0502  0.2050  0.4321
11421TIP3    H155678   1.707   5.365   1.738 -1.0075  1.8484  0.7708
11421TIP3    H255679   1.641   5.243   1.799  1.8289 -0.6991 -1.1438
11422TIP3   OH255680   6.414   1.583   4.654 -0.2983 -0.0134  0.1665
11422TIP3    H155681   6.463   1.656   4.691  0.2703  0.2980 -1.1897
11422TIP3    H255682   6.346   1.564   4.719  0.8794  0.3189  1.5032
11423TIP3   OH255683   3.787   0.914   5.180 -0.5692  0.0255 -0.0900
11423TIP3    H155684   3.838   0.995   5.187 -1.2845  0.3162  2.0491
11423TIP3    H255685   3.716   0.936   5.119 -1.0554  1.1774  0.8663
11424TIP3   OH255686   5.686   3.984  16.057 -0.1926  0.4229 -0.4358
11424TIP3    H155687   5.661   3.902  16.014 -0.5166  1.3144 -1.9827
11424TIP3    H255688   5.679   4.050  15.988 -1.9429  2.0943  1.2808
11425TIP3   OH255689   2.958   1.380  11.338 -0.0588 -0.0143  0.1213
11425TIP3    H155690   3.052   1.359  11.341 -0.4112 -1.6512  0.1498
11425TIP3    H255691   2.929   1.349  11.252 -0.9641 -1.2808  0.8711
11426TIP3   OH255692   3.598   1.401  12.959 -0.5797  1.3519  0.2208
11426TIP3    H155693   3.667   1.428  12.898 -0.4719  1.0339  0.2011
11426TIP3    H255694   3.556   1.483  12.986 -0.2545  1.5393  0.1613
11427TIP3   OH255695   5.706   4.736   5.627  0.0448  0.0634  0.4614
11427TIP3    H155696   5.763   4.675   5.673 -0.7648 -1.1390 -0.1042
11427TIP3    H255697   5.667   4.789   5.696 -1.0591 -1.6390  1.1912
11428TIP3   OH255698   1.611   1.329   6.284  0.3349 -0.1953 -0.2056
11428TIP3    H155699   1.610   1.313   6.190  0.3562  0.3826 -0.3051
11428TIP3    H255700   1.532   1.287   6.317 -1.1740  2.0433 -0.8845
11429TIP3   OH255701   2.351   4.900  16.873  0.0133  0.2428 -0.8800
11429TIP3    H155702   2.256   4.911  16.861 -0.5191 -1.4304  1.4294
11429TIP3    H255703   2.369   4.812  16.842  0.6136  0.1200 -0.1831
11430TIP3   OH255704   4.863   1.926  16.206  0.4693  0.4856  0.5287
11430TIP3    H155705   4.922   1.878  16.148  1.0970  2.8888 -0.9399
11430TIP3    H255706   4.849   1.868  16.281  1.7160 -1.6378 -0.8368
11431TIP3   OH255707   4.355   3.936   0.016 -0.6189  0.4671  0.6393
11431TIP3    H155708   4.285   3.955   0.079 -1.8409  0.1842 -0.6370
11431TIP3    H255709   4.435   3.939   0.069 -1.5477  1.1333  2.0440
11432TIP3   OH255710   2.481   3.131  14.288 -0.5493  0.2036 -0.3676
11432TIP3    H155711   2.463   3.189  14.362  2.6434 -0.6647  1.1900
11432TIP3    H255712   2.439   3.048  14.312  1.9665 -0.6424  1.4493
11433TIP3   OH255713   4.439   2.052  13.211  0.8831 -0.2587 -0.9998
11433TIP3    H155714   4.485   2.108  13.273  0.3175 -0.8080 -0.0767
11433TIP3    H255715   4.482   2.069  13.127  1.1811  1.0331 -0.6075
11434TIP3   OH255716   6.005   5.209   2.176 -0.1304  0.1253  0.4650
11434TIP3    H155717   5.912   5.200   2.154 -0.1056  0.7851  0.0525
11434TIP3    H255718   6.006   5.239   2.267 -0.3212  0.1256  0.4663
11435TIP3   OH255719   4.567   4.392  16.977  0.0593  0.7198 -0.5910
11435TIP3    H155720   4.611   4.424  16.898  1.3799  1.0770  0.2666
11435TIP3    H255721   4.614   4.311  16.999  0.3204  1.1216  0.3509
11436TIP3   OH255722   2.989   0.638  11.288  0.9457  0.0787 -0.1192
11436TIP3    H155723   2.962   0.708  11.346 -1.4000 -0.2891 -0.7102
11436TIP3    H255724   2.951   0.660  11.203  0.4263 -1.7340 -0.3886
11437TIP3   OH255725   3.374   1.622  15.648 -0.0065  0.1868  0.1387
11437TIP3    H155726   3.391   1.534  15.681  1.0540  0.7906  1.2700
11437TIP3    H255727   3.458   1.667  15.656 -0.0016  0.7047 -2.3966
11438TIP3   OH255728   1.510   6.779  14.578 -0.1510 -0.0042 -0.6339
11438TIP3    H155729   1.472   6.692  14.586  1.2881 -0.5871  0.0320
11438TIP3    H255730   1.580   6.781  14.642 -0.6086  1.8989 -0.1570
11439TIP3   OH255731   2.068   3.998  14.385  0.4360 -0.0086  0.0327
11439TIP3    H155732   2.004   4.052  14.340 -0.3811  0.1419  1.3393
11439TIP3    H255733   2.016   3.944  14.444  1.3249 -1.5610 -0.5780
11440TIP3   OH255734   5.011   0.389  10.608 -0.1383 -0.7395  0.0996
11440TIP3    H155735   4.973   0.336  10.538 -1.1072  0.5463 -0.3609
11440TIP3    H255736   5.094   0.347  10.628 -0.7306 -2.2208 -0.5108
11441TIP3   OH255737   3.512   3.327  11.264 -0.0903  0.3767 -0.0977
11441TIP3    H155738   3.482   3.241  11.235 -1.5061  1.0486 -0.7136
11441TIP3    H255739   3.521   3.378  11.183  0.7067  0.8090  0.2600
11442TIP3   OH255740   6.615   4.225   5.429 -0.3373  1.2288  0.0579
11442TIP3    H155741   6.530   4.232   5.472  0.3547  2.4229  1.2862
11442TIP3    H255742   6.655   4.146   5.467 -0.6836  0.9500 -0.1529
11443TIP3   OH255743   6.593   5.891  14.806  0.2035 -0.0733  0.2120
11443TIP3    H155744   6.539   5.821  14.772  0.3896 -0.2059  0.1918
11443TIP3    H255745   6.627   5.858  14.890  0.3990 -0.0611  0.1378
11444TIP3   OH255746   4.437   1.444   2.009  0.1531 -0.2584  0.3280
11444TIP3    H155747   4.460   1.481   1.924 -1.1954 -3.5638 -1.5887
11444TIP3    H255748   4.351   1.481   2.029 -0.0352 -0.3400 -0.3156
11445TIP3   OH255749   2.847   6.564   1.745 -0.1989  0.2153 -0.1736
11445TIP3    H155750   2.805   6.484   1.776 -0.2297  1.0487  2.0093
11445TIP3    H255751   2.779   6.631   1.752 -0.5666  0.2211 -3.2055
11446TIP3   OH255752   1.050   3.600  13.884  0.5700  0.3218  0.8333
11446TIP3    H155753   1.106   3.673  13.859  2.9051 -0.8368  2.5160
11446TIP3    H255754   1.076   3.580  13.974 -0.8161 -1.8755  0.7813
11447TIP3   OH255755   2.119   3.561   1.045 -0.4462  0.4304  0.3042
11447TIP3    H155756   2.035   3.582   1.005 -0.0347 -1.0319 -1.3967
11447TIP3    H255757   2.184   3.589   0.981  0.3452  0.9430  1.3248
11448TIP3   OH255758   3.452   3.792  13.296  0.2610  1.0394 -0.7398
11448TIP3    H155759   3.526   3.734  13.312 -0.6134  0.3514  0.8565
11448TIP3    H255760   3.476   3.875  13.337 -0.6794  0.2056  1.5598
11449TIP3   OH255761   6.464   3.203  16.061  0.1496  0.0479 -0.3496
11449TIP3    H155762   6.553   3.215  16.030 -0.4912  3.0375 -1.1478
11449TIP3    H255763   6.414   3.177  15.984 -0.0349  0.2817 -0.3117
11450TIP3   OH255764   4.126   5.201  16.771  0.2986 -0.3874  0.2224
11450TIP3    H155765   4.141   5.112  16.741 -0.9071 -0.5963  0.2268
11450TIP3    H255766   4.152   5.200  16.863  0.0153 -0.8011  0.2982
11451TIP3   OH255767   2.621   5.759   4.644 -0.1186  0.6322  0.2583
11451TIP3    H155768   2.628   5.710   4.562  0.8805  0.2026  0.5969
11451TIP3    H255769   2.640   5.695   4.713  0.8117  1.3922  0.7258
11452TIP3   OH255770   6.283   2.499   5.454  0.1035  0.2262  0.5700
11452TIP3    H155771   6.248   2.586   5.472 -1.0308  0.3926 -2.1729
11452TIP3    H255772   6.378   2.510   5.459 -0.0370  1.6198  0.2244
11453TIP3   OH255773   5.667   6.424   3.032 -0.6782  0.3975  0.0947
11453TIP3    H155774   5.588   6.374   3.013  0.9695 -1.3406 -2.5484
11453TIP3    H255775   5.651   6.511   2.995 -1.4123  0.0741 -0.3522
11454TIP3   OH255776   3.135   5.229   1.018 -0.2360  0.5885  0.2034
11454TIP3    H155777   3.138   5.194   0.928 -2.2852  0.2435  0.2444
11454TIP3    H255778   3.061   5.289   1.018  0.4952  1.4961  1.3590
11455TIP3   OH255779   0.750   4.802   1.821  0.5760 -0.4588  0.4906
11455TIP3    H155780   0.727   4.732   1.881  1.0268 -0.5777  0.5259
11455TIP3    H255781   0.695   4.787   1.744  0.6900 -0.8647  0.4883
11456TIP3   OH255782   1.923   1.310  12.975 -0.2859 -0.0625  0.2952
11456TIP3    H155783   1.926   1.220  12.941  0.5908 -0.3454  1.0830
11456TIP3    H255784   1.985   1.309  13.048  0.2593  1.3643 -0.1322
11457TIP3   OH255785   5.784   6.592   1.875 -0.2159  0.6965  0.8454
11457TIP3    H155786   5.748   6.562   1.959  0.8553 -0.9792  0.7385
11457TIP3    H255787   5.760   6.684   1.870 -1.9508  0.3332  2.1136
11458TIP3   OH255788   4.710   5.121   6.225 -0.4647 -0.5425 -0.0395
11458TIP3    H155789   4.773   5.063   6.182 -0.3017 -1.0667  0.8867
11458TIP3    H255790   4.758   5.157   6.300 -1.1889 -0.7567  0.5314
11459TIP3   OH255791   4.732   0.489  15.185  0.3498 -0.1750 -0.0227
11459TIP3    H155792   4.770   0.577  15.184  0.2731 -0.0829  2.1582
11459TIP3    H255793   4.807   0.431  15.173  0.4590  0.1654 -1.0371
11460TIP3   OH255794   5.032   6.437   3.350 -0.7819 -0.0827  1.1948
11460TIP3    H155795   5.057   6.471   3.263  0.0816  0.4806  1.6488
11460TIP3    H255796   5.027   6.343   3.338  0.7052 -0.1376  0.8428
11461TIP3   OH255797   6.699   6.484  13.445  0.0662 -0.4132  0.7220
11461TIP3    H155798   6.766   6.509  13.382 -0.7108 -1.0913 -0.4063
11461TIP3    H255799   6.738   6.501  13.531  1.6121 -0.6666  0.0788
11462TIP3   OH255800   5.781   0.132   0.229  0.7155  0.3087 -0.5538
11462TIP3    H155801   5.860   0.183   0.244  1.4638 -1.1392  0.6554
11462TIP3    H255802   5.810   0.041   0.235 -0.9462 -0.2537 -0.6419
11463TIP3   OH255803   3.097   1.241  11.854 -0.1677  0.0315 -0.0944
11463TIP3    H155804   3.117   1.316  11.797 -0.7693  0.0193 -0.3276
11463TIP3    H255805   3.056   1.281  11.931 -0.4202 -0.0570 -0.1856
11464TIP3   OH255806   3.866   2.582  14.669  0.6631  0.4041 -0.2085
11464TIP3    H155807   3.885   2.618  14.756 -0.7098 -0.6049  0.5145
11464TIP3    H255808   3.801   2.642  14.632  0.5343  0.2946 -0.1593
11465TIP3   OH255809   1.790   3.078  14.050 -0.1199  0.8756  0.5596
11465TIP3    H155810   1.721   3.030  14.004  1.7039 -1.3315  0.0228
11465TIP3    H255811   1.743   3.143  14.102 -2.4944  0.4785 -0.9862
11466TIP3   OH255812   1.458   5.874  12.969 -0.0538 -0.2689  0.0980
11466TIP3    H155813   1.525   5.813  13.002  0.1365  0.5901  1.3569
11466TIP3    H255814   1.474   5.955  13.018 -2.0437 -0.0654  0.4384
11467TIP3   OH255815   4.332   3.963  11.195  0.2302  0.1642  0.0001
11467TIP3    H155816   4.254   3.909  11.184  1.2521 -1.5462  0.9012
11467TIP3    H255817   4.301   4.042  11.240 -1.0786 -0.2010 -0.2550
11468TIP3   OH255818   6.042   2.151  11.933  0.1486  0.4656 -0.2301
11468TIP3    H155819   6.010   2.225  11.985 -0.1468 -0.1649  0.4959
11468TIP3    H255820   5.968   2.091  11.929  1.3237 -1.1348  1.6924
11469TIP3   OH255821   1.586   6.783   2.373 -0.5847 -0.0444  0.2838
11469TIP3    H155822   1.589   6.778   2.468  0.7590  1.4888  0.3510
11469TIP3    H255823   1.498   6.815   2.353 -0.5568  0.5385  1.0752
11470TIP3   OH255824   0.416   6.081   3.156 -0.3321  0.0582  1.0312
11470TIP3    H155825   0.500   6.041   3.180 -0.3325 -0.0567  0.8437
11470TIP3    H255826   0.425   6.173   3.182  0.2218  0.2705  0.1123
11471TIP3   OH255827   6.242   2.511  16.305  0.2913  1.3947  0.6506
11471TIP3    H155828   6.206   2.593  16.341  0.4323  1.3874  0.8070
11471TIP3    H255829   6.263   2.459  16.382  1.5079  1.7684  0.5717
11472TIP3   OH255830   2.692   4.833   2.950  0.2673  0.3752  0.1495
11472TIP3    H155831   2.747   4.846   2.873 -1.3174  1.1057 -0.9005
11472TIP3    H255832   2.671   4.921   2.980  1.3836  0.0826  1.8030
11473TIP3   OH255833   6.271   2.845   4.381 -0.3819 -0.4065 -0.0235
11473TIP3    H155834   6.299   2.845   4.473 -2.1267 -0.2518  0.5189
11473TIP3    H255835   6.307   2.926   4.345  1.5162 -1.1609  0.1358
11474TIP3   OH255836   6.707   3.564  12.423 -0.1541  0.1515 -0.5336
11474TIP3    H155837   6.717   3.658  12.412 -2.2033  0.1818 -2.3320
11474TIP3    H255838   6.739   3.527  12.341 -1.3027 -0.6025 -0.6480
11475TIP3   OH255839   2.534   0.143   3.844 -0.1455  0.0522  0.1753
11475TIP3    H155840   2.469   0.078   3.817  0.2302 -0.7387  1.1535
11475TIP3    H255841   2.487   0.226   3.841 -0.8500 -0.3548 -0.3503
11476TIP3   OH255842   6.729   3.144   6.334 -0.6704 -0.3969  0.0136
11476TIP3    H155843   6.795   3.110   6.394  0.1396 -1.8113 -1.6227
11476TIP3    H255844   6.673   3.069   6.315 -1.2328  0.1691 -0.5759
11477TIP3   OH255845   0.924   5.178  14.986 -0.5487  0.0352 -0.6235
11477TIP3    H155846   0.844   5.147  15.028 -0.4375 -0.2627 -0.6258
11477TIP3    H255847   0.991   5.171  15.055 -0.2180 -1.1106 -1.0440
11478TIP3   OH255848   1.236   5.475  15.565 -0.5247 -0.0913  0.2918
11478TIP3    H155849   1.271   5.387  15.579  1.5334  0.6965  0.3937
11478TIP3    H255850   1.260   5.523  15.644 -0.0251  1.0375 -0.5234
11479TIP3   OH255851   2.640   3.820  16.252 -0.5689  0.2123 -0.0723
11479TIP3    H155852   2.546   3.830  16.267 -0.3870  0.1022  1.2266
11479TIP3    H255853   2.656   3.726  16.258 -0.2587  0.2964  0.4907
11480TIP3   OH255854   4.179   5.142   2.001  0.4998  0.8924  0.4984
11480TIP3    H155855   4.207   5.165   2.090 -2.7749  1.3647  1.4628
11480TIP3    H255856   4.168   5.046   2.004 -0.2030  0.9802  0.7895
11481TIP3   OH255857   4.605   0.300  14.504  0.4024  0.1158  0.4829
11481TIP3    H155858   4.582   0.360  14.576 -0.2665  2.6453 -1.7396
11481TIP3    H255859   4.689   0.334  14.471 -1.3376  1.6609 -2.5990
11482TIP3   OH255860   4.550   4.589  12.501 -0.3178  0.0196 -0.1215
11482TIP3    H155861   4.464   4.581  12.460 -0.3295 -0.0096 -0.0917
11482TIP3    H255862   4.612   4.583  12.428 -0.2983 -1.0910 -0.0196
11483TIP3   OH255863   5.175   5.031   2.113  0.2151  0.2451  0.5949
11483TIP3    H155864   5.192   5.031   2.207 -0.7587  0.2210  0.7716
11483TIP3    H255865   5.256   4.997   2.075  0.7212  0.5234  1.4004
11484TIP3   OH255866   4.710   3.592  15.734  0.2191  0.4272  0.1485
11484TIP3    H155867   4.718   3.681  15.699  1.3603  0.4926  0.5402
11484TIP3    H255868   4.785   3.545  15.698 -0.5175 -0.4547 -0.2599
11485TIP3   OH255869   2.892   1.555  11.538 -0.7833 -0.0889 -0.0809
11485TIP3    H155870   2.940   1.505  11.471 -0.7529 -1.2816  0.8225
11485TIP3    H255871   2.800   1.537  11.520 -0.7424 -1.3060  0.8692
11486TIP3   OH255872   2.058   2.908   0.029  0.6340 -0.5220 -0.0196
11486TIP3    H155873   2.010   2.829   0.007 -0.7086  0.7126 -1.7063
11486TIP3    H255874   2.085   2.944  -0.056  0.7178  1.1363  0.6774
11487TIP3   OH255875   4.902   5.423  13.754  0.0532  0.3994 -0.2715
11487TIP3    H155876   4.910   5.423  13.659  0.9465  0.7575 -0.2078
11487TIP3    H255877   4.816   5.462  13.771 -0.4406 -0.3841 -0.9420
11488TIP3   OH255878   1.182   3.911  15.805  0.7562  0.2442 -0.5874
11488TIP3    H155879   1.166   3.991  15.856  1.1879  0.0035 -0.0527
11488TIP3    H255880   1.096   3.880  15.780  0.4816 -0.0068  0.6056
11489TIP3   OH255881   5.541   3.331  15.501  0.1119 -0.2799  0.2598
11489TIP3    H155882   5.626   3.340  15.460 -0.0236 -1.8085 -0.4010
11489TIP3    H255883   5.542   3.244  15.540  0.2895  1.1733  3.6880
11490TIP3   OH255884   1.450   4.897  15.251 -0.1483 -0.3229  0.4544
11490TIP3    H155885   1.447   4.908  15.346 -0.9130  0.4427  0.3440
11490TIP3    H255886   1.390   4.825  15.232 -1.8705  1.1121  0.3265
11491TIP3   OH255887   5.647   0.119  16.701  0.8011  0.2832 -0.3479
11491TIP3    H155888   5.721   0.143  16.645  0.5017 -0.7501 -1.2175
11491TIP3    H255889   5.608   0.203  16.727 -0.2701  0.7855 -3.3493
11492TIP3   OH255890   2.496   1.765  14.814 -0.2947 -0.5835 -0.2561
11492TIP3    H155891   2.512   1.822  14.739 -0.3213 -0.5149 -0.2093
11492TIP3    H255892   2.551   1.688  14.798  2.0596  0.7405  1.1542
11493TIP3   OH255893   6.681   2.452  11.453 -0.1081 -0.2666 -0.0110
11493TIP3    H155894   6.644   2.463  11.366 -1.1184  3.1857  0.7810
11493TIP3    H255895   6.774   2.471  11.442 -0.5868  2.2388 -0.0215
11494TIP3   OH255896   6.237   2.192   3.310  0.2455 -0.0395 -0.1398
11494TIP3    H155897   6.332   2.183   3.311  0.3553  0.9944 -0.3800
11494TIP3    H255898   6.205   2.128   3.373  1.1578  0.2757  0.6373
11495TIP3   OH255899   5.625   3.723   2.646 -0.7067 -0.1087 -0.0964
11495TIP3    H155900   5.680   3.654   2.609 -1.3487  0.1313 -1.5396
11495TIP3    H255901   5.630   3.710   2.740  1.4812 -0.3598 -0.2184
11496TIP3   OH255902   1.223   6.522   5.115  0.0487 -0.3618  0.4603
11496TIP3    H155903   1.166   6.597   5.104 -2.6473 -2.3235  0.6538
11496TIP3    H255904   1.293   6.553   5.173 -0.3419  2.2853 -0.4093
11497TIP3   OH255905   1.771   4.900   0.630 -0.3307 -0.2290  0.3814
11497TIP3    H155906   1.834   4.970   0.645  0.2186 -0.7794  0.7131
11497TIP3    H255907   1.774   4.847   0.710 -1.1718 -0.2961  0.3749
11498TIP3   OH255908   6.664   0.784  14.544 -0.6338  0.0156 -0.1367
11498TIP3    H155909   6.573   0.757  14.538 -0.7011 -0.0034  0.8330
11498TIP3    H255910   6.659   0.879  14.561 -0.5036 -0.1091  0.6479
11499TIP3   OH255911   2.542   3.353   5.596  0.6004  0.4135 -0.1606
11499TIP3    H155912   2.552   3.412   5.670 -1.1994  0.2330  0.2416
11499TIP3    H255913   2.621   3.367   5.543  0.7696  2.2605  0.5668
11500TIP3   OH255914   6.122   1.453  14.557 -0.3015  0.8580 -0.2667
11500TIP3    H155915   6.132   1.547  14.543 -2.0417  0.7832 -2.3628
11500TIP3    H255916   6.192   1.413  14.506 -0.4831  0.9752 -0.6110
11501TIP3   OH255917   2.912   1.784   5.554  0.4605  0.6150 -0.5429
11501TIP3    H155918   2.999   1.818   5.575  0.5494  0.6027 -0.8817
11501TIP3    H255919   2.925   1.689   5.547 -0.2408  0.2178  2.6666
11502TIP3   OH255920   6.128   2.906   5.739 -0.4329 -0.3216 -0.3690
11502TIP3    H155921   6.055   2.844   5.741 -0.7475 -0.0970 -3.0460
11502TIP3    H255922   6.103   2.975   5.801 -1.7219 -1.0659 -0.0485
11503TIP3   OH255923   3.921   1.875   0.404  0.2120  0.2517  0.4734
11503TIP3    H155924   3.984   1.803   0.411 -0.7735 -0.5900  1.0123
11503TIP3    H255925   3.877   1.859   0.321 -0.4505 -0.1538  0.8948
11504TIP3   OH255926   0.701   5.443  15.154 -0.6974 -0.6682 -0.0984
11504TIP3    H155927   0.759   5.495  15.099 -0.3900 -0.9407 -0.0339
11504TIP3    H255928   0.732   5.353  15.143  0.3793 -0.5472  1.7403
11505TIP3   OH255929   3.598   1.335  14.754  0.3180  0.0452  0.2688
11505TIP3    H155930   3.542   1.350  14.679  0.3852  1.2247  0.4366
11505TIP3    H255931   3.542   1.353  14.830  0.1896 -1.3403  0.5135
11506TIP3   OH255932   2.178   1.860  13.250  0.0273  0.1403 -0.2571
11506TIP3    H155933   2.116   1.919  13.292  0.1473 -0.3456  0.6137
11506TIP3    H255934   2.204   1.799  13.319  0.3835 -0.5405 -0.9790
11507TIP3   OH255935   3.360   1.444  16.401  0.0599  0.3380 -0.2050
11507TIP3    H155936   3.277   1.443  16.449  0.7816 -0.9807  1.0400
11507TIP3    H255937   3.336   1.420  16.312 -0.8144 -0.6506  0.2939
11508TIP3   OH255938   5.838   2.297  12.293 -0.0747  0.0558 -0.3289
11508TIP3    H155939   5.864   2.216  12.336  0.7619  0.2415 -0.4691
11508TIP3    H255940   5.838   2.362  12.363  0.9631  0.2905 -0.5479
11509TIP3   OH255941   1.323   1.658   0.667  0.3474  0.4655  0.5803
11509TIP3    H155942   1.291   1.718   0.599  0.4541 -0.2695 -0.1182
11509TIP3    H255943   1.407   1.627   0.635  0.7372  0.6793  1.3910
11510TIP3   OH255944   4.087   2.791   0.256  0.3286  0.1883  0.0216
11510TIP3    H155945   4.026   2.863   0.271  0.9192  0.6558  0.1855
11510TIP3    H255946   4.080   2.737   0.334 -0.9619 -0.5507 -0.5994
11511TIP3   OH255947   4.204   3.535   5.727  0.1437 -0.8306  0.1796
11511TIP3    H155948   4.172   3.622   5.752 -2.8131 -2.2388  1.5864
11511TIP3    H255949   4.236   3.546   5.637  1.1651  1.9983  0.8341
11512TIP3   OH255950   6.767   5.788   2.053 -0.0744  0.1625 -0.0380
11512TIP3    H155951   6.795   5.852   1.988 -0.9706 -0.7705 -1.3703
11512TIP3    H255952   6.836   5.722   2.053 -1.5631 -1.5105 -2.4462
11513TIP3   OH255953   5.363   5.080  12.194 -0.1932 -0.2462  0.0836
11513TIP3    H155954   5.386   5.002  12.142  1.6219  1.5432 -1.9298
11513TIP3    H255955   5.295   5.123  12.143 -1.8744 -0.9664  1.6727
11514TIP3   OH255956   2.875   0.772   3.654 -0.1536 -0.4824 -0.0110
11514TIP3    H155957   2.959   0.796   3.615 -0.8852 -1.6593 -2.3561
11514TIP3    H255958   2.894   0.692   3.703 -0.0281 -1.1295 -1.0966
11515TIP3   OH255959   5.311   4.101  10.487  0.1810  0.4348 -0.0166
11515TIP3    H155960   5.268   4.044  10.551 -2.7819  1.4169 -1.0664
11515TIP3    H255961   5.347   4.173  10.539  0.0663 -0.1027  0.8189
11516TIP3   OH255962   4.433   0.218  16.361  0.1368  0.2954  0.9640
11516TIP3    H155963   4.521   0.230  16.324 -0.2227  0.5200  0.1823
11516TIP3    H255964   4.407   0.306  16.388 -0.8059  0.6480 -0.9780
11517TIP3   OH255965   6.693   0.371   3.763 -0.3838 -0.2924 -0.5510
11517TIP3    H155966   6.626   0.422   3.717  0.4775  1.3841  0.0122
11517TIP3    H255967   6.761   0.435   3.783 -0.7410 -0.9802  3.0588
11518TIP3   OH255968   5.356   6.614   1.232  0.3102  0.0209  0.0952
11518TIP3    H155969   5.285   6.566   1.188 -0.0787  1.7239 -1.2069
11518TIP3    H255970   5.313   6.689   1.272  1.3586  1.0535 -0.6783
11519TIP3   OH255971   6.486   3.290  13.021 -0.1242 -0.3890 -0.1893
11519TIP3    H155972   6.493   3.195  13.024 -1.1729 -0.5188 -1.3437
11519TIP3    H255973   6.458   3.309  12.931 -0.2815  0.9830  0.1357
11520TIP3   OH255974   1.609   3.711   4.882  0.6550 -0.6919 -0.2770
11520TIP3    H155975   1.579   3.752   4.964 -0.2136 -1.7338 -0.0652
11520TIP3    H255976   1.701   3.691   4.898  0.7168 -0.1228  0.1309
11521TIP3   OH255977   1.051   3.549  13.571  0.2699 -0.3436 -0.0070
11521TIP3    H155978   0.979   3.546  13.633 -0.5445  3.6555 -0.6392
11521TIP3    H255979   1.093   3.634  13.585  2.1787 -0.7692 -2.5826
11522TIP3   OH255980   4.309   5.158  12.790 -0.3438 -0.1691 -0.2645
11522TIP3    H155981   4.232   5.106  12.815 -0.9477 -0.0684 -1.9060
11522TIP3    H255982   4.379   5.094  12.781 -0.9498 -0.6366 -1.7081
11523TIP3   OH255983   3.580   1.491  15.321  0.1047 -0.0499  0.7784
11523TIP3    H155984   3.492   1.461  15.344 -0.1787  0.3911  0.2966
11523TIP3    H255985   3.584   1.481  15.226  0.0163  1.3822  0.6121
11524TIP3   OH255986   2.410   3.872   3.124 -0.1593  0.1191 -0.0741
11524TIP3    H155987   2.487   3.824   3.154 -0.6068 -0.9175 -0.5475
11524TIP3    H255988   2.381   3.824   3.047 -0.9441  0.8400 -0.2343
11525TIP3   OH255989   0.393   6.261   4.908  0.4393  0.0582 -0.1545
11525TIP3    H155990   0.300   6.251   4.889 -0.1413 -0.1820  2.6109
11525TIP3    H255991   0.399   6.258   5.004  3.1435  1.3328 -0.2199
11526TIP3   OH255992   0.793   5.023  11.644  0.1878  0.1311 -0.1406
11526TIP3    H155993   0.703   5.044  11.620  0.8038  1.1262 -1.6575
11526TIP3    H255994   0.808   4.935  11.609  0.1373  0.3984 -0.8484
11527TIP3   OH255995   2.327   4.979  12.692  0.2531  0.9037  0.1605
11527TIP3    H155996   2.244   4.992  12.646 -0.6762 -0.2880  1.4786
11527TIP3    H255997   2.333   4.885  12.705  2.0263  0.9365 -0.2760
11528TIP3   OH255998   6.037   3.789  11.111 -0.4502  0.0619 -0.1895
11528TIP3    H155999   6.040   3.693  11.110 -0.7499  0.0570 -0.9134
11528TIP3    H256000   5.970   3.811  11.046  2.5427  0.8988 -3.0984
11529TIP3   OH256001   4.310   4.577   4.198  0.0907  0.4738 -0.1679
11529TIP3    H156002   4.397   4.607   4.225  0.1903 -1.6984  2.1394
11529TIP3    H256003   4.328   4.508   4.133  0.0600  0.7831 -0.5051
11530TIP3   OH256004   0.870   0.996   1.900  0.3568 -0.1711 -0.4172
11530TIP3    H156005   0.865   1.090   1.911  1.5818 -0.1097 -0.3077
11530TIP3    H256006   0.945   0.982   1.842  0.2331 -1.0733 -0.3775
11531TIP3   OH256007   1.811   0.799   3.456  0.3965 -0.1688  0.3770
11531TIP3    H156008   1.803   0.882   3.504  5.3104  0.0174  1.1328
11531TIP3    H256009   1.754   0.739   3.503 -0.6318  1.9046  1.8924
11532TIP3   OH256010   5.251   1.102   1.118 -0.2812 -0.1194 -0.0364
11532TIP3    H156011   5.219   1.013   1.102 -0.1868 -0.1739  0.0830
11532TIP3    H256012   5.302   1.096   1.199 -0.0761 -0.0064 -0.1554
11533TIP3   OH256013   3.573   4.111   0.786  0.3351 -0.1932  0.4599
11533TIP3    H156014   3.563   4.145   0.696 -0.9872 -0.6858  0.4074
11533TIP3    H256015   3.486   4.123   0.825  0.6471 -0.8891  1.3676
11534TIP3   OH256016   1.559   4.333  11.337 -0.3991 -0.2046 -0.3287
11534TIP3    H156017   1.549   4.278  11.260 -2.4867 -0.3580  0.0227
11534TIP3    H256018   1.477   4.382  11.343 -0.1447  0.0463  1.6098
11535TIP3   OH256019   1.621   3.086   1.431 -0.0552 -0.6580 -0.4874
11535TIP3    H156020   1.551   3.022   1.414  0.8207 -1.6193 -0.5036
11535TIP3    H256021   1.600   3.160   1.375 -2.0685 -0.1983  0.8170
11536TIP3   OH256022   2.226   4.534  15.147  0.3680 -0.1709 -0.6596
11536TIP3    H156023   2.292   4.480  15.191  0.7141  0.3587 -0.5256
11536TIP3    H256024   2.171   4.471  15.100  0.8576 -0.6292 -0.6220
11537TIP3   OH256025   6.368   4.996  13.243  0.1893  0.1230  0.3883
11537TIP3    H156026   6.308   5.012  13.316 -0.9251 -0.4611 -0.3833
11537TIP3    H256027   6.403   5.082  13.220  0.2153  0.3642  1.3291
11538TIP3   OH256028   6.085   1.902  14.736 -0.3073 -0.1008 -0.2306
11538TIP3    H156029   6.095   1.973  14.799  2.3730 -1.6025  1.0817
11538TIP3    H256030   6.032   1.837  14.781  0.3899 -0.5451 -0.0451
11539TIP3   OH256031   4.362   0.247   0.931  0.4430 -0.1097  0.4181
11539TIP3    H156032   4.298   0.209   0.871  0.5343  0.0781  0.2021
11539TIP3    H256033   4.334   0.218   1.018  0.9329 -1.2993  0.1883
11540TIP3   OH256034   5.325   2.285   4.401 -0.1767 -0.1511  0.1647
11540TIP3    H156035   5.399   2.272   4.343 -1.8327  0.5349 -2.1836
11540TIP3    H256036   5.305   2.197   4.435  1.0341 -0.4927 -0.0127
11541TIP3   OH256037   6.174   3.925   5.600 -0.1546 -0.0880  0.3421
11541TIP3    H156038   6.116   3.852   5.577 -0.6170  0.3034  0.2459
11541TIP3    H256039   6.195   3.965   5.517  0.1222 -0.1290  0.3934
11542TIP3   OH256040   3.217   5.854  12.144  0.0675  0.2430 -0.2045
11542TIP3    H156041   3.146   5.893  12.093  0.1294 -2.4018 -2.4200
11542TIP3    H256042   3.173   5.810  12.216 -0.3391  0.7008 -0.1684
11543TIP3   OH256043   6.612   0.663   3.671 -0.3176  0.0822 -0.0046
11543TIP3    H156044   6.517   0.662   3.661 -0.3402 -1.5325  0.1847
11543TIP3    H256045   6.626   0.669   3.765 -0.2392 -0.0261 -0.0096
11544TIP3   OH256046   3.533   1.410   0.844  0.1972  0.3339 -1.0989
11544TIP3    H156047   3.535   1.377   0.934  1.9963 -1.3769 -1.7476
11544TIP3    H256048   3.527   1.505   0.854  0.4306  0.1637  0.8249
11545TIP3   OH256049   1.406   2.683   5.519 -0.0700 -0.1759  0.1291
11545TIP3    H156050   1.495   2.647   5.513 -0.0751  0.0864 -1.8718
11545TIP3    H256051   1.412   2.750   5.587  1.3956  0.2258 -0.3669
11546TIP3   OH256052   6.027   1.088   0.634  0.8830 -0.1976 -0.5092
11546TIP3    H156053   6.109   1.104   0.681  0.0500 -1.4622  1.4446
11546TIP3    H256054   6.051   1.030   0.562  1.8353  0.1347 -0.4683
11547TIP3   OH256055   1.729   0.017   5.366 -0.1832  0.1877 -0.3479
11547TIP3    H156056   1.803   0.072   5.392  0.0989 -0.8037  1.0030
11547TIP3    H256057   1.654   0.077   5.368 -0.0376  0.3522  2.0466
11548TIP3   OH256058   2.823   6.150   2.366 -0.1161  0.2427 -0.6026
11548TIP3    H156059   2.829   6.206   2.288 -0.6983  0.9445 -0.1548
11548TIP3    H256060   2.862   6.203   2.435 -2.7341  1.0440  0.3250
11549TIP3   OH256061   1.230   0.297  16.008  0.2722  0.1505  0.1118
11549TIP3    H156062   1.267   0.375  15.967  0.6780  0.9458  1.9436
11549TIP3    H256063   1.138   0.297  15.982  0.0186  1.8265  0.9537
11550TIP3   OH256064   5.807   2.467  14.496  0.0287  0.3026 -0.1233
11550TIP3    H156065   5.712   2.452  14.492  0.1678 -1.1386  1.2687
11550TIP3    H256066   5.838   2.450  14.407 -1.0965  1.3982 -0.7357
11551TIP3   OH256067   2.854   5.904  12.676  0.2512 -0.2339 -0.5750
11551TIP3    H156068   2.774   5.938  12.716  1.2038  0.1212  1.0955
11551TIP3    H256069   2.901   5.982  12.646  0.4947 -0.3702 -0.5421
11552TIP3   OH256070   0.398   0.224  12.632  0.4364 -0.3562  0.1473
11552TIP3    H156071   0.327   0.269  12.676  0.7070  0.0153  0.2075
11552TIP3    H256072   0.365   0.136  12.616 -1.4605  0.8893 -3.2729
11553TIP3   OH256073   6.635   3.142   3.228 -0.2608 -0.0281 -0.1545
11553TIP3    H156074   6.712   3.199   3.227 -1.7495  2.1139  2.0872
11553TIP3    H256075   6.561   3.201   3.235 -2.0356 -2.1387 -0.4082
11554TIP3   OH256076   0.260   2.696  17.098 -0.3475  0.5966 -0.2386
11554TIP3    H156077   0.232   2.667  17.012  0.3947  1.9631 -0.9603
11554TIP3    H256078   0.199   2.766  17.122  0.3446  1.2353 -0.3147
11555TIP3   OH256079   3.303   0.333  15.586  0.1599 -0.3715 -0.2965
11555TIP3    H156080   3.239   0.397  15.555  0.2861  0.6131  1.4111
11555TIP3    H256081   3.251   0.255  15.605 -0.3836  0.0722  0.0624
11556TIP3   OH256082   6.734   4.179  16.849  0.1707  0.0502  0.4953
11556TIP3    H156083   6.778   4.262  16.862 -1.1538  0.6784  1.0138
11556TIP3    H256084   6.720   4.144  16.937 -1.0916  0.2473  0.3835
11557TIP3   OH256085   6.006   4.526  12.240  0.8134 -0.1890  0.0065
11557TIP3    H156086   6.004   4.475  12.321 -1.7551 -1.4291 -0.7891
11557TIP3    H256087   5.931   4.585  12.247  1.2330  0.4669 -0.9776
11558TIP3   OH256088   0.900   0.055   5.665 -0.1298  0.0291 -0.0113
11558TIP3    H156089   0.941   0.093   5.587 -0.7072  0.0104 -0.3240
11558TIP3    H256090   0.824   0.111   5.681 -0.5569 -0.5468 -0.0301
11559TIP3   OH256091   0.641   2.512   5.318  0.0228 -0.9231  0.6243
11559TIP3    H156092   0.610   2.595   5.282 -0.5462 -0.8333  1.3222
11559TIP3    H256093   0.583   2.446   5.280  2.1323 -1.3352 -2.0737
11560TIP3   OH256094   3.177   6.569  12.639  0.0526  0.2953 -0.3426
11560TIP3    H156095   3.269   6.592  12.652  0.6057 -2.4070  0.7866
11560TIP3    H256096   3.168   6.556  12.545  1.1778 -0.8728 -0.2901
11561TIP3   OH256097   5.515   5.383   2.557 -0.0810 -0.6057  0.1819
11561TIP3    H156098   5.458   5.412   2.628  0.6613 -0.6871  0.8217
11561TIP3    H256099   5.532   5.463   2.506 -0.0813 -0.4157  0.4814
11562TIP3   OH256100   0.644   4.569  14.001  0.4115  0.2637  0.0804
11562TIP3    H156101   0.738   4.579  13.990  0.4473  0.1901  0.3379
11562TIP3    H256102   0.614   4.656  14.027  0.3583  0.3790 -0.3637
11563TIP3   OH256103   6.543   5.025   3.411  0.0581 -0.1275  0.4291
11563TIP3    H156104   6.574   5.054   3.497  2.6601 -2.1152  0.2306
11563TIP3    H256105   6.617   5.042   3.352 -1.5657  0.8655 -1.3430
11564TIP3   OH256106   3.218   0.124  12.117  0.0896 -0.0047 -0.4109
11564TIP3    H156107   3.201   0.192  12.182  0.7124  1.6580 -1.9593
11564TIP3    H256108   3.313   0.119  12.111  0.0430  0.6240 -1.9603
11565TIP3   OH256109   3.533   5.980  12.913  0.1448  0.0081  0.3072
11565TIP3    H156110   3.628   5.991  12.911  0.2924 -1.1405  0.9396
11565TIP3    H256111   3.507   5.979  12.820  0.6453  1.0789  0.1460
11566TIP3   OH256112   6.287   5.635   5.665  0.1833 -0.3738 -0.1147
11566TIP3    H156113   6.204   5.676   5.690 -1.0121 -1.4473 -2.1546
11566TIP3    H256114   6.294   5.558   5.722  0.3877  0.3966  0.9020
11567TIP3   OH256115   4.225   5.630  14.814  0.0926  0.0109 -0.2062
11567TIP3    H156116   4.160   5.699  14.801 -0.2254 -0.5166 -1.4278
11567TIP3    H256117   4.183   5.570  14.876  0.0753  0.5280  0.2871
11568TIP3   OH256118   4.333   2.013   0.819 -0.0989 -0.4492  0.2117
11568TIP3    H156119   4.375   2.091   0.857  1.0994 -0.9833  0.0136
11568TIP3    H256120   4.401   1.945   0.824 -0.0969 -0.6842 -2.3749
11569TIP3   OH256121   4.286   1.139  12.431  0.0986 -0.0464  0.4268
11569TIP3    H156122   4.217   1.132  12.365  2.0420 -2.1982 -1.4615
11569TIP3    H256123   4.243   1.118  12.513 -1.7892  0.0318 -0.5129
11570TIP3   OH256124   3.413   3.695   3.589 -0.0323  0.7906 -0.5052
11570TIP3    H156125   3.331   3.646   3.591 -0.4886  1.5308 -0.8069
11570TIP3    H256126   3.448   3.678   3.501  0.9890 -0.8944  0.2134
11571TIP3   OH256127   1.656   0.065   5.976  0.0523  0.7089 -0.6473
11571TIP3    H156128   1.607  -0.003   5.931 -0.2382  0.5222 -0.0455
11571TIP3    H256129   1.599   0.093   6.047 -0.4453  2.5843 -1.7277
11572TIP3   OH256130   2.839   3.201   4.036 -0.1181  0.7658  0.2935
11572TIP3    H156131   2.887   3.202   4.118 -0.1342 -0.9283  0.3233
11572TIP3    H256132   2.768   3.264   4.050  0.4645  1.2337  1.2115
11573TIP3   OH256133   2.097   6.386   4.963 -0.3519  0.3185 -0.1875
11573TIP3    H156134   2.168   6.336   4.923 -0.6352 -0.8567  0.7397
11573TIP3    H256135   2.019   6.333   4.947 -0.7135  0.6522  0.4758
11574TIP3   OH256136   6.620   6.571   2.242  0.3699 -0.3132  0.4734
11574TIP3    H156137   6.603   6.504   2.177  0.8395  0.6582 -0.6684
11574TIP3    H256138   6.707   6.606   2.219  0.1867  0.5938  1.1189
11575TIP3   OH256139   6.437   5.678  14.736 -0.5577  0.2264 -0.2648
11575TIP3    H156140   6.381   5.662  14.812 -0.6468  1.7068  0.0060
11575TIP3    H256141   6.411   5.613  14.672 -1.4944 -0.1051  0.4418
11576TIP3   OH256142   3.270   3.878   4.223  0.3487  0.4193  0.4411
11576TIP3    H156143   3.333   3.897   4.154 -0.3248 -0.4185 -0.4300
11576TIP3    H256144   3.256   3.783   4.217 -1.2938  0.6506  0.3432
11577TIP3   OH256145   4.081   6.446   4.435  0.1484 -0.0126 -0.2681
11577TIP3    H156146   4.165   6.465   4.393  0.5470 -0.1845  0.4470
11577TIP3    H256147   4.026   6.522   4.414  1.0734  0.9831  0.8261
11578TIP3   OH256148   0.250   0.746   2.745  0.0676  0.1401  0.1237
11578TIP3    H156149   0.240   0.653   2.765  1.1516 -0.4290 -1.8832
11578TIP3    H256150   0.343   0.764   2.757 -0.1267  0.9458  0.4507
11579TIP3   OH256151   1.966   0.283  15.049 -0.0694  0.1775 -0.1018
11579TIP3    H156152   1.952   0.255  15.140 -0.5497  0.1979 -0.1675
11579TIP3    H256153   1.880   0.309  15.018  0.0541 -0.0294 -0.6324
11580TIP3   OH256154   2.490   0.890  11.656  0.2803  0.0618 -0.2315
11580TIP3    H156155   2.496   0.823  11.588  1.4428 -0.3826  0.2959
11580TIP3    H256156   2.575   0.888  11.699 -0.3900  0.4431  1.1428
11581TIP3   OH256157   0.562   5.481   5.694 -0.4341 -0.4043 -0.1433
11581TIP3    H156158   0.577   5.571   5.721 -1.5322 -0.1957 -0.2163
11581TIP3    H256159   0.484   5.454   5.742  0.7428 -1.8198  1.0433
11582TIP3   OH256160   6.106   2.474  15.482  0.0648  0.5762  0.7693
11582TIP3    H156161   6.188   2.516  15.510 -1.4403  2.1261  3.0800
11582TIP3    H256162   6.070   2.534  15.416  0.3935  0.2888  0.3231
11583TIP3   OH256163   4.159   5.563   0.859 -0.0468  0.0393  0.6169
11583TIP3    H156164   4.155   5.468   0.847  1.6471  0.0032  0.2131
11583TIP3    H256165   4.178   5.598   0.772  0.6915  0.6455  1.0146
11584TIP3   OH256166   0.467   5.665   3.961  0.4058 -0.2414 -0.3022
11584TIP3    H156167   0.533   5.607   3.999  0.3555  0.2508  0.5391
11584TIP3    H256168   0.516   5.744   3.936  0.3370 -0.3318 -0.7170
11585TIP3   OH256169   4.514   0.558  13.363 -0.3833 -0.6429 -0.1273
11585TIP3    H156170   4.548   0.621  13.299  2.4282 -0.4606  1.4551
11585TIP3    H256171   4.474   0.613  13.431 -0.2961 -0.6885 -0.0397
11586TIP3   OH256172   3.444   6.145  16.666  0.2623  0.1491 -0.3854
11586TIP3    H156173   3.442   6.184  16.579  0.3564 -0.1099 -0.5033
11586TIP3    H256174   3.384   6.070  16.660 -0.8248  0.9663  0.1798
11587TIP3   OH256175   3.608   1.053  15.041  0.0335  0.4107  0.5891
11587TIP3    H156176   3.686   1.084  15.088  0.4746 -0.1055  0.1971
11587TIP3    H256177   3.535   1.080  15.097  0.4995  0.7354  1.0523
11588TIP3   OH256178   4.565   6.193  13.798  0.1682 -0.5442 -0.2729
11588TIP3    H156179   4.525   6.265  13.847  1.1202 -0.9969  1.2326
11588TIP3    H256180   4.506   6.178  13.724  0.3248  2.2148 -0.9861
11589TIP3   OH256181   3.878   2.831   5.421 -0.5033 -0.0674  0.3706
11589TIP3    H156182   3.792   2.810   5.458 -0.6481  0.3306  0.2674
11589TIP3    H256183   3.923   2.878   5.491 -0.4517 -0.0822  0.3472
11590TIP3   OH256184   3.943   6.065  14.129 -0.2846 -0.1982  0.2586
11590TIP3    H156185   3.915   6.106  14.048 -2.3454 -0.7901  0.6423
11590TIP3    H256186   4.033   6.037  14.112 -0.5820 -0.0245 -1.6964
11591TIP3   OH256187   6.443   1.960   2.774 -0.8652  0.1723 -1.2033
11591TIP3    H156188   6.480   2.044   2.801 -0.1949 -0.1447 -1.1551
11591TIP3    H256189   6.396   1.928   2.851 -2.8371  1.4492 -1.8080
11592TIP3   OH256190   3.591   1.677   4.840 -0.1117  0.0385 -0.6766
11592TIP3    H156191   3.597   1.606   4.776 -0.4407 -1.5984  1.0918
11592TIP3    H256192   3.497   1.690   4.852 -0.0653 -1.2763  1.2321
11593TIP3   OH256193   4.955   1.124  13.737 -0.0195 -0.5271  0.1671
11593TIP3    H156194   4.970   1.185  13.809 -1.1024 -0.0873  0.0221
11593TIP3    H256195   5.019   1.151  13.670 -0.8584  0.8183 -0.1215
11594TIP3   OH256196   4.266   2.844  12.944  0.1447  0.0238  0.7753
11594TIP3    H156197   4.339   2.840  13.006  0.1220 -1.9462  0.7224
11594TIP3    H256198   4.208   2.773  12.972 -0.8244  0.3786 -0.3187
11595TIP3   OH256199   4.624   1.902  15.549  0.3433  0.1077  0.4023
11595TIP3    H156200   4.565   1.852  15.605  0.1840 -0.4566 -0.2661
11595TIP3    H256201   4.698   1.925  15.607 -1.0982  1.9263  1.5915
11596TIP3   OH256202   3.246   1.371   0.078 -0.3482 -0.0375 -0.8601
11596TIP3    H156203   3.235   1.277   0.094  0.9942  0.0665  0.9048
11596TIP3    H256204   3.162   1.410   0.102 -0.5389 -0.6677 -0.5000
11597TIP3   OH256205   0.797   1.448  13.500  0.7005  0.4519 -0.0656
11597TIP3    H156206   0.789   1.355  13.481 -0.0252  0.3984  0.4747
11597TIP3    H256207   0.708   1.475  13.526  0.7282  1.4645 -0.9886
11598TIP3   OH256208   0.876   0.396  12.113  0.1419 -0.0547 -0.1663
11598TIP3    H156209   0.900   0.322  12.057  2.1656  0.6585 -0.2780
11598TIP3    H256210   0.868   0.470  12.052 -0.4504  0.1334  0.1337
11599TIP3   OH256211   6.230   3.429  16.317  0.5177 -0.1645 -0.1504
11599TIP3    H156212   6.325   3.439  16.306  0.6851  0.2540  1.5103
11599TIP3    H256213   6.219   3.410  16.410 -0.9807 -0.9020 -0.4666
11600TIP3   OH256214   1.443   0.597  13.083  0.7485  0.1592 -0.2305
11600TIP3    H156215   1.382   0.590  13.010 -1.3652  0.3767  1.4447
11600TIP3    H256216   1.433   0.688  13.114  1.6772  0.1010  0.2738
11601TIP3   OH256217   5.754   3.082   0.771 -0.0346  0.1070  0.5608
11601TIP3    H156218   5.780   3.089   0.863  2.0045 -2.6104  0.2548
11601TIP3    H256219   5.666   3.046   0.774  0.7078 -1.7368  1.4799
11602TIP3   OH256220   5.427   5.639   1.298  0.0802 -0.5669  0.4252
11602TIP3    H156221   5.344   5.594   1.315 -0.7175  0.9053  0.5796
11602TIP3    H256222   5.446   5.686   1.379  1.2556 -1.1773  0.5072
11603TIP3   OH256223   4.876   2.452   1.045 -0.2176 -0.0355  0.4491
11603TIP3    H156224   4.955   2.405   1.073  0.4401  0.1006 -1.1040
11603TIP3    H256225   4.906   2.543   1.032 -1.0884  0.4517  1.7557
11604TIP3   OH256226   0.957   2.407   5.601  0.4476 -0.0065 -0.5369
11604TIP3    H156227   0.955   2.316   5.631  0.8645  0.3646  0.6475
11604TIP3    H256228   1.009   2.453   5.668  1.5948  0.7898 -1.9549
11605TIP3   OH256229   3.758   5.961   0.249  0.0320 -0.2929 -0.0024
11605TIP3    H156230   3.849   5.942   0.268 -0.1230 -2.4211 -1.1998
11605TIP3    H256231   3.717   5.974   0.334  0.6433 -3.2771  0.7939
11606TIP3   OH256232   1.958   5.853   4.832 -0.4660 -0.3391 -1.1170
11606TIP3    H156233   2.016   5.910   4.781 -0.7150  1.4276  0.4856
11606TIP3    H256234   1.873   5.899   4.831 -0.9785 -1.2741 -0.7639
11607TIP3   OH256235   2.164   3.194  12.215 -0.3386  0.5785 -0.5920
11607TIP3    H156236   2.221   3.245  12.157 -1.0730  1.3837 -0.6121
11607TIP3    H256237   2.131   3.258  12.278 -0.8259  0.0178 -0.2761
11608TIP3   OH256238   4.694   0.177  11.130  0.0378 -0.1324 -0.0766
11608TIP3    H156239   4.672   0.223  11.048 -0.0233  0.1289  0.0849
11608TIP3    H256240   4.752   0.107  11.102 -0.9974 -0.8295 -0.5003
11609TIP3   OH256241   1.528   1.334  11.505 -0.1169 -0.5623 -0.2658
11609TIP3    H156242   1.487   1.418  11.486  1.4922  0.5279  0.9877
11609TIP3    H256243   1.455   1.271  11.505 -1.3095  0.7967 -1.2867
11610TIP3   OH256244   3.379   0.244   2.055  0.0780  0.4368 -0.4943
11610TIP3    H156245   3.355   0.234   1.963  1.6205 -1.1355 -0.7759
11610TIP3    H256246   3.425   0.328   2.060 -0.9927  1.0439 -0.9397
11611TIP3   OH256247   0.680   3.711  17.067  0.3464 -0.3586  0.6408
11611TIP3    H156248   0.636   3.782  17.112 -1.5422 -0.8140 -0.4461
11611TIP3    H256249   0.701   3.648  17.135  2.8280  1.5583  1.7718
11612TIP3   OH256250   5.968   2.907  12.273  0.4026  0.3212 -0.5588
11612TIP3    H156251   6.040   2.963  12.245  0.5603  0.1480 -0.5044
11612TIP3    H256252   5.941   2.943  12.357  1.2206 -0.3325 -0.0106
11613TIP3   OH256253   0.189   1.402   5.252 -0.0081  0.3191 -0.3571
11613TIP3    H156254   0.166   1.485   5.210  0.1693  0.5113 -0.0772
11613TIP3    H256255   0.105   1.368   5.284  0.2545  1.7692  2.0209
11614TIP3   OH256256   1.042   4.186  15.578  0.2173 -0.0481 -0.3990
11614TIP3    H156257   1.056   4.108  15.525  0.5964  0.4573 -1.0514
11614TIP3    H256258   1.128   4.229  15.580 -0.2096  0.8352 -0.8346
11615TIP3   OH256259   6.001   3.957   4.673  0.4315 -0.2090  0.2808
11615TIP3    H156260   5.983   3.967   4.579  2.1884 -1.7302 -0.2593
11615TIP3    H256261   5.994   4.046   4.708 -1.0144  0.2651 -1.1320
11616TIP3   OH256262   3.100   3.121   0.393  0.0222 -0.4456  0.2175
11616TIP3    H156263   3.141   3.152   0.473  0.6100  1.7450 -0.8856
11616TIP3    H256264   3.135   3.178   0.324 -1.7198 -1.1915 -1.3493
11617TIP3   OH256265   5.430   3.753  16.333  0.5176  0.0918  0.0222
11617TIP3    H156266   5.465   3.822  16.390  0.4281 -0.8955  1.2801
11617TIP3    H256267   5.336   3.756  16.348  0.5206 -0.3457  0.1375
11618TIP3   OH256268   1.129   6.043   5.334  0.4231  0.1640  0.3418
11618TIP3    H156269   1.102   6.056   5.425 -0.3038 -0.3870  0.2105
11618TIP3    H256270   1.047   6.032   5.286  0.7594  1.4892 -0.5575
11619TIP3   OH256271   2.028   4.096   5.920 -0.3318 -0.0145  0.3109
11619TIP3    H156272   2.092   4.053   5.977  0.5318 -0.7284 -1.1488
11619TIP3    H256273   1.960   4.030   5.906 -0.4787  0.1164  0.3984
11620TIP3   OH256274   5.743   1.082  13.431 -0.0495  0.7001 -0.6973
11620TIP3    H156275   5.775   1.164  13.468 -1.3383  1.1334 -0.5011
11620TIP3    H256276   5.661   1.106  13.387  0.2368 -0.2438 -1.7694
11621TIP3   OH256277   0.590   2.248   3.287 -0.3129  0.2602  0.1549
11621TIP3    H156278   0.518   2.207   3.335 -1.8062  1.6098 -0.8642
11621TIP3    H256279   0.598   2.335   3.326  0.4071  0.3236 -0.1182
11622TIP3   OH256280   0.855   1.755  13.222  0.1447  0.4434  0.1676
11622TIP3    H156281   0.941   1.713  13.223  0.4721  1.0693 -0.5216
11622TIP3    H256282   0.815   1.727  13.140  0.1218  0.9856 -0.0124
11623TIP3   OH256283   2.353   0.249   1.150 -0.0771 -0.0297  0.0973
11623TIP3    H156284   2.334   0.331   1.196 -0.2508  1.8500 -3.1580
11623TIP3    H256285   2.352   0.273   1.057  1.1692 -3.4753 -0.8810
11624TIP3   OH256286   4.296   4.108   3.577 -0.2409  0.0600  0.3893
11624TIP3    H156287   4.320   4.159   3.499  1.1801 -1.0342  0.0989
11624TIP3    H256288   4.222   4.054   3.549 -0.2685  0.2798  0.0390
11625TIP3   OH256289   2.155   2.717  12.143  0.1044  0.7080  0.0971
11625TIP3    H156290   2.112   2.800  12.158  0.2873  1.0345 -1.1606
11625TIP3    H256291   2.086   2.651  12.154  0.0265  0.9899  1.3832
11626TIP3   OH256292   1.944   1.242  16.204  0.2019 -0.0860 -0.4534
11626TIP3    H156293   2.015   1.219  16.144  0.0186  0.3916 -0.8527
11626TIP3    H256294   1.940   1.337  16.201  0.4772 -0.0387  0.6511
11627TIP3   OH256295   5.029   3.758   4.630 -0.3110  1.3448  0.3015
11627TIP3    H156296   5.123   3.766   4.615  0.0942 -0.9256  1.4213
11627TIP3    H256297   4.997   3.705   4.557 -0.7616  2.2819 -0.1851
11628TIP3   OH256298   6.738   0.592   4.709 -0.1637 -0.0438  0.3812
11628TIP3    H156299   6.791   0.661   4.669  0.8025 -0.4225  1.0189
11628TIP3    H256300   6.720   0.623   4.798 -2.2155  0.7399 -0.2594
11629TIP3   OH256301   0.541   4.947   0.779 -0.0717 -0.1938  0.2000
11629TIP3    H156302   0.468   4.990   0.824 -0.4989 -0.7655  0.0562
11629TIP3    H256303   0.567   5.009   0.711 -0.9516 -0.3307 -0.2671
11630TIP3   OH256304   5.098   0.504   3.177 -0.1777  0.3362  0.4383
11630TIP3    H156305   5.148   0.570   3.225 -0.3084  0.9613 -0.2729
11630TIP3    H256306   5.111   0.423   3.226 -0.0944  0.9101  1.3748
11631TIP3   OH256307   1.631   0.514  17.235 -0.4169 -0.2042 -0.1531
11631TIP3    H156308   1.718   0.513  17.195 -0.1801  0.6343  0.3176
11631TIP3    H256309   1.574   0.551  17.167 -0.1824  0.3803 -0.0313
11632TIP3   OH256310   1.568   1.857   2.796 -0.3766  0.3523  0.0432
11632TIP3    H156311   1.472   1.855   2.792 -0.3670  0.7185 -0.4662
11632TIP3    H256312   1.594   1.765   2.795 -0.7482  0.2324  0.8637
11633TIP3   OH256313   4.802   1.432   1.068  0.1946  0.2907  0.1182
11633TIP3    H156314   4.897   1.440   1.079  0.1788  1.2078 -0.3754
11633TIP3    H256315   4.791   1.393   0.982  0.1352 -0.3365  0.4084
11634TIP3   OH256316   6.027   0.059  12.235  0.0594 -0.2140 -0.3115
11634TIP3    H156317   6.036   0.133  12.175  0.5307 -1.0682 -1.3064
11634TIP3    H256318   6.098   0.070  12.299  0.3210  0.0170 -0.6453
11635TIP3   OH256319   4.575   4.153   3.574  0.7092  0.2920 -0.7430
11635TIP3    H156320   4.590   4.063   3.545  0.5660  0.4452 -1.2968
11635TIP3    H256321   4.489   4.150   3.618  0.8049  0.1176 -0.5650
11636TIP3   OH256322   4.556   3.769   6.278  0.1092  0.5029  0.1849
11636TIP3    H156323   4.516   3.828   6.341 -0.9435  0.2024 -0.1861
11636TIP3    H256324   4.501   3.690   6.282 -0.2584  0.6607 -1.4383
11637TIP3   OH256325   3.677   1.655   5.286  0.3266 -0.2663 -0.2664
11637TIP3    H156326   3.748   1.685   5.230  0.2647 -0.4145 -0.4263
11637TIP3    H256327   3.721   1.605   5.355  0.3305 -0.9387 -0.7479
11638TIP3   OH256328   2.168   4.140  12.999  0.1311 -0.4229 -0.0419
11638TIP3    H156329   2.122   4.184  12.928  0.2459 -0.4900 -0.1597
11638TIP3    H256330   2.179   4.050  12.968 -0.6507 -0.6908  0.4588
11639TIP3   OH256331   6.341   2.636  13.048 -0.7393  0.1992 -0.0796
11639TIP3    H156332   6.307   2.700  12.986 -2.1061 -1.8162 -1.4760
11639TIP3    H256333   6.348   2.555  12.997  2.0212 -0.5173  1.3362
11640TIP3   OH256334   5.115   0.113   3.820 -0.4586 -0.3775  0.6489
11640TIP3    H156335   5.181   0.127   3.888 -0.0776  0.4957  0.1138
11640TIP3    H256336   5.111   0.018   3.810 -0.4485 -0.5082  1.8185
11641TIP3   OH256337   1.467   2.045   2.331  0.3367  0.6600  0.1672
11641TIP3    H156338   1.416   2.113   2.376 -0.4407  0.7801 -0.8773
11641TIP3    H256339   1.484   2.081   2.244  2.4293  0.7066  0.5808
11642TIP3   OH256340   5.188   3.075  14.395 -0.7809  0.1793 -0.6428
11642TIP3    H156341   5.277   3.079  14.431 -1.1271 -1.3044  0.4201
11642TIP3    H256342   5.171   3.164  14.364  0.7611  0.6836 -0.0904
11643TIP3   OH256343   1.462   2.475  17.023  0.2994  0.1490 -0.1041
11643TIP3    H156344   1.536   2.498  17.079 -0.0213  0.8061  0.0506
11643TIP3    H256345   1.498   2.412  16.960  0.6975 -0.4886  0.7427
11644TIP3   OH256346   0.304   2.065   4.553 -0.6273 -1.1758 -0.5127
11644TIP3    H156347   0.372   2.126   4.581 -1.8839  0.1943 -0.3979
11644TIP3    H256348   0.351   1.997   4.504  0.6539  0.3974 -1.4984
11645TIP3   OH256349   0.025   1.084  16.757  0.1449 -0.6435  0.8067
11645TIP3    H156350  -0.051   1.129  16.719 -2.4851 -4.5720  1.1311
11645TIP3    H256351   0.061   1.032  16.684  0.3164 -1.5709  1.5460
11646TIP3   OH256352   3.315   6.234   3.421  0.4568 -0.0294 -0.1957
11646TIP3    H156353   3.280   6.158   3.467  1.7002 -1.0867 -0.9223
11646TIP3    H256354   3.308   6.211   3.328 -0.2806  1.2657 -0.4704
11647TIP3   OH256355   0.337   0.112  15.522  0.4687  0.5428 -0.0707
11647TIP3    H156356   0.338   0.178  15.592 -1.1914  1.5288 -0.9502
11647TIP3    H256357   0.273   0.048  15.551 -1.6475  1.9494 -1.5589
11648TIP3   OH256358   3.931   5.449   5.006  0.0777  0.1288 -0.5049
11648TIP3    H156359   3.924   5.507   5.082 -0.8089  0.6794 -0.9905
11648TIP3    H256360   3.918   5.507   4.931 -0.5203 -0.6537 -1.0133
11649TIP3   OH256361   4.124   4.546   1.903  0.2835 -0.0432 -0.3410
11649TIP3    H156362   4.205   4.587   1.873 -0.3061  0.7900 -0.8181
11649TIP3    H256363   4.149   4.457   1.926  1.3074  0.1719 -0.6075
11650TIP3   OH256364   3.010   5.954  10.679  0.6280 -0.0056 -0.3633
11650TIP3    H156365   3.065   5.883  10.645  0.2367 -0.2074 -0.5716
11650TIP3    H256366   3.010   5.941  10.774 -2.3190 -2.3911 -0.6328
11651TIP3   OH256367   5.701   3.614  15.231 -0.3478 -0.5836 -0.3514
11651TIP3    H156368   5.736   3.653  15.150 -1.0354 -0.9011 -0.8049
11651TIP3    H256369   5.736   3.670  15.301  0.0213 -0.1336 -0.8833
11652TIP3   OH256370   5.734   6.663   5.745 -0.1466 -0.0197  0.5225
11652TIP3    H156371   5.673   6.728   5.780 -1.0854 -0.0427 -1.0323
11652TIP3    H256372   5.774   6.705   5.669  2.9650  0.5727  2.4026
11653TIP3   OH256373   6.055   2.845   2.623 -0.1051 -0.1777 -0.1799
11653TIP3    H156374   5.975   2.893   2.605 -0.5029 -0.8830 -0.3001
11653TIP3    H256375   6.049   2.821   2.716  1.3412  2.3247  0.6245
11654TIP3   OH256376   0.888   2.422  14.701  0.1905 -0.1008  0.0334
11654TIP3    H156377   0.932   2.499  14.664  1.9408 -1.3084 -0.5104
11654TIP3    H256378   0.858   2.450  14.787  3.1753  0.4622  0.9750
11655TIP3   OH256379   4.634   4.043  13.419 -0.0897 -0.0361 -0.7840
11655TIP3    H156380   4.588   3.959  13.419 -1.6414  0.7875  0.5124
11655TIP3    H256381   4.575   4.102  13.464  0.1162  2.2567 -3.3772
11656TIP3   OH256382   3.210   4.289  10.568  0.2325  0.5140 -0.0918
11656TIP3    H156383   3.180   4.253  10.652 -0.0145  0.7678 -0.0713
11656TIP3    H256384   3.176   4.378  10.567  0.4950  0.6116 -0.3287
11657TIP3   OH256385   6.433   6.064  16.855 -0.3360 -0.4022  0.1311
11657TIP3    H156386   6.433   6.001  16.784  0.3654 -0.1848 -0.0694
11657TIP3    H256387   6.515   6.113  16.844 -0.4359 -0.0679  0.8163
11658TIP3   OH256388   5.548   0.357   5.678 -0.3361  0.4029 -0.4022
11658TIP3    H156389   5.565   0.449   5.698  1.8018  0.0137 -0.2376
11658TIP3    H256390   5.588   0.344   5.592  1.7173 -0.9755  0.7203
11659TIP3   OH256391   3.040   2.086  16.339 -0.2240 -0.4203  0.0991
11659TIP3    H156392   3.067   2.160  16.394 -1.0108 -0.3999  0.4730
11659TIP3    H256393   3.098   2.015  16.364 -0.7211 -0.4756  1.1326
11660TIP3   OH256394   5.565   4.424  13.047 -0.0341 -0.7609  0.1873
11660TIP3    H156395   5.553   4.329  13.044  0.0464 -0.7525 -0.3199
11660TIP3    H256396   5.608   4.446  12.965 -0.6849 -0.1884 -0.0009
11661TIP3   OH256397   3.764   5.042   0.447 -0.1887 -0.1037  0.2687
11661TIP3    H156398   3.753   5.013   0.537 -2.2021 -1.1475 -0.2779
11661TIP3    H256399   3.827   5.114   0.452  0.1529 -0.5324  2.4240
11662TIP3   OH256400   5.644   6.332   1.799  0.3763  0.4873 -0.3463
11662TIP3    H156401   5.661   6.426   1.787  1.7334  0.3191  0.1110
11662TIP3    H256402   5.558   6.328   1.841  1.3593  1.6629  1.8894
11663TIP3   OH256403   4.712   2.107   0.692  0.2123 -0.3336  0.3597
11663TIP3    H156404   4.728   2.148   0.607 -0.8407  0.4580  0.5342
11663TIP3    H256405   4.754   2.165   0.755  0.5549 -0.6540  0.4298
11664TIP3   OH256406   0.186   2.983   4.787 -0.2753  0.1147 -0.2970
11664TIP3    H156407   0.279   2.969   4.802 -0.2259 -0.6899 -1.3238
11664TIP3    H256408   0.172   3.075   4.808  0.8009  0.2968 -0.3525
11665TIP3   OH256409   1.038   6.017  15.379  0.1952 -0.1100  0.9071
11665TIP3    H156410   1.059   6.100  15.422  0.5143 -0.1665  0.8580
11665TIP3    H256411   1.121   5.986  15.343  0.1257 -0.5822  1.1520
11666TIP3   OH256412   3.892   3.814  13.314  0.4361 -0.0188  0.0857
11666TIP3    H156413   3.887   3.740  13.375  1.7932 -0.7116 -0.5949
11666TIP3    H256414   3.830   3.791  13.244 -1.0444  0.7299  1.1538
11667TIP3   OH256415   4.761   1.958   5.952 -0.4462 -0.4168  0.0303
11667TIP3    H156416   4.782   1.964   6.045 -0.7882 -0.3238  0.1010
11667TIP3    H256417   4.676   2.001   5.943 -0.8468 -1.2232 -0.1662
11668TIP3   OH256418   3.462   0.262   3.217 -0.2527  0.1926 -0.1827
11668TIP3    H156419   3.517   0.185   3.202  2.4749  1.8322  0.9177
11668TIP3    H256420   3.394   0.231   3.276  0.9155 -1.3429  0.4076
11669TIP3   OH256421   1.161   1.883  12.122 -0.4387  0.0389 -0.0979
11669TIP3    H156422   1.247   1.918  12.148 -0.6939  1.3336 -0.9730
11669TIP3    H256423   1.124   1.950  12.065 -1.4661 -1.1258 -0.8195
11670TIP3   OH256424   0.761   5.614  13.227 -0.3461 -0.0799  0.1818
11670TIP3    H156425   0.807   5.682  13.275  0.6985 -0.2237 -0.6024
11670TIP3    H256426   0.760   5.644  13.136 -0.9035 -0.5668  0.0164
11671TIP3   OH256427   1.002   6.187   1.150 -0.8044  1.3616  0.2106
11671TIP3    H156428   0.970   6.214   1.064 -1.6548 -1.5018 -0.4261
11671TIP3    H256429   1.094   6.165   1.137 -1.8106 -2.5267 -0.8470
11672TIP3   OH256430   3.956   2.840   3.737  0.6038 -0.5911 -0.7320
11672TIP3    H156431   3.911   2.786   3.672  0.8327  0.0427 -1.4261
11672TIP3    H256432   3.885   2.877   3.790  0.4456 -1.5760 -0.2398
11673TIP3   OH256433   2.848   1.123   6.104 -0.3268 -0.2972 -0.3630
11673TIP3    H156434   2.923   1.095   6.051  0.3243  0.4617  0.1457
11673TIP3    H256435   2.881   1.126   6.193 -0.9869 -0.0452 -0.1252
11674TIP3   OH256436   5.511   2.633  13.864 -0.5791 -0.3023  0.0925
11674TIP3    H156437   5.598   2.669  13.881 -0.9290  1.6434 -1.9715
11674TIP3    H256438   5.525   2.569  13.793 -1.3761  3.2630 -3.4700
11675TIP3   OH256439   1.901   0.236  12.810  0.4083  0.3286  0.2557
11675TIP3    H156440   1.926   0.283  12.731 -0.5799 -1.2319 -1.0217
11675TIP3    H256441   1.915   0.299  12.881  1.4499  1.7023 -1.1312
11676TIP3   OH256442   2.480   0.661  12.318  0.3680 -1.0904  0.4723
11676TIP3    H156443   2.417   0.664  12.245  2.4521 -0.1914 -1.3497
11676TIP3    H256444   2.458   0.580  12.364 -2.4551 -0.5328  0.2039
11677TIP3   OH256445   1.175   0.854   3.266 -0.2452  0.6503  0.2614
11677TIP3    H156446   1.172   0.854   3.362 -0.2887 -0.1578  0.2626
11677TIP3    H256447   1.216   0.771   3.244 -2.0438 -0.0639 -0.4771
11678TIP3   OH256448   2.448   2.915  12.808 -0.0625  0.2522  0.6238
11678TIP3    H156449   2.536   2.919  12.847  0.3130 -2.7372  0.2193
11678TIP3    H256450   2.463   2.914  12.714 -0.4640 -1.0694  0.5640
11679TIP3   OH256451   4.218   5.281   1.472 -0.2421 -0.0331  0.3601
11679TIP3    H156452   4.218   5.211   1.538  2.7989  0.5123  1.0217
11679TIP3    H256453   4.308   5.312   1.471 -0.8564  1.7793 -2.1956
11680TIP3   OH256454   1.625   0.635   2.976 -0.2865  0.2955  0.1206
11680TIP3    H156455   1.643   0.682   3.058  1.9255 -0.1615 -0.0638
11680TIP3    H256456   1.670   0.686   2.909 -0.5587 -0.3361 -0.5507
11681TIP3   OH256457   5.718   4.930   0.404  0.2308  0.1891 -0.0945
11681TIP3    H156458   5.763   5.014   0.418 -0.9558  0.9576 -0.8523
11681TIP3    H256459   5.705   4.895   0.492 -0.5580  1.4861  0.3125
11682TIP3   OH256460   4.190   6.042  14.018  0.0901 -0.4903 -0.4512
11682TIP3    H156461   4.226   5.983  13.952  2.0775 -0.1334  0.2542
11682TIP3    H256462   4.261   6.105  14.034 -1.0191  0.4834  0.7230
11683TIP3   OH256463   0.160   5.999  16.686  0.6936 -0.0419  0.5929
11683TIP3    H156464   0.142   6.078  16.737  0.4134 -0.3368  0.9543
11683TIP3    H256465   0.175   6.030  16.597 -1.7870  0.2182  0.2318
11684TIP3   OH256466   1.161   6.213   2.121  0.3109  0.0589  0.1052
11684TIP3    H156467   1.100   6.285   2.136  3.4432  2.9904 -0.5087
11684TIP3    H256468   1.109   6.147   2.076 -2.4485  2.4155 -0.3451
11685TIP3   OH256469   6.222   6.378  11.589 -0.4522 -0.0538  0.0564
11685TIP3    H156470   6.208   6.323  11.512 -0.0167 -1.3778  0.9197
11685TIP3    H256471   6.134   6.408  11.612 -0.6695 -0.2367 -0.5064
11686TIP3   OH256472   3.606   1.019  13.673 -0.1631  0.0892  0.5195
11686TIP3    H156473   3.693   1.003  13.636 -0.0995  0.0786  0.6744
11686TIP3    H256474   3.599   0.958  13.746 -0.2575  0.1675  0.5748
11687TIP3   OH256475   6.399   0.495  14.830  0.0729  0.4196  0.7157
11687TIP3    H156476   6.315   0.512  14.873 -1.6137 -0.4215 -2.1232
11687TIP3    H256477   6.447   0.578  14.838 -0.7010  0.6764  3.0123
11688TIP3   OH256478   4.155   5.669  16.712  0.4537  0.1132 -0.3273
11688TIP3    H156479   4.120   5.622  16.637 -2.3818  1.7629 -0.0923
11688TIP3    H256480   4.148   5.607  16.785 -1.3766  0.1675 -0.4402
11689TIP3   OH256481   2.628   3.870   2.512 -0.0488  0.4876  0.3342
11689TIP3    H156482   2.612   3.783   2.549 -0.1196  0.1373 -0.5232
11689TIP3    H256483   2.723   3.874   2.501  0.0419  0.8455  1.1529
11690TIP3   OH256484   3.348   3.792   1.207  0.6559  0.2558  0.3020
11690TIP3    H156485   3.322   3.779   1.298 -2.5091 -0.5445 -0.6602
11690TIP3    H256486   3.331   3.885   1.191  0.6669  0.2681  0.3609
11691TIP3   OH256487   4.596   2.248  11.964 -0.4047 -0.4613  0.0041
11691TIP3    H156488   4.593   2.188  12.038 -1.6954 -2.0389 -1.2946
11691TIP3    H256489   4.509   2.287  11.962 -0.6576 -1.0656 -1.1874
11692TIP3   OH256490   1.530   4.121  14.458  0.2352  0.0398 -0.0525
11692TIP3    H156491   1.601   4.155  14.512 -2.3550  0.8847  2.9545
11692TIP3    H256492   1.516   4.189  14.391  2.3823 -0.2646 -0.8517
11693TIP3   OH256493   0.479   2.413  11.641  0.0119  0.0836 -0.1305
11693TIP3    H156494   0.560   2.384  11.598  1.0363  2.6563  0.0191
11693TIP3    H256495   0.495   2.400  11.735 -0.0050 -0.0433 -0.1460
11694TIP3   OH256496   5.041   3.026  16.947 -0.1589  0.4430  0.3374
11694TIP3    H156497   5.037   3.058  17.037 -2.3953  1.1457  0.0364
11694TIP3    H256498   5.118   2.969  16.944  0.9712  1.8406  2.2059
11695TIP3   OH256499   2.518   2.675  15.537 -0.1452 -0.1285 -0.4845
11695TIP3    H156500   2.584   2.679  15.469  0.8905  3.0932  0.5735
11695TIP3    H256501   2.446   2.729  15.504 -0.4592 -0.1704  0.1132
11696TIP3   OH256502   2.280   2.313   4.031  0.3776  0.2984  0.7966
11696TIP3    H156503   2.199   2.364   4.044  0.2801  0.4468 -0.3295
11696TIP3    H256504   2.266   2.267   3.949  1.4376  0.3014  0.6085
11697TIP3   OH256505   6.493   6.160  15.651 -0.0110  0.2714 -0.1361
11697TIP3    H156506   6.504   6.089  15.713 -1.5374 -0.1952 -0.3766
11697TIP3    H256507   6.471   6.117  15.568 -1.9504  1.0320 -0.0480
11698TIP3   OH256508   0.179   3.968   3.779  0.0391 -0.1990 -0.1669
11698TIP3    H156509   0.220   4.013   3.706  0.2120  0.7330  0.4999
11698TIP3    H256510   0.228   3.886   3.787  0.0278 -0.2955 -1.0835
11699TIP3   OH256511   2.793   2.092  16.517 -0.0701 -0.8774  0.3489
11699TIP3    H156512   2.866   2.091  16.455 -0.0461 -0.5688  0.3699
11699TIP3    H256513   2.760   2.182  16.514 -1.3282 -1.3569 -0.6724
11700TIP3   OH256514   3.923   4.429   0.821  0.3288 -0.1490 -0.1405
11700TIP3    H156515   3.983   4.452   0.750  0.3555 -1.9909 -0.7632
11700TIP3    H256516   3.978   4.385   0.886 -0.0731 -0.4170  0.0205
11701TIP3   OH256517   4.789   1.397  14.071 -0.1224 -0.0313  0.1944
11701TIP3    H156518   4.831   1.320  14.033  0.8051  0.1711  0.7922
11701TIP3    H256519   4.861   1.459  14.085 -1.2322  2.1186 -3.0208
11702TIP3   OH256520   0.086   5.812   0.880  0.7071 -0.1132  0.2853
11702TIP3    H156521  -0.001   5.794   0.845  1.4473  0.6469 -2.0105
11702TIP3    H256522   0.080   5.789   0.973 -2.4397  1.6028  0.5646
11703TIP3   OH256523   0.530   0.602   5.980 -0.1991 -0.2784 -0.8152
11703TIP3    H156524   0.497   0.634   6.063 -0.6894 -0.8550 -0.7810
11703TIP3    H256525   0.608   0.551   6.002 -0.8294 -1.1687 -0.6096
11704TIP3   OH256526   2.429   4.196  12.996  0.0351 -0.2055  0.0595
11704TIP3    H156527   2.334   4.204  13.009 -0.0105 -0.7321  0.0604
11704TIP3    H256528   2.446   4.102  12.999  0.2718 -0.2500 -2.0744
11705TIP3   OH256529   0.049   5.910   3.374  0.2376 -0.1500 -0.2589
11705TIP3    H156530   0.017   5.930   3.462  0.5259  1.0166 -0.4232
11705TIP3    H256531   0.074   5.994   3.337 -1.6162 -0.3955 -2.1529
11706TIP3   OH256532   5.510   3.260  11.862 -0.1871 -0.2677  0.4101
11706TIP3    H156533   5.436   3.235  11.807 -1.7127  1.1048  1.7939
11706TIP3    H256534   5.576   3.290  11.800 -1.4466  0.1607 -0.7591
11707TIP3   OH256535   6.087   2.958  13.550 -0.5586  0.6512  0.2086
11707TIP3    H156536   6.007   2.928  13.507  0.5820  1.6949 -2.7647
11707TIP3    H256537   6.143   2.987  13.478  2.4246  0.1211  2.2508
11708TIP3   OH256538   3.648   1.797  16.792  0.3516  0.2381 -0.1733
11708TIP3    H156539   3.574   1.771  16.737  0.4850 -0.7840  0.1178
11708TIP3    H256540   3.641   1.892  16.798  0.6187  0.4237 -2.3728
11709TIP3   OH256541   2.281   3.456   3.065  0.1147  0.2851 -0.4466
11709TIP3    H156542   2.240   3.418   3.143 -0.1482  1.0939 -0.1864
11709TIP3    H256543   2.210   3.501   3.020 -0.0095 -1.2780 -1.8505
11710TIP3   OH256544   4.711   0.665  16.007  0.2510  0.2785  0.2852
11710TIP3    H156545   4.646   0.682  16.075 -0.5618 -0.3645 -0.3338
11710TIP3    H256546   4.762   0.592  16.042  0.9779  1.0980  0.9873
11711TIP3   OH256547   2.153   2.046   3.747 -0.1348  0.2210 -0.1759
11711TIP3    H156548   2.064   2.040   3.782  0.2020 -0.4945  0.5790
11711TIP3    H256549   2.208   2.005   3.814  0.5858 -0.7322 -1.3321
11712TIP3   OH256550   5.575   3.430  17.090  0.0652  0.1170 -0.0967
11712TIP3    H156551   5.617   3.381  17.019 -0.2013  0.5659 -0.5697
11712TIP3    H256552   5.643   3.442  17.155  0.9362  1.6776 -1.2741
11713TIP3   OH256553   0.591   3.162   0.717 -0.1673 -0.0981 -0.4352
11713TIP3    H156554   0.631   3.079   0.690 -0.1403  0.2038 -1.3220
11713TIP3    H256555   0.506   3.136   0.755  0.4175 -0.6433  0.5259
11714TIP3   OH256556   5.896   0.347   2.506 -0.1627 -0.1559 -0.2356
11714TIP3    H156557   5.851   0.381   2.583 -0.0240 -0.1483 -0.1562
11714TIP3    H256558   5.980   0.315   2.540 -1.1374 -2.5116  0.0304
11715TIP3   OH256559   2.916   2.999   1.548  0.3348 -0.4118 -0.5378
11715TIP3    H156560   2.915   3.084   1.503 -2.0001  1.0846  2.1547
11715TIP3    H256561   2.990   3.005   1.608 -0.6223  0.2871  0.5977
11716TIP3   OH256562   5.897   5.678  13.783  1.0321 -0.5073 -0.0976
11716TIP3    H156563   5.807   5.651  13.765  1.4067 -0.8562 -1.4593
11716TIP3    H256564   5.935   5.694  13.697  1.5591  2.0068  0.5716
11717TIP3   OH256565   3.549   5.591   1.977  0.0271 -0.2608  0.4226
11717TIP3    H156566   3.457   5.591   1.950 -0.8273 -0.8494  3.1585
11717TIP3    H256567   3.558   5.672   2.027  0.9329 -0.3553  0.4090
11718TIP3   OH256568   4.217   3.942   5.542 -0.5388  0.7876  0.1630
11718TIP3    H156569   4.226   4.037   5.548 -1.0667  0.8613 -0.1724
11718TIP3    H256570   4.152   3.920   5.608  1.5510  0.3350  2.1155
11719TIP3   OH256571   3.741   0.971  17.085  0.4166  0.0347 -0.1800
11719TIP3    H156572   3.748   1.050  17.138 -0.3097 -1.5728  2.4303
11719TIP3    H256573   3.706   0.905  17.145 -2.5755 -1.3425 -3.2380
11720TIP3   OH256574   0.856   0.179   1.537 -0.1433 -0.3758 -0.4103
11720TIP3    H156575   0.842   0.087   1.560  2.1286 -0.4895  0.6651
11720TIP3    H256576   0.951   0.189   1.535 -0.3630  1.9879 -0.4004
11721TIP3   OH256577   5.162   2.645   0.485 -0.0186  0.6333 -0.4352
11721TIP3    H156578   5.155   2.657   0.580  2.6600  1.6923 -0.3179
11721TIP3    H256579   5.079   2.675   0.450 -1.4382 -0.7544  1.6574
11722TIP3   OH256580   4.657   5.933  15.290  0.2903 -0.6498 -0.5410
11722TIP3    H156581   4.747   5.901  15.285 -0.1326 -1.6261 -2.5010
11722TIP3    H256582   4.605   5.854  15.303 -0.2360 -0.0075  1.3362
11723TIP3   OH256583   1.090   1.080  12.333 -0.1283 -0.3933 -0.4998
11723TIP3    H156584   1.091   1.176  12.339  0.8490 -0.2424 -2.6414
11723TIP3    H256585   1.000   1.055  12.353  0.1806  0.7822  2.5697
11724TIP3   OH256586   0.072   5.492   1.393 -0.1642  0.4172 -0.3420
11724TIP3    H156587   0.122   5.458   1.319  1.1520 -0.9796  1.1621
11724TIP3    H256588   0.133   5.492   1.466 -1.6756  1.0045  0.9588
11725TIP3   OH256589   4.579   6.455   4.577  0.0986  0.2653  0.5097
11725TIP3    H156590   4.659   6.403   4.588  0.3620 -0.4354 -3.9890
11725TIP3    H256591   4.508   6.390   4.584  0.0091  0.5076  2.0719
11726TIP3   OH256592   2.373   2.253  13.808  0.2617  0.1467 -0.2769
11726TIP3    H156593   2.430   2.191  13.853 -1.1624 -1.4433 -0.5998
11726TIP3    H256594   2.423   2.278  13.730  0.3381 -1.6550 -0.8446
11727TIP3   OH256595   5.610   2.235   4.645  0.2980  0.5023 -0.8151
11727TIP3    H156596   5.655   2.251   4.562  0.9123  1.2927 -0.3402
11727TIP3    H256597   5.676   2.196   4.701  0.1662  0.8933 -0.3829
11728TIP3   OH256598   1.518   3.227  16.916  0.1826 -0.2229 -0.7935
11728TIP3    H156599   1.503   3.314  16.878 -0.1465 -0.7831 -1.9550
11728TIP3    H256600   1.431   3.188  16.920  0.6511 -1.5431 -2.8282
11729TIP3   OH256601   4.978   1.146   0.334 -0.3626  0.0334 -0.5245
11729TIP3    H156602   5.029   1.087   0.389 -1.3297 -0.5966 -0.2828
11729TIP3    H256603   5.039   1.174   0.265  0.1746 -1.0663 -0.5097
11730TIP3   OH256604   2.850   0.936  15.830  0.0071 -0.0844 -0.1084
11730TIP3    H156605   2.800   0.864  15.792 -0.6711 -0.6031  1.7220
11730TIP3    H256606   2.926   0.946  15.772 -0.3123 -1.7274 -0.8331
11731TIP3   OH256607   5.112   3.086  12.640  0.0487  0.6445 -0.0377
11731TIP3    H156608   5.100   3.180  12.626 -0.6569  0.7603  1.2574
11731TIP3    H256609   5.037   3.060  12.694  1.1788 -0.2894  1.1244
11732TIP3   OH256610   4.310   2.421  12.815 -0.1409  0.4865 -0.2164
11732TIP3    H156611   4.306   2.483  12.888 -2.1305 -1.6708  1.5934
11732TIP3    H256612   4.222   2.421  12.778  0.1421 -0.4442 -0.9131
11733TIP3   OH256613   1.305   2.957  14.017 -0.3188 -0.5689  0.4742
11733TIP3    H156614   1.231   2.902  13.991  0.8829 -1.5279 -1.0579
11733TIP3    H256615   1.379   2.921  13.968  0.7992  1.5129  0.5835
11734TIP3   OH256616   5.014   5.753   1.711 -0.1126  0.6780  0.2142
11734TIP3    H156617   4.989   5.844   1.727 -1.2028  0.3270  0.5607
11734TIP3    H256618   5.034   5.750   1.617 -1.9673  0.8442 -0.1964
11735TIP3   OH256619   4.734   2.637  16.753  0.4410 -0.0533  0.3317
11735TIP3    H156620   4.784   2.683  16.821 -0.6203 -0.2987  1.2979
11735TIP3    H256621   4.683   2.572  16.801  0.6655 -1.1103 -0.8608
11736TIP3   OH256622   6.178   6.186  15.187 -0.1263 -0.6397 -0.4269
11736TIP3    H156623   6.262   6.142  15.178  0.4705  0.4478 -0.2356
11736TIP3    H256624   6.138   6.147  15.264  0.9858  0.0924  0.5427
11737TIP3   OH256625   2.875   0.636  15.378  0.6952 -0.1550 -0.1644
11737TIP3    H156626   2.819   0.576  15.427  1.2524 -0.9815 -0.5264
11737TIP3    H256627   2.831   0.721  15.385 -0.6995 -0.8256 -0.6229
11738TIP3   OH256628   6.390   0.591   5.011 -0.5944  0.3493 -0.5125
11738TIP3    H156629   6.295   0.582   5.023 -0.2442 -0.2590  2.0756
11738TIP3    H256630   6.421   0.501   4.997 -0.4543  0.6169 -2.0476
11739TIP3   OH256631   3.562   0.666   4.157  0.6683 -0.9916 -0.1895
11739TIP3    H156632   3.641   0.643   4.207  0.0887 -0.6425  0.9105
11739TIP3    H256633   3.575   0.758   4.132  1.2163 -1.3341 -1.1887
11740TIP3   OH256634   3.506   0.364  12.133  0.0538  0.0100  0.1584
11740TIP3    H156635   3.482   0.296  12.195 -0.5836  0.6069  0.5700
11740TIP3    H256636   3.591   0.335  12.097  0.7249 -0.0182  1.7510
11741TIP3   OH256637   6.082   2.002  15.996  0.0611  0.1594 -0.1811
11741TIP3    H156638   6.006   2.037  16.042  0.3292 -1.0588  1.2073
11741TIP3    H256639   6.057   1.913  15.971  1.2503 -0.4885  0.8724
11742TIP3   OH256640   1.495   5.479   4.613 -0.4203 -0.0720  0.4484
11742TIP3    H156641   1.483   5.478   4.708 -0.9250  2.5211  0.4488
11742TIP3    H256642   1.522   5.569   4.593 -0.1004 -0.6472 -1.8393
11743TIP3   OH256643   6.367   2.065  10.331  0.1075  0.1215 -0.3152
11743TIP3    H156644   6.371   2.159  10.314  0.5333 -0.2111 -2.2570
11743TIP3    H256645   6.450   2.031  10.296 -0.7320 -1.1593 -1.1147
11744TIP3   OH256646   5.448   2.121  13.138  0.0264  0.4383  0.2101
11744TIP3    H156647   5.487   2.090  13.220  0.6533 -0.3558 -0.3736
11744TIP3    H256648   5.499   2.199  13.116 -0.7458  1.1874  1.0471
11745TIP3   OH256649   1.848   1.149   4.610  0.1937  0.2430 -0.0924
11745TIP3    H156650   1.896   1.165   4.529 -1.0268  1.0618 -0.6726
11745TIP3    H256651   1.805   1.232   4.629  1.5366  0.4616  2.1349
11746TIP3   OH256652   3.730   4.815   4.500 -0.0740 -0.2008  0.0601
11746TIP3    H156653   3.775   4.736   4.530 -0.4853 -0.8443 -0.9785
11746TIP3    H256654   3.686   4.788   4.419 -1.8306  0.5808  0.7358
11747TIP3   OH256655   6.239   3.576   1.852 -0.3129 -0.6542  0.2779
11747TIP3    H156656   6.248   3.661   1.808  1.4378  0.2137  2.1933
11747TIP3    H256657   6.146   3.570   1.873 -0.6954  0.1643 -1.0945
11748TIP3   OH256658   2.921   4.304   0.591  0.3271 -0.1363 -0.4438
11748TIP3    H156659   2.947   4.265   0.508  0.6614  0.1878 -0.4936
11748TIP3    H256660   2.842   4.354   0.570 -0.0134 -0.6533 -0.4109
11749TIP3   OH256661   2.934   5.860   4.491 -0.3013  0.8794  0.0089
11749TIP3    H156662   2.928   5.956   4.490 -2.1200  0.7898 -0.1333
11749TIP3    H256663   2.901   5.836   4.578  2.0356  0.4696  0.8060
11750TIP3   OH256664   1.235   5.685  10.408 -0.6904 -0.1716 -0.2327
11750TIP3    H156665   1.233   5.740  10.486  1.5080  0.4775 -0.5938
11750TIP3    H256666   1.143   5.667  10.388 -1.3431  1.5119  1.1842
11751TIP3   OH256667   0.900   1.122  15.415 -0.1600 -0.0092  0.2502
11751TIP3    H156668   0.892   1.216  15.430  1.8320  0.0845  0.9688
11751TIP3    H256669   0.811   1.088  15.421 -0.7906  1.7114  0.8242
11752TIP3   OH256670   5.139   5.110  15.178  0.2607 -0.5617  0.0961
11752TIP3    H156671   5.079   5.096  15.252  0.0248 -2.2247 -0.3913
11752TIP3    H256672   5.089   5.163  15.117  0.7736  1.6245  1.5007
11753TIP3   OH256673   3.132   4.640   5.176  0.2844 -0.4797 -0.2464
11753TIP3    H156674   3.065   4.576   5.201 -1.2530  0.8874 -0.8130
11753TIP3    H256675   3.201   4.629   5.241 -0.5748 -1.7634  0.4738
11754TIP3   OH256676   6.012   3.654  14.747  0.2807 -0.1516 -0.0911
11754TIP3    H156677   5.992   3.566  14.778 -0.0163  0.5105  1.6805
11754TIP3    H256678   5.935   3.678  14.694 -1.4209  0.4560  2.5453
11755TIP3   OH256679   5.863   6.637  16.921  0.5880 -0.0518 -0.4804
11755TIP3    H156680   5.912   6.719  16.935 -0.1736 -0.0465  2.7170
11755TIP3    H256681   5.772   6.664  16.918  0.2710 -0.8245  1.4265
11756TIP3   OH256682   3.109   5.878  13.004 -0.5672 -0.2177  0.2441
11756TIP3    H156683   3.017   5.896  13.024 -0.8411  0.9623 -1.8890
11756TIP3    H256684   3.131   5.941  12.936  1.4416 -1.4251 -0.2656
11757TIP3   OH256685   6.565   3.841  13.757 -0.1217 -0.0757 -0.6530
11757TIP3    H156686   6.627   3.776  13.790 -0.5670 -0.2842 -0.2207
11757TIP3    H256687   6.620   3.915  13.732  0.1880  0.3130  1.0821
11758TIP3   OH256688   0.201   2.587  14.640 -0.3901  0.6459  0.1058
11758TIP3    H156689   0.181   2.608  14.548  0.3660 -1.1599 -0.5051
11758TIP3    H256690   0.116   2.567  14.678 -0.4201 -1.4773 -0.9999
11759TIP3   OH256691   2.630   5.193   5.544 -0.4274 -0.0143  0.5919
11759TIP3    H156692   2.594   5.104   5.547  0.4400 -0.4296 -0.7766
11759TIP3    H256693   2.722   5.182   5.569 -0.5115  0.6227  1.1931
11760TIP3   OH256694   5.027   2.247  12.777  0.2566 -0.2387 -0.3917
11760TIP3    H156695   5.083   2.269  12.852  0.1269 -1.2571  0.0223
11760TIP3    H256696   5.082   2.261  12.700  0.4029  0.7833 -0.1000
11761TIP3   OH256697   3.964   0.875  12.539 -0.2765 -0.1433 -0.3263
11761TIP3    H156698   3.944   0.922  12.457  1.7975  1.9772  0.3189
11761TIP3    H256699   4.000   0.791  12.510 -1.5518 -0.2863 -1.5540
11762TIP3   OH256700   3.401   6.609  17.011 -0.2684  0.2285  1.2668
11762TIP3    H156701   3.329   6.672  17.008 -1.7697 -1.3914  2.3067
11762TIP3    H256702   3.368   6.533  16.962  1.3976  0.1111  0.2774
11763TIP3   OH256703   0.737   4.786   0.877 -0.2226  0.3575 -0.6466
11763TIP3    H156704   0.681   4.861   0.854  0.3386  1.0128  0.0955
11763TIP3    H256705   0.682   4.733   0.934 -0.5139  0.3712 -0.9134
11764TIP3   OH256706   2.442   4.631   1.231 -0.1477 -0.3586  0.2613
11764TIP3    H156707   2.521   4.603   1.185  0.5481 -1.8238  2.3034
11764TIP3    H256708   2.426   4.719   1.198  1.5958 -0.5246 -1.1350
11765TIP3   OH256709   0.365   5.614  10.799 -0.3055  0.3951 -0.0335
11765TIP3    H156710   0.404   5.700  10.809  0.4461 -0.0847  1.2653
11765TIP3    H256711   0.418   5.556  10.854 -0.6241 -0.9556 -1.0914
11766TIP3   OH256712   0.628   0.113  15.175  0.3353 -0.2941  0.5290
11766TIP3    H156713   0.720   0.134  15.163  0.2940 -0.9749 -1.1794
11766TIP3    H256714   0.623   0.018  15.165 -0.7622 -0.0973 -0.9584
11767TIP3   OH256715   1.741   3.744  11.924 -0.9226  0.2001 -0.8843
11767TIP3    H156716   1.717   3.666  11.873  0.2153 -0.1486 -0.8945
11767TIP3    H256717   1.734   3.816  11.861  0.0411 -0.1714 -1.4190
11768TIP3   OH256718   2.093   6.615   1.990 -0.1716 -0.2045 -0.0598
11768TIP3    H156719   2.147   6.542   1.959  1.1293  0.0642  1.5190
11768TIP3    H256720   2.083   6.672   1.914 -0.1038 -1.3683 -0.9541
11769TIP3   OH256721   0.278   1.091   0.974  0.0342 -0.3781  0.1986
11769TIP3    H156722   0.352   1.049   1.018  0.2347 -0.0411  0.1803
11769TIP3    H256723   0.317   1.139   0.901 -0.3085 -1.0210 -0.4138
11770TIP3   OH256724   3.216   1.431  13.592  0.1293  0.3864 -0.0172
11770TIP3    H156725   3.139   1.385  13.626  0.4233 -1.1520 -1.3640
11770TIP3    H256726   3.281   1.423  13.661  0.1081 -1.0788 -0.1496
11771TIP3   OH256727   2.528   5.520   0.209 -0.4311 -0.1182  0.4764
11771TIP3    H156728   2.595   5.479   0.263  0.1693  0.4280  0.1470
11771TIP3    H256729   2.508   5.455   0.142 -0.5935 -0.4779  0.8728
11772TIP3   OH256730   6.052   0.651   3.423  0.4096  0.0062 -0.2037
11772TIP3    H156731   6.131   0.691   3.389 -0.2088  0.5626 -0.9977
11772TIP3    H256732   6.082   0.594   3.494  1.6130 -0.5160 -1.1274
11773TIP3   OH256733   2.039   1.765   5.671  0.0371 -0.1799  0.3885
11773TIP3    H156734   1.970   1.727   5.617  0.3992  0.7482 -0.7638
11773TIP3    H256735   2.118   1.718   5.645  0.1224 -0.1178  0.5344
11774TIP3   OH256736   3.964   6.366   5.406 -0.1515  0.5076 -0.1499
11774TIP3    H156737   3.964   6.274   5.381 -0.4911  0.4032  0.2366
11774TIP3    H256738   4.052   6.381   5.443 -0.0392  0.3829 -0.3695
11775TIP3   OH256739   3.635   1.693   3.445  0.2166  0.0210 -0.1128
11775TIP3    H156740   3.607   1.673   3.534  0.7498 -1.8933 -0.3590
11775TIP3    H256741   3.581   1.768   3.419 -1.5097 -0.8024  1.0298
11776TIP3   OH256742   3.484   5.607  14.821  0.2089 -0.7148 -0.2183
11776TIP3    H156743   3.567   5.641  14.854  0.1672 -0.6910 -0.1379
11776TIP3    H256744   3.467   5.528  14.872 -1.1442  0.7216  1.6423
11777TIP3   OH256745   6.777   6.765  15.922  0.1551 -0.2637  0.1933
11777TIP3    H156746   6.854   6.819  15.941 -0.9239  0.9404  1.1914
11777TIP3    H256747   6.811   6.675  15.922  1.7740  0.3379 -0.5242
11778TIP3   OH256748   2.066   4.451  16.073  0.3167 -0.3882 -0.1540
11778TIP3    H156749   1.996   4.516  16.068 -0.1706 -0.8484  0.6254
11778TIP3    H256750   2.132   4.491  16.131  1.0869  0.3916 -1.5378
11779TIP3   OH256751   1.032   5.236   0.779  0.4743  0.0860  0.3932
11779TIP3    H156752   1.025   5.240   0.683  0.4649  0.1625  0.3976
11779TIP3    H256753   1.050   5.326   0.806  0.0786  0.1345  0.4947
11780TIP3   OH256754   1.457   0.020  10.569 -0.0719 -0.3107 -0.0947
11780TIP3    H156755   1.475  -0.051  10.508  0.9373  0.8215 -1.1618
11780TIP3    H256756   1.387   0.071  10.526  1.0287  0.8064 -0.5990
11781TIP3   OH256757   3.793   1.307  15.696 -0.0442  0.0423 -0.5420
11781TIP3    H156758   3.803   1.292  15.790  1.1639  0.9636 -0.5079
11781TIP3    H256759   3.706   1.346  15.687 -0.0795  0.1457  0.2178
11782TIP3   OH256760   0.475   2.175  16.296  0.8198  0.1145  0.2353
11782TIP3    H156761   0.544   2.177  16.230 -0.9760 -0.9742 -1.7713
11782TIP3    H256762   0.456   2.082  16.308 -2.5549  0.4489 -1.7812
11783TIP3   OH256763   0.924   3.218   0.710 -0.1332 -0.4826  0.3233
11783TIP3    H156764   0.923   3.130   0.670 -1.9660 -0.1469 -0.4047
11783TIP3    H256765   0.889   3.204   0.798 -3.5889  0.0008 -0.9111
11784TIP3   OH256766   0.973   3.224  13.741 -0.5876 -0.1380 -0.8411
11784TIP3    H156767   0.911   3.223  13.815  0.6068  0.7899  0.1937
11784TIP3    H256768   0.918   3.237  13.664 -2.1049 -3.4383 -0.3914
11785TIP3   OH256769   3.134   4.834  14.046 -0.1182 -0.0977 -0.0797
11785TIP3    H156770   3.073   4.807  14.114  0.6195  1.0681  1.0784
11785TIP3    H256771   3.178   4.753  14.020 -2.6219 -1.0561 -1.4319
11786TIP3   OH256772   0.531   2.147   4.680  0.6626  0.8374  0.1927
11786TIP3    H156773   0.559   2.066   4.724 -0.9521  0.4714  0.5853
11786TIP3    H256774   0.611   2.181   4.640  1.4229 -0.8083  0.2509
11787TIP3   OH256775   0.507   6.163   1.631 -0.0148  0.2271 -0.2454
11787TIP3    H156776   0.479   6.211   1.553 -0.3855  0.6497  0.1426
11787TIP3    H256777   0.585   6.115   1.603  0.7736  1.5986 -0.4478
11788TIP3   OH256778   0.856   2.473   4.819  1.3262  0.2401 -0.1237
11788TIP3    H156779   0.814   2.505   4.900  0.0239 -0.1174 -0.6511
11788TIP3    H256780   0.869   2.380   4.834  1.4008  0.2406 -0.1879
11789TIP3   OH256781   0.298   2.884   1.691  0.0603  0.0394  0.6528
11789TIP3    H156782   0.358   2.942   1.737  1.2078 -1.0774  0.6106
11789TIP3    H256783   0.346   2.858   1.612 -1.3734  0.9281 -0.5319
11790TIP3   OH256784   3.462   6.682   0.922 -0.1158 -0.3362  0.3440
11790TIP3    H156785   3.461   6.742   0.996 -1.0065  1.1657 -0.8463
11790TIP3    H256786   3.526   6.719   0.861  1.8999 -2.5039  1.0890
11791TIP3   OH256787   0.717   6.271   4.150 -0.1570 -0.2421 -0.7243
11791TIP3    H156788   0.787   6.206   4.156  1.1521  1.2769  1.2184
11791TIP3    H256789   0.684   6.263   4.060 -0.5929 -4.1020 -0.2921
11792TIP3   OH256790   5.099   0.551  15.456 -0.1621 -0.5828 -0.4519
11792TIP3    H156791   5.051   0.632  15.439  1.4003  0.4823  0.1131
11792TIP3    H256792   5.173   0.578  15.511  0.7396 -2.2860 -0.7976
11793TIP3   OH256793   4.975   6.504   4.383 -0.4480  0.6340 -0.0166
11793TIP3    H156794   4.961   6.482   4.475 -0.3292  0.6397  0.0028
11793TIP3    H256795   4.983   6.600   4.382 -0.1735  0.6097  0.0026
11794TIP3   OH256796   4.336   1.866  15.419 -0.3448  0.6018  0.0487
11794TIP3    H156797   4.248   1.868  15.457  0.1546 -0.4632  1.3090
11794TIP3    H256798   4.386   1.929  15.472 -0.4490  1.5401 -0.9519
11795TIP3   OH256799   5.431   1.973   1.355  0.3282  0.3134 -0.5123
11795TIP3    H156800   5.365   1.992   1.423  0.8848 -1.8732  0.7019
11795TIP3    H256801   5.383   1.979   1.273 -1.3101 -0.8436  0.3357
11796TIP3   OH256802   0.280   3.477   2.218  0.0958 -0.0260 -0.2890
11796TIP3    H156803   0.207   3.506   2.164 -0.7317 -2.0171 -0.3005
11796TIP3    H256804   0.273   3.527   2.299 -1.0938  0.0240 -0.4261
11797TIP3   OH256805   0.736   4.172  14.945 -0.7192 -0.0151  0.2806
11797TIP3    H156806   0.703   4.107  14.883  1.7747 -0.2245 -0.8951
11797TIP3    H256807   0.743   4.253  14.894 -0.9258  0.4224  0.9353
11798TIP3   OH256808   4.140   4.285  15.867  0.5139 -0.8580  0.3112
11798TIP3    H156809   4.107   4.322  15.949 -0.8070 -0.6657 -0.3009
11798TIP3    H256810   4.235   4.298  15.872  0.1946  1.6587  0.5962
11799TIP3   OH256811   4.019   3.432  15.241  0.5351  0.1159 -0.5006
11799TIP3    H156812   3.950   3.415  15.176 -1.5488  1.1405  1.3651
11799TIP3    H256813   4.100   3.408  15.197 -0.9442 -0.3775 -3.0492
11800TIP3   OH256814   0.326   0.502  12.346 -0.2018  0.1102  0.8342
11800TIP3    H156815   0.255   0.506  12.410 -0.3384  0.0424  0.6853
11800TIP3    H256816   0.383   0.432  12.378  0.4943  1.0444  1.6767
11801TIP3   OH256817   6.785   4.985   0.432  0.6368  0.0395 -0.3625
11801TIP3    H156818   6.728   4.932   0.488  1.9783  0.0459  1.0373
11801TIP3    H256819   6.725   5.042   0.384 -0.5296  0.1876  1.2263
11802TIP3   OH256820   5.019   2.274   0.484 -0.0631 -0.7572  0.6153
11802TIP3    H156821   5.007   2.236   0.396  0.2310 -0.4240  0.4313
11802TIP3    H256822   4.933   2.306   0.508 -0.2603 -1.3064  0.6635
11803TIP3   OH256823   4.602   0.445   4.190 -0.1910 -0.2216 -0.2832
11803TIP3    H156824   4.688   0.431   4.229  0.8150  1.2520 -1.9150
11803TIP3    H256825   4.592   0.375   4.127  0.4252  0.4111 -1.0907
11804TIP3   OH256826   2.202   5.524   1.199  0.0624  1.0621 -0.2767
11804TIP3    H156827   2.116   5.532   1.158  0.5231  1.2120 -1.2139
11804TIP3    H256828   2.183   5.519   1.293 -1.0349  0.0737 -0.5390
11805TIP3   OH256829   4.993   3.529   6.344 -0.1032  0.3601  0.1776
11805TIP3    H156830   5.088   3.518   6.339 -0.0300  1.1392 -0.1508
11805TIP3    H256831   4.969   3.497   6.431  0.6741  1.8071  0.9369
11806TIP3   OH256832   6.388   2.330  16.490  0.0548  0.4512 -0.2760
11806TIP3    H156833   6.375   2.237  16.507  0.6108  0.7881  2.1614
11806TIP3    H256834   6.474   2.335  16.448 -0.5811 -0.2493 -1.6782
11807TIP3   OH256835   4.369   2.926  14.650  0.0606  0.3790  0.0426
11807TIP3    H156836   4.368   2.996  14.715 -2.1599 -0.3045  0.7447
11807TIP3    H256837   4.357   2.845  14.700 -1.9250 -0.1299 -1.2165
11808TIP3   OH256838   4.747   5.922   1.766  0.5438  1.0924  0.4463
11808TIP3    H156839   4.693   5.844   1.751  0.3485  1.1380  0.9199
11808TIP3    H256840   4.688   5.984   1.809 -0.0493  2.4470 -2.1634
11809TIP3   OH256841   0.752   0.778  11.399  0.1523 -0.5591  0.2276
11809TIP3    H156842   0.791   0.838  11.335 -0.4630 -0.1986  0.1826
11809TIP3    H256843   0.826   0.733  11.438  0.6240  0.2211  0.2434
11810TIP3   OH256844   5.982   1.063  14.694 -0.5183  0.5711  0.4028
11810TIP3    H156845   5.998   1.001  14.623  0.1069 -0.1826  1.2009
11810TIP3    H256846   5.894   1.095  14.677 -1.2083 -1.2168  0.4968
11811TIP3   OH256847   6.371   3.010   2.830 -0.4678 -0.1826  0.6766
11811TIP3    H156848   6.440   3.076   2.818  0.6396 -1.1291  1.6944
11811TIP3    H256849   6.373   2.991   2.924 -1.6905 -0.7014  0.6035
11812TIP3   OH256850   2.958   4.768  11.370 -0.5099 -0.6148 -0.0557
11812TIP3    H156851   2.910   4.707  11.425 -1.1888 -0.3651 -0.3688
11812TIP3    H256852   2.992   4.715  11.297  0.4802 -0.9661  0.6461
11813TIP3   OH256853   5.781   0.321   4.078  0.1920  0.3068  0.2229
11813TIP3    H156854   5.821   0.364   4.002  0.9996  0.9285  0.9910
11813TIP3    H256855   5.699   0.368   4.091 -0.6651 -0.7690 -1.1680
11814TIP3   OH256856   0.412   5.985  15.947 -0.3283  0.0404 -0.1331
11814TIP3    H156857   0.414   6.055  15.881  1.3155  1.8023  1.6931
11814TIP3    H256858   0.463   5.914  15.908  0.8007  1.1404 -0.7012
11815TIP3   OH256859   0.811   3.134  10.665  0.2496 -0.2878  0.5105
11815TIP3    H156860   0.888   3.086  10.635  0.3759 -0.8668  1.7438
11815TIP3    H256861   0.847   3.216  10.700  0.0426  0.6906 -1.5029
11816TIP3   OH256862   3.910   1.044  12.311  0.3804 -0.0298 -0.1733
11816TIP3    H156863   3.847   0.988  12.267 -0.4802  1.3864 -0.7849
11816TIP3    H256864   3.987   1.045  12.254  0.2366 -0.2407 -0.3664
11817TIP3   OH256865   5.455   4.785  13.219 -0.1411 -0.1840 -0.7958
11817TIP3    H156866   5.505   4.830  13.152  0.3833 -0.4189 -0.5609
11817TIP3    H256867   5.376   4.755  13.174  1.5714 -2.9844 -2.0337
11818TIP3   OH256868   4.562   1.801  13.736 -0.7098 -0.6499  0.1611
11818TIP3    H156869   4.524   1.731  13.683  1.0588 -2.1113  0.7835
11818TIP3    H256870   4.597   1.757  13.813 -1.4191  1.1938  1.5703
11819TIP3   OH256871   4.681   5.455   4.551 -0.0526 -0.5678  0.1571
11819TIP3    H156872   4.754   5.420   4.499 -0.5205 -0.1826 -0.7753
11819TIP3    H256873   4.721   5.524   4.604  0.3070 -0.4929 -0.2070
11820TIP3   OH256874   6.508   3.813  11.788  0.0693 -0.0800  0.5147
11820TIP3    H156875   6.483   3.890  11.737 -0.0878  0.4118  1.3217
11820TIP3    H256876   6.427   3.761  11.793  0.0857 -0.1305  0.2630
11821TIP3   OH256877   5.171   2.085   5.532 -0.0086 -0.3824 -0.0344
11821TIP3    H156878   5.122   2.054   5.608  2.4399 -1.6656  1.0760
11821TIP3    H256879   5.249   2.127   5.568 -1.1856  3.4933 -1.6892
11822TIP3   OH256880   1.815   3.987   5.499  0.7257  0.1317  0.1291
11822TIP3    H156881   1.789   4.029   5.417  0.7039 -1.4230 -0.6709
11822TIP3    H256882   1.774   4.041   5.568 -0.3342  0.6809 -0.9154
11823TIP3   OH256883   4.151   0.089   4.475  0.2605 -0.3392  0.3725
11823TIP3    H156884   4.080   0.060   4.532  0.9428 -0.7822  1.0043
11823TIP3    H256885   4.193   0.008   4.446  0.4189 -0.0857 -0.1146
11824TIP3   OH256886   1.737   2.213  15.425 -0.1031  0.2973  0.2043
11824TIP3    H156887   1.771   2.126  15.403  1.8196  0.3272  2.7609
11824TIP3    H256888   1.716   2.207  15.518  0.6514  2.7386  0.5639
11825TIP3   OH256889   1.588   1.784  14.055  0.1291 -0.1140 -0.9593
11825TIP3    H156890   1.613   1.794  14.147 -2.2989  0.2645 -0.3156
11825TIP3    H256891   1.502   1.742  14.058  0.4013 -0.8908 -3.0895
11826TIP3   OH256892   2.658   3.725  15.260 -0.2935 -0.1337 -0.2382
11826TIP3    H156893   2.608   3.724  15.178  0.6067 -0.3385 -0.7865
11826TIP3    H256894   2.699   3.811  15.261 -1.2840  0.3492  0.6086
11827TIP3   OH256895   5.162   4.553  11.686  0.0136  0.1584  0.0397
11827TIP3    H156896   5.100   4.544  11.614 -0.3054 -0.8583  0.4329
11827TIP3    H256897   5.129   4.494  11.754  0.1880  1.2682  1.1031
11828TIP3   OH256898   4.730   5.920   2.387 -0.4183  0.5396  0.2560
11828TIP3    H156899   4.737   6.004   2.431 -1.2310 -0.0426  1.5137
11828TIP3    H256900   4.799   5.922   2.320  1.3838  1.0810  2.0994
11829TIP3   OH256901   4.944   1.841  17.047 -0.2813 -0.4004 -0.1145
11829TIP3    H156902   5.003   1.775  17.011 -0.4544 -0.5335 -0.1588
11829TIP3    H256903   4.876   1.790  17.092 -1.6013 -0.3411 -1.9499
11830TIP3   OH256904   1.952   1.160  11.233 -0.1311  0.1103 -0.0894
11830TIP3    H156905   2.008   1.195  11.164  1.5451 -0.1148  1.1144
11830TIP3    H256906   1.984   1.203  11.313 -0.2104 -1.7017  0.9368
11831TIP3   OH256907   1.868   4.389   0.942 -0.5063 -0.7693  0.0902
11831TIP3    H156908   1.961   4.408   0.928 -0.6289 -1.0517 -1.2085
11831TIP3    H256909   1.858   4.385   1.037  0.7936 -0.6540  0.2420
11832TIP3   OH256910   5.302   3.072   2.558  0.2091 -0.2575  0.0476
11832TIP3    H156911   5.221   3.089   2.510  0.1135 -2.7219 -0.7376
11832TIP3    H256912   5.293   2.982   2.589  1.8022  0.1150  1.6761
11833TIP3   OH256913   2.010   6.742   3.816 -0.5472  0.1262 -0.1006
11833TIP3    H156914   2.012   6.784   3.730 -1.0594  3.7993  1.6093
11833TIP3    H256915   1.919   6.751   3.845  0.0717  0.7729  1.6972
11834TIP3   OH256916   0.341   4.828   0.540  1.0105  0.5649  0.2822
11834TIP3    H156917   0.354   4.861   0.629  0.3940  0.7497  0.3032
11834TIP3    H256918   0.374   4.898   0.484  1.6293  0.3453  0.3653
11835TIP3   OH256919   4.393   0.211   2.141  0.2998  0.7050  0.1580
11835TIP3    H156920   4.374   0.255   2.058 -0.1533  1.3421  0.5979
11835TIP3    H256921   4.446   0.135   2.116  1.7127  1.9048 -0.5247
11836TIP3   OH256922   1.124   4.766   2.225  0.5858  0.6028  0.1094
11836TIP3    H156923   1.098   4.696   2.165  1.3972 -0.5025  1.0192
11836TIP3    H256924   1.063   4.838   2.207 -0.7829 -0.6345 -0.2756
11837TIP3   OH256925   1.151   1.303  14.130 -0.1697  0.3322 -0.3562
11837TIP3    H156926   1.091   1.350  14.188 -1.6752  0.8456 -2.2631
11837TIP3    H256927   1.097   1.278  14.056  1.6924 -0.4008 -1.4987
11838TIP3   OH256928   5.893   3.822   4.422  0.2201 -0.1529 -0.0991
11838TIP3    H156929   5.846   3.753   4.469 -2.3614  2.1933  0.9375
11838TIP3    H256930   5.876   3.804   4.329 -3.8337  1.2018  0.2402
11839TIP3   OH256931   3.737   3.607   4.643  0.1199 -0.3900  0.0336
11839TIP3    H156932   3.806   3.667   4.669 -0.1939 -0.4516  1.0229
11839TIP3    H256933   3.721   3.553   4.720  1.3322 -2.6633 -1.2600
11840TIP3   OH256934   3.661   6.125  12.568 -0.4755  0.1338  0.2832
11840TIP3    H156935   3.607   6.201  12.588 -0.9211 -0.1802  0.2730
11840TIP3    H256936   3.624   6.055  12.622  0.4481  0.1317  0.9193
11841TIP3   OH256937   5.693   2.952   2.589  0.4878 -0.0504 -0.2278
11841TIP3    H156938   5.710   2.959   2.683  2.6238  0.8119 -0.6615
11841TIP3    H256939   5.677   3.043   2.562 -1.7883 -0.4651 -0.4386
11842TIP3   OH256940   2.314   2.908  12.015 -0.7229  0.0220 -0.2177
11842TIP3    H156941   2.282   2.917  11.926 -0.8300  1.2490 -0.0581
11842TIP3    H256942   2.295   2.817  12.038  0.3386 -0.6305 -1.8358
11843TIP3   OH256943   5.301   6.208   1.486 -0.0958 -0.0464  0.4126
11843TIP3    H156944   5.348   6.289   1.465  0.3523 -0.1558  0.9776
11843TIP3    H256945   5.211   6.237   1.502 -0.2015  0.1774 -0.5637
11844TIP3   OH256946   3.456   6.393   2.698  0.4829 -0.0229 -0.3050
11844TIP3    H156947   3.437   6.362   2.787  2.9164 -0.6521  0.0466
11844TIP3    H256948   3.376   6.438   2.671  0.4052  2.0356  3.0113
11845TIP3   OH256949   6.222   5.351  14.593  0.3067  0.1513 -0.0881
11845TIP3    H156950   6.303   5.377  14.549  0.1255 -0.0138 -0.5129
11845TIP3    H256951   6.249   5.279  14.651  1.5178  3.3662  3.6259
11846TIP3   OH256952   0.467   0.643  11.843  0.5813  0.3460 -0.1497
11846TIP3    H156953   0.384   0.683  11.819  1.2657  3.1696  1.9540
11846TIP3    H256954   0.532   0.690  11.790  1.0461 -0.4372 -0.2813
11847TIP3   OH256955   4.033   5.175   4.920 -0.2867  0.0600 -0.1226
11847TIP3    H156956   4.023   5.087   4.956 -0.2207  0.5940  1.2022
11847TIP3    H256957   3.994   5.233   4.986  0.3292  1.0895 -0.6531
11848TIP3   OH256958   0.116   0.101   6.001  0.4502  0.0304  0.2518
11848TIP3    H156959   0.202   0.078   5.967 -0.1618 -0.4412 -1.0246
11848TIP3    H256960   0.123   0.090   6.096  1.6027 -0.6284  0.0909
11849TIP3   OH256961   5.563   2.447   4.274 -0.0611  0.8465 -0.4113
11849TIP3    H156962   5.499   2.490   4.217  0.0032  0.1054 -1.0477
11849TIP3    H256963   5.570   2.505   4.350 -0.5103  1.5957 -0.9339
11850TIP3   OH256964   1.760   3.053   4.662 -0.1328  0.0996 -0.0055
11850TIP3    H156965   1.675   3.009   4.672 -0.9866  0.9381 -2.9711
11850TIP3    H256966   1.824   2.987   4.685 -1.5728 -0.8339  1.4435
11851TIP3   OH256967   0.239   5.206  11.978  0.3150  0.3039  0.0029
11851TIP3    H156968   0.233   5.277  11.913  2.9157 -1.2407 -2.0619
11851TIP3    H256969   0.295   5.141  11.936  0.7077 -1.5018  3.1973
11852TIP3   OH256970   1.195   5.994  17.032  0.4109  0.0406  0.1201
11852TIP3    H156971   1.129   6.046  16.985 -0.6248 -1.0793  0.3080
11852TIP3    H256972   1.228   5.932  16.967  1.4716  0.7556 -0.0372
11853TIP3   OH256973   5.999   0.501  16.157 -0.2138  0.5422 -0.4392
11853TIP3    H156974   5.976   0.516  16.065 -0.4105  1.0804 -0.3076
11853TIP3    H256975   6.094   0.491  16.157 -0.2200  0.4906 -0.7108
11854TIP3   OH256976   1.561   5.659   4.855  0.2240  0.3837  0.2059
11854TIP3    H156977   1.471   5.652   4.886 -0.2662  1.0505 -1.0110
11854TIP3    H256978   1.610   5.691   4.930 -0.1442 -2.0397  1.5075
11855TIP3   OH256979   4.682   1.051   1.755  0.0842  0.0725 -0.3439
11855TIP3    H156980   4.595   1.068   1.789 -0.1664  0.5015 -1.1922
11855TIP3    H256981   4.740   1.100   1.814 -0.2432 -0.2072  0.2145
11856TIP3   OH256982   3.724   0.888   3.878  0.1936  0.0485 -0.5291
11856TIP3    H156983   3.648   0.831   3.868  1.0985 -1.2910  0.0264
11856TIP3    H256984   3.732   0.932   3.793 -0.9744 -0.0901 -0.7123
11857TIP3   OH256985   3.897   6.391  12.302 -0.0137 -0.1371 -0.4733
11857TIP3    H156986   3.976   6.341  12.321 -0.9688 -0.9004  1.5973
11857TIP3    H256987   3.844   6.332  12.247  0.3223 -0.0894 -0.8491
11858TIP3   OH256988   0.604   2.081  12.888 -0.0951  0.2285  0.3737
11858TIP3    H156989   0.510   2.063  12.893 -0.0724  0.2264  0.8451
11858TIP3    H256990   0.637   2.015  12.828 -0.2862 -0.2276  0.7611
11859TIP3   OH256991   5.853   6.679  14.821  0.2240  0.1574 -0.1938
11859TIP3    H156992   5.811   6.604  14.864  0.9529  0.4230  1.0006
11859TIP3    H256993   5.886   6.643  14.738 -1.3443 -0.3163 -0.6459
11860TIP3   OH256994   5.815   3.380  13.610  0.5926 -0.2571  0.8901
11860TIP3    H156995   5.779   3.309  13.557 -0.8663 -0.1938  1.7760
11860TIP3    H256996   5.856   3.439  13.547 -0.7186 -0.4149 -0.1266
11861TIP3   OH256997   4.081   3.172   5.456 -0.2518 -0.2183 -0.0069
11861TIP3    H156998   4.167   3.143   5.483 -1.0827 -2.0199  0.7889
11861TIP3    H256999   4.070   3.135   5.368 -1.0061 -1.6838  0.6984
11862TIP3   OH257000   1.485   4.112  11.990  0.2961 -0.5392  0.2211
11862TIP3    H157001   1.554   4.118  11.923  0.1729 -3.8701 -0.2739
11862TIP3    H257002   1.405   4.136  11.944  0.6557  0.2604 -0.0012
11863TIP3   OH257003   5.860   2.005  15.257 -0.0627 -0.3930  0.2242
11863TIP3    H157004   5.815   1.994  15.341  1.1501  0.6800  1.0355
11863TIP3    H257005   5.789   2.014  15.193 -1.0212 -2.6518  0.9053
11864TIP3   OH257006   4.672   2.406  12.283 -0.5588 -0.6644  0.7544
11864TIP3    H157007   4.599   2.465  12.300 -0.4518 -0.4115  0.3550
11864TIP3    H257008   4.702   2.430  12.195 -0.5927 -1.4005  0.5360
11865TIP3   OH257009   1.376   5.733  12.312  0.0569  0.1198  0.0602
11865TIP3    H157010   1.363   5.654  12.258 -2.4537  0.3763  0.2358
11865TIP3    H257011   1.468   5.755  12.299 -0.0412 -0.8250 -2.8033
11866TIP3   OH257012   3.012   3.874   1.004  0.5640 -0.0661 -0.1261
11866TIP3    H157013   3.051   3.871   0.917 -0.4337  0.1668 -0.5841
11866TIP3    H257014   2.918   3.869   0.989  0.4709 -3.1432  1.0880
11867TIP3   OH257015   3.256   5.885  13.984 -0.1760  0.4487  0.3517
11867TIP3    H157016   3.195   5.916  13.917 -1.2704 -0.9267  0.6675
11867TIP3    H257017   3.209   5.812  14.025  0.7369  0.9003  2.1989
11868TIP3   OH257018   2.566   1.719   4.565 -0.5444  0.6677 -0.0074
11868TIP3    H157019   2.491   1.769   4.598 -0.6590  0.8137 -0.4831
11868TIP3    H257020   2.566   1.638   4.616  0.8464  2.0013  2.1978
11869TIP3   OH257021   5.999   4.758  13.495  0.0302  0.3783  0.5874
11869TIP3    H157022   5.995   4.847  13.528  0.0290  0.6019 -0.0063
11869TIP3    H257023   6.071   4.717  13.542  1.8125  1.5077 -1.0917
11870TIP3   OH257024   5.650   3.695   4.549  0.5091 -0.6317  0.1663
11870TIP3    H157025   5.665   3.772   4.604  0.9022 -1.7863  1.7018
11870TIP3    H257026   5.558   3.674   4.562  1.3158 -2.7264  2.8233
11871TIP3   OH257027   6.575   1.656  16.245  0.2537  0.2548  0.1103
11871TIP3    H157028   6.642   1.589  16.238  0.4727  0.4588  0.2414
11871TIP3    H257029   6.595   1.702  16.327  0.1194  0.4921  0.0108
11872TIP3   OH257030   6.301   3.493  16.584  0.0218 -0.3261  0.4743
11872TIP3    H157031   6.243   3.522  16.655 -0.6577  0.0877 -0.2440
11872TIP3    H257032   6.385   3.477  16.627 -0.4536 -0.3340  1.4187
11873TIP3   OH257033   3.881   5.172  13.352 -0.4131 -0.0510  0.0585
11873TIP3    H157034   3.905   5.084  13.381  1.5907 -0.0346 -1.4617
11873TIP3    H257035   3.912   5.229  13.423 -1.7089 -0.5438  1.0473
11874TIP3   OH257036   0.844   5.276  10.737  0.2464 -0.7734 -0.2280
11874TIP3    H157037   0.827   5.365  10.769  0.5376 -0.8428  0.1235
11874TIP3    H257038   0.932   5.256  10.768 -0.1701 -1.5344  0.4826
11875TIP3   OH257039   3.460   6.125  11.922 -0.5990 -0.6874 -0.6329
11875TIP3    H157040   3.474   6.109  11.828  0.9703  0.4658 -0.6192
11875TIP3    H257041   3.444   6.038  11.959 -0.1600 -1.2807 -1.8068
11876TIP3   OH257042   2.402   1.159  11.206  0.3735  0.0225  0.0601
11876TIP3    H157043   2.494   1.171  11.183  0.8078 -1.5894  0.9077
11876TIP3    H257044   2.397   1.183  11.298 -0.1021  0.2997 -0.0352
11877TIP3   OH257045   1.781   5.020  12.968  0.3460  0.2692 -0.3193
11877TIP3    H157046   1.713   5.074  12.929  0.5970  0.3788 -0.6051
11877TIP3    H257047   1.860   5.039  12.917 -0.1736 -2.4151 -2.2114
11878TIP3   OH257048   5.840   0.452  12.995  0.3910 -0.0720  0.0203
11878TIP3    H157049   5.788   0.386  13.040 -1.6601  1.3590 -0.2039
11878TIP3    H257050   5.921   0.458  13.047 -1.2858  0.4732  2.6518
11879TIP3   OH257051   6.485   6.625  13.817 -0.0607 -0.5918 -0.4687
11879TIP3    H157052   6.445   6.658  13.898 -0.6219 -0.4365 -0.8053
11879TIP3    H257053   6.506   6.704  13.767 -0.8374 -0.7079 -1.0048
11880TIP3   OH257054   6.082   4.819  15.177  0.2644  0.4571 -0.1544
11880TIP3    H157055   6.018   4.802  15.246  1.8653  0.2054  1.3020
11880TIP3    H257056   6.148   4.876  15.218  0.9353  0.7937 -1.6459
11881TIP3   OH257057   3.308   1.802   4.820  0.2429  0.0184 -0.0135
11881TIP3    H157058   3.311   1.832   4.911  2.0389  0.4370 -0.1955
11881TIP3    H257059   3.305   1.882   4.768  0.0009 -0.2086 -0.3551
11882TIP3   OH257060   1.429   6.197   2.638  0.0239  0.0436  0.1204
11882TIP3    H157061   1.374   6.198   2.559  0.8203 -0.2247 -0.4374
11882TIP3    H257062   1.461   6.287   2.646  0.0990  0.0249  0.0307
11883TIP3   OH257063   0.331   6.673   3.264 -0.0618 -0.2907  0.6372
11883TIP3    H157064   0.344   6.668   3.169 -1.2252 -1.3840  0.5324
11883TIP3    H257065   0.258   6.615   3.282 -1.5518  1.8825  1.8848
11884TIP3   OH257066   5.422   5.623  15.257  0.4971  0.1745 -0.0882
11884TIP3    H157067   5.468   5.671  15.326  1.2837  1.3872 -1.4259
11884TIP3    H257068   5.412   5.687  15.186 -1.5317 -0.6369 -0.5658
11885TIP3   OH257069   6.471   4.958   2.533 -0.1690 -0.0338 -0.0655
11885TIP3    H157070   6.534   4.892   2.563 -0.1038  0.0686  0.0237
11885TIP3    H257071   6.477   4.956   2.438  1.6904  1.6134 -0.0303
11886TIP3   OH257072   2.931   3.332  12.170 -1.0996  0.2798  0.1514
11886TIP3    H157073   2.866   3.286  12.222 -1.4269  1.3500  0.7116
11886TIP3    H257074   2.949   3.412  12.219  0.9522 -0.1899  0.2157
11887TIP3   OH257075   2.710   3.975  16.003  0.9109 -0.0148 -0.0389
11887TIP3    H157076   2.702   3.988  15.909 -3.0374  1.3921  0.4079
11887TIP3    H257077   2.680   3.885  16.018 -1.3160  0.7486  0.1698
11888TIP3   OH257078   5.793   6.785   5.462  0.1686 -0.2265 -0.2364
11888TIP3    H157079   5.848   6.850   5.506  0.9693 -0.8685 -0.2800
11888TIP3    H257080   5.708   6.829   5.451  0.9557  1.1457 -1.0846
11889TIP3   OH257081   4.126   1.390  15.569 -0.1230  0.7266  0.0312
11889TIP3    H157082   4.031   1.389  15.561 -0.1359  2.8474 -0.1579
11889TIP3    H257083   4.156   1.447  15.498  1.1460  1.7367  1.3492
11890TIP3   OH257084   6.002   3.344   3.599  0.2055  0.1624 -0.6781
11890TIP3    H157085   5.971   3.346   3.508  1.1520 -0.6535 -1.0250
11890TIP3    H257086   5.936   3.291   3.645 -0.5969  1.0860 -0.7589
11891TIP3   OH257087   6.145   4.942   0.212 -0.3379 -0.2018  0.0159
11891TIP3    H157088   6.208   5.003   0.175  2.5263 -2.4879  0.9568
11891TIP3    H257089   6.169   4.857   0.176 -0.0143 -1.8366  3.8529
11892TIP3   OH257090   0.878   3.855  13.588 -0.0444 -0.2860 -0.2278
11892TIP3    H157091   0.950   3.891  13.641 -0.3094  1.0892 -0.7952
11892TIP3    H257092   0.870   3.916  13.515  0.6841 -2.4689 -2.1680
11893TIP3   OH257093   0.830   5.527   1.009 -0.2010 -0.4022 -0.7533
11893TIP3    H157094   0.768   5.460   1.037  0.9297 -0.5816  1.4804
11893TIP3    H257095   0.836   5.516   0.914 -0.6250 -2.9559 -0.5365
11894TIP3   OH257096   1.057   2.056  12.754 -0.0504  0.1716 -0.0663
11894TIP3    H157097   1.103   2.121  12.700 -0.5920  0.7158  0.1216
11894TIP3    H257098   1.123   1.989  12.772  0.5097  0.6587 -0.2800
11895TIP3   OH257099   5.776   3.899   3.162  0.0398 -0.2305  0.0723
11895TIP3    H157100   5.772   3.859   3.075  0.1440 -0.9730  0.4115
11895TIP3    H257101   5.830   3.977   3.149  0.9192 -0.8896 -0.3208
11896TIP3   OH257102   1.475   5.386  15.788 -0.1282 -0.1485  0.2235
11896TIP3    H157103   1.527   5.425  15.718 -1.4311  0.3698 -0.4496
11896TIP3    H257104   1.510   5.297  15.795  1.5464  0.5047  0.4755
11897TIP3   OH257105   3.961   5.448  15.976 -0.0303  0.0939 -0.0639
11897TIP3    H157106   4.001   5.533  15.960  2.5033 -1.1101 -0.2835
11897TIP3    H257107   4.006   5.388  15.918 -0.4053 -1.7746  1.5017
11898TIP3   OH257108   2.512   1.178   2.705 -0.1476 -0.0867 -0.4911
11898TIP3    H157109   2.422   1.179   2.671 -0.2435 -0.6235 -0.2686
11898TIP3    H257110   2.554   1.106   2.659 -0.0701 -0.3613  0.0031
11899TIP3   OH257111   4.064   4.828  15.654  0.2747 -0.0005 -0.4156
11899TIP3    H157112   4.157   4.851  15.658  0.3601 -0.3920 -0.0479
11899TIP3    H257113   4.048   4.780  15.736  0.5347 -2.8142 -1.9691
11900TIP3   OH257114   2.492   1.149   1.915 -0.4580 -0.4019  0.0292
11900TIP3    H157115   2.582   1.180   1.917 -0.4111 -0.6714  2.3441
11900TIP3    H257116   2.457   1.168   2.002 -2.6012 -0.4330 -0.7824
11901TIP3   OH257117   5.636   5.804   5.520 -0.0901  0.4000  0.0603
11901TIP3    H157118   5.594   5.722   5.493  0.4894 -0.1645  0.8467
11901TIP3    H257119   5.622   5.808   5.615  1.6226  0.1959  0.3362
11902TIP3   OH257120   0.908   2.466  10.775  0.4266 -0.3668 -0.5075
11902TIP3    H157121   0.997   2.467  10.738  1.1754 -2.1636  1.1423
11902TIP3    H257122   0.908   2.390  10.833 -2.0692 -0.1027 -0.1373
11903TIP3   OH257123   5.209   1.937  14.799  0.3851  0.3426  0.2015
11903TIP3    H157124   5.232   1.862  14.745  0.4420 -0.0264  0.7370
11903TIP3    H257125   5.272   2.005  14.774 -0.1552  0.4820 -0.8477
11904TIP3   OH257126   5.227   4.558  14.146 -0.1407 -0.4049 -0.3882
11904TIP3    H157127   5.279   4.510  14.211  0.0089  1.3224  0.7944
11904TIP3    H257128   5.289   4.619  14.107 -0.9575  0.6836  0.0128
11905TIP3   OH257129   3.684   2.495  15.034  0.5922 -0.2622 -0.0429
11905TIP3    H157130   3.709   2.587  15.046 -0.2432  0.0404 -0.6174
11905TIP3    H257131   3.642   2.471  15.117 -0.3347  0.2456 -0.3616
11906TIP3   OH257132   2.727   1.209  15.044 -0.4149 -0.1282 -0.5099
11906TIP3    H157133   2.706   1.272  15.113  1.5973 -0.3040  0.2935
11906TIP3    H257134   2.727   1.260  14.963  0.1799  0.7001  0.0090
11907TIP3   OH257135   4.382   4.059  14.654 -0.3154  0.3027  0.3633
11907TIP3    H157136   4.383   3.963  14.644  0.1810  0.4208 -0.7918
11907TIP3    H257137   4.320   4.090  14.588 -0.1917  0.8075  0.4819
11908TIP3   OH257138   2.866   0.937  12.387 -0.1179  0.2200 -0.1020
11908TIP3    H157139   2.926   0.916  12.316  1.8119  2.5569  0.7962
11908TIP3    H257140   2.779   0.932  12.347  0.8422  0.1330 -2.2566
11909TIP3   OH257141   4.164   2.836   3.544  0.4274  0.3116  0.2629
11909TIP3    H157142   4.128   2.848   3.456  0.6388  0.4520  0.1970
11909TIP3    H257143   4.092   2.861   3.602  1.0613  2.5142  0.1350
11910TIP3   OH257144   2.044   1.113  16.643 -0.8085  0.5766  0.4261
11910TIP3    H157145   2.043   1.192  16.588 -1.6169  0.9017  0.8902
11910TIP3    H257146   2.128   1.071  16.624 -0.5289  1.3604 -0.1009
11911TIP3   OH257147   6.628   1.549   6.200 -0.6292  0.0462  0.0167
11911TIP3    H157148   6.652   1.526   6.290 -1.1291 -0.2536  0.0777
11911TIP3    H257149   6.704   1.596   6.166  0.3882 -1.6206 -0.0811
11912TIP3   OH257150   3.690   0.602  13.869 -0.6105 -0.5036 -0.2253
11912TIP3    H157151   3.623   0.534  13.861 -1.5342  0.4288 -0.6424
11912TIP3    H257152   3.750   0.586  13.796 -1.0106 -0.6708 -0.5193
11913TIP3   OH257153   3.174   0.635  14.669 -0.3462 -0.4721 -0.2089
11913TIP3    H157154   3.211   0.683  14.743 -0.0564 -0.3039 -0.4592
11913TIP3    H257155   3.187   0.543  14.690 -1.5106 -0.4557  0.5915
11914TIP3   OH257156   0.168   5.223   5.722 -0.0076 -0.2471 -0.4456
11914TIP3    H157157   0.221   5.143   5.725  0.3225  0.0090  1.1583
11914TIP3    H257158   0.214   5.284   5.780 -1.2431  0.4825 -0.2132
11915TIP3   OH257159   5.042   4.375   3.423  0.1916  0.0101  0.0371
11915TIP3    H157160   4.978   4.413   3.362  1.0214  1.1331 -0.1392
11915TIP3    H257161   5.099   4.322   3.368  1.6272  1.9211 -0.3443
11916TIP3   OH257162   1.849   4.196   0.512 -0.2003  0.6903 -0.1933
11916TIP3    H157163   1.820   4.215   0.423 -0.3123 -1.9285 -0.7764
11916TIP3    H257164   1.768   4.195   0.563 -0.3381  0.5198 -0.4090
11917TIP3   OH257165   0.407   1.838   1.143  0.6625 -0.1246  0.0988
11917TIP3    H157166   0.326   1.787   1.134  1.1345 -1.2976  2.1356
11917TIP3    H257167   0.388   1.902   1.212  1.0511  0.4856 -0.3530
11918TIP3   OH257168   6.703   0.525   0.354  0.1066  0.3726 -0.1682
11918TIP3    H157169   6.775   0.578   0.319  0.2796 -0.5627 -1.2815
11918TIP3    H257170   6.706   0.539   0.448  1.6454  0.4940 -0.2231
11919TIP3   OH257171   6.245   3.915   5.876  0.4849 -0.1732 -0.4456
11919TIP3    H157172   6.234   3.878   5.789 -0.1636 -0.5734 -0.1992
11919TIP3    H257173   6.283   3.845   5.928 -1.1493 -0.6744  0.1301
11920TIP3   OH257174   1.919   1.920  15.709 -0.1840  0.6179  0.4224
11920TIP3    H157175   1.919   1.850  15.773  1.3555  0.9423  0.8139
11920TIP3    H257176   1.892   1.878  15.627  0.4693 -0.3920  0.7085
11921TIP3   OH257177   4.680   2.695  14.831  0.3026 -0.4119  0.3962
11921TIP3    H157178   4.688   2.606  14.797  1.6380  0.2029 -0.9678
11921TIP3    H257179   4.685   2.751  14.754 -2.0646  0.8150  1.0865
11922TIP3   OH257180   0.736   0.184  13.720  0.3265  0.6093  0.3543
11922TIP3    H157181   0.719   0.227  13.636 -2.1384 -0.7822  0.0894
11922TIP3    H257182   0.682   0.232  13.782 -1.6062 -1.3812  0.2480
11923TIP3   OH257183   1.540   4.135  16.957 -0.3126 -0.6426  0.1088
11923TIP3    H157184   1.540   4.228  16.979  0.0771 -0.6477  0.1322
11923TIP3    H257185   1.626   4.103  16.985 -0.5361 -1.0631  0.3317
11924TIP3   OH257186   0.881   5.373   1.891 -0.3309 -0.2467  0.1168
11924TIP3    H157187   0.876   5.424   1.972 -0.8252  0.5132 -0.3902
11924TIP3    H257188   0.800   5.322   1.891  0.7729 -2.0783  1.2971
11925TIP3   OH257189   2.071   3.858   1.582 -0.3753  0.5897  1.0408
11925TIP3    H157190   1.997   3.798   1.579  0.4889 -0.5738  2.5105
11925TIP3    H257191   2.108   3.854   1.494 -0.7398 -0.4966  0.9307
11926TIP3   OH257192   0.203   3.957  10.602 -0.2089  0.1333  0.4525
11926TIP3    H157193   0.272   4.022  10.588 -0.5798  0.2889 -0.6736
11926TIP3    H257194   0.126   4.008  10.624 -0.3428  0.0376  0.2044
11927TIP3   OH257195   2.992   0.174   2.273 -0.2784 -0.2224 -0.1357
11927TIP3    H157196   3.000   0.263   2.238 -1.0074 -0.4384 -0.8424
11927TIP3    H257197   3.073   0.131   2.246  0.4158  0.4354  0.8350
11928TIP3   OH257198   0.121   4.887  11.163  0.0523 -0.1121 -0.4544
11928TIP3    H157199   0.175   4.925  11.232 -0.7353 -0.5143  0.4000
11928TIP3    H257200   0.032   4.892  11.197 -0.4038  0.2301 -1.7050
11929TIP3   OH257201   6.422   6.717  16.041  0.9020 -0.4199  0.4643
11929TIP3    H157202   6.406   6.627  16.013 -3.1737 -0.5769  2.7627
11929TIP3    H257203   6.493   6.711  16.106  2.7288 -1.4995 -1.6041
11930TIP3   OH257204   6.321   6.158   0.317 -0.5053 -0.1270 -0.2751
11930TIP3    H157205   6.393   6.220   0.307 -0.5920 -0.2252 -1.6763
11930TIP3    H257206   6.318   6.139   0.411  0.9695  0.2488 -0.1429
11931TIP3   OH257207   3.610   6.700   0.287  0.0162  0.1280 -0.3257
11931TIP3    H157208   3.606   6.725   0.195  0.6955  1.5685  0.0323
11931TIP3    H257209   3.577   6.610   0.288 -1.1083  0.5027 -1.8149
11932TIP3   OH257210   1.671   0.500  12.728 -0.3596 -0.5098 -0.3230
11932TIP3    H157211   1.750   0.498  12.675  0.0314 -0.0460  0.2353
11932TIP3    H257212   1.611   0.557  12.680  0.7602  1.6376  0.7716
11933TIP3   OH257213   2.080   3.486   1.848 -0.0008 -0.2124 -0.2219
11933TIP3    H157214   2.134   3.565   1.842 -1.0297  0.3836 -2.3935
11933TIP3    H257215   2.020   3.503   1.921  0.6250  0.4710  0.1404
11934TIP3   OH257216   2.972   1.773   5.165  0.3788  0.1956  0.1792
11934TIP3    H157217   3.007   1.717   5.096  0.8691  1.2454 -0.4441
11934TIP3    H257218   2.976   1.720   5.244 -1.4273 -1.5051 -0.8223
11935TIP3   OH257219   1.944   2.756  10.854 -0.3471  0.4199 -0.3422
11935TIP3    H157220   2.022   2.807  10.832  0.2208  0.1903  1.1165
11935TIP3    H257221   1.976   2.670  10.878 -1.1424 -0.0025 -0.7616
11936TIP3   OH257222   5.542   4.162  17.132 -0.3822  0.5049 -0.5379
11936TIP3    H157223   5.486   4.096  17.091 -1.1210  0.4703  0.4980
11936TIP3    H257224   5.628   4.151  17.091 -0.6387 -0.7470 -0.7359
11937TIP3   OH257225   2.209   5.838   3.263 -0.2248 -0.4491  0.0285
11937TIP3    H157226   2.172   5.904   3.321 -2.5286 -1.9590  0.3500
11937TIP3    H257227   2.181   5.865   3.175 -0.1680 -0.3568  0.0392
11938TIP3   OH257228   2.504   4.873  10.536 -0.1388  0.7883  0.4680
11938TIP3    H157229   2.419   4.855  10.577  0.8832 -0.7600  1.9569
11938TIP3    H257230   2.516   4.802  10.473 -0.0323  1.1366  0.0859
11939TIP3   OH257231   1.529   0.747  13.930 -0.7800  0.5138 -0.7744
11939TIP3    H157232   1.624   0.740  13.946 -1.0245  1.4891  1.2893
11939TIP3    H257233   1.513   0.689  13.855  1.3387 -0.1858 -0.7291
11940TIP3   OH257234   4.620   0.346   3.882  0.0771 -0.6833  0.3077
11940TIP3    H157235   4.668   0.419   3.845 -0.1656 -0.8178 -0.2848
11940TIP3    H257236   4.593   0.294   3.806  1.0990 -1.9190  0.7869
11941TIP3   OH257237   1.251   2.175  12.587 -0.2552 -0.1550 -0.8230
11941TIP3    H157238   1.271   2.230  12.511 -0.3498  0.7231 -0.2271
11941TIP3    H257239   1.285   2.089  12.564  1.0129  0.4501 -1.2799
11942TIP3   OH257240   3.506   5.154   3.083 -0.2347  0.0615 -0.5625
11942TIP3    H157241   3.559   5.234   3.086  1.1749 -0.8935  0.2192
11942TIP3    H257242   3.498   5.127   3.174 -0.2192 -1.0256 -0.8841
11943TIP3   OH257243   4.555   3.237   4.617  0.2497 -0.4450 -0.5406
11943TIP3    H157244   4.507   3.319   4.630 -0.7861 -1.1519  0.1959
11943TIP3    H257245   4.487   3.171   4.603  1.0110 -1.4140  0.2211
11944TIP3   OH257246   1.041   0.739   4.610  0.1811 -0.2031  0.2051
11944TIP3    H157247   1.066   0.815   4.557 -0.8113  1.2045  1.7035
11944TIP3    H257248   0.970   0.699   4.561  0.2207  0.2591 -0.2411
11945TIP3   OH257249   0.367   1.559   2.095  0.3600  0.0623 -0.2161
11945TIP3    H157250   0.450   1.606   2.092  0.5730 -0.3115 -0.1247
11945TIP3    H257251   0.309   1.616   2.147  0.4452  0.4959 -0.5993
11946TIP3   OH257252   4.458   5.317  14.046 -0.1860 -0.2110  0.5551
11946TIP3    H157253   4.479   5.296  14.137 -2.7953 -2.3190  0.7508
11946TIP3    H257254   4.387   5.380  14.052  1.3131  1.5605 -0.0567
11947TIP3   OH257255   4.981   6.250  14.320  0.1313 -0.4783 -0.7834
11947TIP3    H157256   4.904   6.289  14.279  0.9914 -0.7634 -2.7145
11947TIP3    H257257   5.040   6.323  14.335  0.9884 -0.7374 -2.7238
11948TIP3   OH257258   2.266   4.335   4.355  0.4416  0.1450  0.0915
11948TIP3    H157259   2.193   4.368   4.302 -0.5159  2.0983  2.4897
11948TIP3    H257260   2.233   4.253   4.393  0.5500 -0.4386 -1.0633
11949TIP3   OH257261   6.640   6.105   2.994  0.2435 -0.4991 -0.2342
11949TIP3    H157262   6.725   6.067   3.014  1.9200  1.9123 -2.4495
11949TIP3    H257263   6.612   6.062   2.914 -0.2997 -0.7455  0.0785
11950TIP3   OH257264   0.942   1.363   2.648 -0.0422 -0.2239 -0.3530
11950TIP3    H157265   0.966   1.360   2.741 -1.3197  0.2052  0.0056
11950TIP3    H257266   0.852   1.397   2.648  0.6500  1.6882 -1.8860
11951TIP3   OH257267   5.590   3.609  13.171  0.1400 -0.1051  0.3788
11951TIP3    H157268   5.518   3.667  13.197 -0.5837 -0.3878 -0.9545
11951TIP3    H257269   5.548   3.525  13.152  0.5504  0.1969 -2.0897
11952TIP3   OH257270   1.998   1.085  15.785  0.2926 -0.7550 -0.5165
11952TIP3    H157271   2.031   1.012  15.733 -0.0159 -1.9027  0.8626
11952TIP3    H257272   2.057   1.090  15.861 -1.0905 -1.1185  0.6081
11953TIP3   OH257273   3.320   3.644   0.018  0.1923 -0.4170  0.3988
11953TIP3    H157274   3.263   3.655   0.095  0.4950  0.1280  0.5439
11953TIP3    H257275   3.405   3.621   0.054 -0.0786 -1.8501  0.1547
11954TIP3   OH257276   2.301   3.253   1.389  0.1814  0.0364  0.0295
11954TIP3    H157277   2.236   3.296   1.333 -0.0201  0.6527  0.7225
11954TIP3    H257278   2.271   3.271   1.479  0.6207 -0.7483  0.3358
11955TIP3   OH257279   6.500   0.676   4.201  0.0906 -0.0363 -0.1157
11955TIP3    H157280   6.480   0.769   4.198  0.1829  0.0472  1.7195
11955TIP3    H257281   6.475   0.648   4.289  0.2211 -1.7095 -0.5872
11956TIP3   OH257282   6.579   2.968  14.868 -0.1027 -0.4564  0.4577
11956TIP3    H157283   6.641   2.934  14.933 -0.6592 -1.8562  0.2899
11956TIP3    H257284   6.618   2.945  14.784  0.1559  0.5058  0.3192
11957TIP3   OH257285   6.125   5.411   1.932 -0.5516 -0.2154  0.1019
11957TIP3    H157286   6.064   5.381   1.999 -0.8017  0.2590  0.0858
11957TIP3    H257287   6.076   5.404   1.850  0.2912 -2.3701 -0.2524
11958TIP3   OH257288   5.684   5.770  12.940  0.0914  0.2119 -0.2530
11958TIP3    H157289   5.653   5.685  12.910 -0.5967 -0.1931  1.5929
11958TIP3    H257290   5.755   5.751  13.001  1.4647  1.0478 -1.5200
11959TIP3   OH257291   5.740   3.770  16.728  0.3804 -0.3253  0.1208
11959TIP3    H157292   5.690   3.715  16.788  0.0777 -2.7269 -2.1949
11959TIP3    H257293   5.765   3.710  16.657  1.1538  2.2789 -1.8702
11960TIP3   OH257294   0.703   0.936  12.974  0.2028  0.1046  0.1776
11960TIP3    H157295   0.617   0.974  12.992 -0.4552 -1.4527  0.4391
11960TIP3    H257296   0.763   0.984  13.031 -0.8445 -0.3346  1.6795
11961TIP3   OH257297   0.025   0.370  14.252  0.1142  0.0481  0.3460
11961TIP3    H157298  -0.012   0.458  14.257 -1.7860 -0.5840 -1.8004
11961TIP3    H257299   0.119   0.384  14.240  0.1450  1.7342  2.3025
11962TIP3   OH257300   3.377   2.826  12.320 -0.7455 -0.0087  0.3998
11962TIP3    H157301   3.394   2.745  12.272 -0.7115 -0.0115  0.4160
11962TIP3    H257302   3.432   2.821  12.397  0.8750  0.9903 -0.6535
11963TIP3   OH257303   6.648   2.264   0.293 -0.4552  0.3789 -0.0760
11963TIP3    H157304   6.698   2.280   0.214  0.5927  1.4174  0.7767
11963TIP3    H257305   6.665   2.173   0.315  0.3418  0.4758 -0.2925
11964TIP3   OH257306   1.957   4.644   1.804  0.4393  0.0779  0.0770
11964TIP3    H157307   1.888   4.585   1.774 -0.6815  0.2971  2.1110
11964TIP3    H257308   2.033   4.587   1.817 -0.5176 -0.9012  1.6287
11965TIP3   OH257309   4.784   2.505   6.385  0.3760 -0.7798 -0.2126
11965TIP3    H157310   4.825   2.493   6.299 -2.1132 -0.1115 -1.5523
11965TIP3    H257311   4.763   2.416   6.413 -1.5300 -0.8532 -1.7344
11966TIP3   OH257312   1.428   1.760   1.164 -0.0895 -0.3413  0.8980
11966TIP3    H157313   1.469   1.844   1.185 -0.1720 -0.7952  2.9690
11966TIP3    H257314   1.491   1.716   1.107 -0.0931  1.1659 -0.2826
11967TIP3   OH257315   0.711   3.937   5.849  0.0456  0.1972 -0.4122
11967TIP3    H157316   0.738   3.954   5.939 -0.5220  1.9300 -0.5511
11967TIP3    H257317   0.632   3.882   5.858  1.0888 -1.2542  0.0815
11968TIP3   OH257318   0.672   2.662  11.803 -0.1051 -0.2234 -0.2298
11968TIP3    H157319   0.706   2.694  11.886 -2.8356  0.2681  0.7394
11968TIP3    H257320   0.621   2.584  11.826  0.7366 -1.2433 -1.7056
11969TIP3   OH257321   5.565   6.038  16.328 -0.6307 -0.2490  0.3309
11969TIP3    H157322   5.528   5.953  16.304  1.4091 -0.8997 -0.6499
11969TIP3    H257323   5.642   6.016  16.381 -0.4406  1.0131  0.5924
11970TIP3   OH257324   6.583   3.141   0.111 -0.3190  0.9321  0.4402
11970TIP3    H157325   6.498   3.098   0.126 -0.0173  0.6482  1.3202
11970TIP3    H257326   6.640   3.107   0.179  0.1795  2.0472  0.5919
11971TIP3   OH257327   2.305   5.731  11.209  0.6595  0.2198 -1.1114
11971TIP3    H157328   2.272   5.778  11.286 -0.1482 -0.7057 -0.8746
11971TIP3    H257329   2.278   5.640  11.224  1.1845 -0.1028 -2.1142
11972TIP3   OH257330   2.081   3.758  14.198  0.2667 -0.8243  0.3142
11972TIP3    H157331   2.111   3.829  14.255  0.4891 -1.9387  1.6279
11972TIP3    H257332   2.100   3.678  14.248 -1.8249 -1.7123 -0.2573
11973TIP3   OH257333   2.679   5.102   3.858 -0.3783 -0.7773 -0.2381
11973TIP3    H157334   2.705   5.194   3.868 -1.2401 -0.5611  0.1330
11973TIP3    H257335   2.686   5.066   3.946 -1.9044 -0.5481 -0.0078
11974TIP3   OH257336   0.580   1.203   5.628  0.1887  0.4774  0.0086
11974TIP3    H157337   0.584   1.118   5.584  0.6098  0.1357  0.7026
11974TIP3    H257338   0.491   1.234   5.610  0.4677  0.5002 -1.3648
11975TIP3   OH257339   5.261   0.274   3.626 -0.1119  0.1174 -0.1944
11975TIP3    H157340   5.186   0.227   3.662  1.1667 -0.5045  1.7626
11975TIP3    H257341   5.336   0.217   3.644  1.3051  2.3182  1.1163
11976TIP3   OH257342   1.822   2.516   3.962  0.3832  0.0156 -0.3161
11976TIP3    H157343   1.905   2.559   3.943  0.6401 -0.1920  0.3159
11976TIP3    H257344   1.774   2.580   4.015  0.6317 -0.3396  0.3446
11977TIP3   OH257345   4.956   3.458  13.587  0.2430  0.5254  0.7787
11977TIP3    H157346   4.964   3.512  13.665 -0.3741 -0.9054  1.8715
11977TIP3    H257347   4.891   3.392  13.610  1.0163 -0.7190 -0.4735
11978TIP3   OH257348   2.361   6.641  16.013  0.3616  0.5104  0.3297
11978TIP3    H157349   2.265   6.643  16.010  0.2085 -1.4599  2.3051
11978TIP3    H257350   2.384   6.704  16.080  0.3853  0.2161  0.6002
11979TIP3   OH257351   3.308   3.828   5.762  0.6292  0.5151 -0.0450
11979TIP3    H157352   3.365   3.752   5.753 -0.6567 -0.3692 -0.9115
11979TIP3    H257353   3.243   3.801   5.826  0.3249  0.9781 -0.1612
11980TIP3   OH257354   0.599   5.526   4.897 -0.0156 -0.1718 -0.5622
11980TIP3    H157355   0.600   5.540   4.991 -2.5058 -0.5882 -0.4162
11980TIP3    H257356   0.649   5.445   4.883  1.9421  0.8947  0.1733
11981TIP3   OH257357   1.524   0.895  16.473  0.0234  0.3970 -0.7163
11981TIP3    H157358   1.442   0.848  16.480 -0.3093  1.2049  1.0252
11981TIP3    H257359   1.589   0.837  16.514  0.1632  0.1667 -1.2565
11982TIP3   OH257360   6.078   0.501   6.316  0.9584 -0.0734 -0.1414
11982TIP3    H157361   6.043   0.566   6.255 -0.5628 -1.4381 -0.7645
11982TIP3    H257362   6.133   0.444   6.261 -1.1987 -1.8924 -0.4622
11983TIP3   OH257363   0.170   2.344   6.445 -0.5122 -0.5164  0.4892
11983TIP3    H157364   0.136   2.352   6.356 -1.4319  0.8918  0.9440
11983TIP3    H257365   0.102   2.295   6.492 -0.4310 -0.4976  0.6256
11984TIP3   OH257366   2.326   3.763   5.446  0.1804 -0.7437 -0.6994
11984TIP3    H157367   2.357   3.843   5.403  1.1654 -1.0261 -0.5139
11984TIP3    H257368   2.233   3.781   5.464 -0.4700 -0.9345 -3.6589
11985TIP3   OH257369   4.558   4.630  11.438 -0.4105  0.3816 -0.3510
11985TIP3    H157370   4.561   4.657  11.530 -0.4999  0.0910 -0.2607
11985TIP3    H257371   4.472   4.587  11.429  0.0913 -0.6645 -0.2600
11986TIP3   OH257372   2.025   2.029   0.977 -0.1420  0.2129 -0.1547
11986TIP3    H157373   2.094   2.016   0.913  0.1390 -2.5951  0.6184
11986TIP3    H257374   2.044   2.114   1.017  1.1849  0.7696 -1.9317
11987TIP3   OH257375   1.957   4.842   3.447 -0.6895 -0.0424 -0.0122
11987TIP3    H157376   2.005   4.763   3.470  0.6327  1.1622  1.4226
11987TIP3    H257377   1.874   4.835   3.495 -0.1926 -0.1048  0.8339
11988TIP3   OH257378   6.367   6.182   4.706  0.2510 -0.1340  0.3847
11988TIP3    H157379   6.387   6.147   4.793  1.4520  0.0027  0.1791
11988TIP3    H257380   6.336   6.271   4.721  1.7257  0.3589  0.5961
11989TIP3   OH257381   0.605   3.221   4.250 -0.2246  0.7313 -0.4411
11989TIP3    H157382   0.542   3.208   4.179  0.8071 -2.0279 -0.9045
11989TIP3    H257383   0.552   3.213   4.330 -0.7417 -0.0493 -0.8518
11990TIP3   OH257384   0.069   1.652   5.288  0.4528 -0.0515  0.0858
11990TIP3    H157385   0.090   1.745   5.275 -0.7153  0.1625 -0.3076
11990TIP3    H257386   0.042   1.647   5.380 -3.3746  0.7761 -0.9139
11991TIP3   OH257387   0.962   3.869  11.648 -0.0632 -0.2844  0.0461
11991TIP3    H157388   0.954   3.962  11.627  0.1523 -0.6148 -1.5749
11991TIP3    H257389   1.054   3.849  11.635 -0.4638 -1.1653 -1.6210
11992TIP3   OH257390   6.565   1.504   3.292  0.4864 -0.3420 -0.2931
11992TIP3    H157391   6.543   1.568   3.359  0.3137  1.1001 -1.7000
11992TIP3    H257392   6.660   1.494   3.298  0.3936 -0.6945  0.5858
11993TIP3   OH257393   6.053   6.193   0.253 -0.1131  0.2366  0.2792
11993TIP3    H157394   6.134   6.144   0.272 -0.6217 -0.6602  0.1648
11993TIP3    H257395   6.081   6.263   0.194  0.3651 -0.8728 -0.8474
11994TIP3   OH257396   5.206   3.891  14.767 -0.0126  0.1751  0.1288
11994TIP3    H157397   5.200   3.867  14.675 -0.2066  0.0008  0.1865
11994TIP3    H257398   5.146   3.831  14.812 -1.6262  1.7052  0.0953
11995TIP3   OH257399   1.166   5.093  13.972 -0.5786  0.1710 -0.5736
11995TIP3    H157400   1.076   5.085  13.939 -0.5727  0.2756 -0.6172
11995TIP3    H257401   1.203   5.166  13.922 -0.4594  0.1079 -0.5774
11996TIP3   OH257402   3.343   6.376  16.843  0.0553 -0.1672  0.1095
11996TIP3    H157403   3.411   6.313  16.819 -0.6752 -0.3376 -1.5573
11996TIP3    H257404   3.266   6.322  16.863  0.4546  0.0079  2.2830
11997TIP3   OH257405   3.784   4.898  14.169  0.0129 -0.2365 -0.1183
11997TIP3    H157406   3.734   4.966  14.125 -0.2340 -0.3504 -0.0141
11997TIP3    H257407   3.735   4.880  14.249  0.5292  0.0640  0.2695
11998TIP3   OH257408   3.755   2.273   3.295 -0.3122  0.2119 -0.0801
11998TIP3    H157409   3.769   2.184   3.263  0.8721  0.4490 -0.2620
11998TIP3    H257410   3.788   2.272   3.385 -0.3099  0.4531 -0.0768
11999TIP3   OH257411   0.631   4.538  13.359  0.0428 -0.1153  0.5601
11999TIP3    H157412   0.595   4.452  13.340 -1.3773 -0.1760  3.3183
11999TIP3    H257413   0.717   4.520  13.397  0.7006 -0.1760 -0.8890
12000TIP3   OH257414   4.361   4.570  17.062 -0.1531  0.0654  0.4416
12000TIP3    H157415   4.430   4.507  17.040 -1.5680 -0.4776 -2.7795
12000TIP3    H257416   4.280   4.521  17.050 -1.1717  1.3615  1.8720
12001TIP3   OH257417   5.837   4.810   1.704  0.5752  0.1904  0.4961
12001TIP3    H157418   5.791   4.889   1.678 -0.3941  0.1131  1.9097
12001TIP3    H257419   5.771   4.741   1.699  1.3281 -0.4722 -0.4161
12002TIP3   OH257420   1.319   4.757  14.140  0.4543 -0.4620  0.7699
12002TIP3    H157421   1.303   4.689  14.205 -0.5681  0.3406  1.3658
12002TIP3    H257422   1.250   4.821  14.155  0.1464 -0.3083 -1.1623
12003TIP3   OH257423   0.597   1.088  12.771 -0.5268  0.7608 -0.0448
12003TIP3    H157424   0.575   1.098  12.863 -1.1079 -2.1744  0.1592
12003TIP3    H257425   0.682   1.043  12.771  0.9921  3.5088 -0.9359
12004TIP3   OH257426   2.485   2.475   1.616 -0.1686 -0.3173 -0.6927
12004TIP3    H157427   2.404   2.457   1.664 -1.2837 -0.0969 -2.4496
12004TIP3    H257428   2.488   2.407   1.549  1.6136 -0.8980 -0.0370
12005TIP3   OH257429   1.582   0.466   3.875  0.4518  0.0454  0.2575
12005TIP3    H157430   1.591   0.539   3.937 -1.0337  1.5954 -1.2632
12005TIP3    H257431   1.612   0.389   3.923  0.9387  1.4770  2.3145
12006TIP3   OH257432   3.105   0.508  15.504  0.6025  0.2910  1.0394
12006TIP3    H157433   3.015   0.474  15.504  0.6296  0.2179  1.1853
12006TIP3    H257434   3.104   0.579  15.440  1.0851 -1.4010 -0.8968
12007TIP3   OH257435   0.158   4.139  16.159  0.0430 -0.1423 -0.3288
12007TIP3    H157436   0.169   4.232  16.140 -1.3509 -0.1879 -1.4780
12007TIP3    H257437   0.242   4.111  16.193  0.7185  1.3670 -0.7136
12008TIP3   OH257438   1.166   2.803   0.940  0.1714 -0.6345 -0.1032
12008TIP3    H157439   1.205   2.809   0.853  1.3717  2.5937  0.5682
12008TIP3    H257440   1.223   2.857   0.995 -0.7919 -2.2796  2.6219
12009TIP3   OH257441   1.895   2.680  12.923  0.1423  0.0867  0.0774
12009TIP3    H157442   1.853   2.710  12.842 -0.4435 -0.4819  0.1747
12009TIP3    H257443   1.887   2.585  12.921 -0.3015  0.1000  1.0427
12010TIP3   OH257444   5.970   1.858  16.721 -0.8598 -0.4767  0.6549
12010TIP3    H157445   6.047   1.858  16.778 -0.4317 -0.8167  0.0788
12010TIP3    H257446   6.005   1.873  16.634 -1.2552 -2.4297  0.1307
12011TIP3   OH257447   1.993   5.846  10.700 -0.2430  0.2503 -0.1487
12011TIP3    H157448   2.073   5.862  10.751 -0.8401  1.0907  0.5445
12011TIP3    H257449   1.989   5.919  10.638 -1.8172  1.6468  1.5506
12012TIP3   OH257450   3.716   6.512  13.285 -0.2952  0.2380  0.1746
12012TIP3    H157451   3.656   6.582  13.309  1.5504  2.0186 -0.2176
12012TIP3    H257452   3.660   6.438  13.265 -2.3484  1.7950 -0.0204
12013TIP3   OH257453   5.673   6.663  15.634 -1.0396 -0.4226  0.4125
12013TIP3    H157454   5.640   6.648  15.545 -1.6273  0.3177  0.4985
12013TIP3    H257455   5.630   6.596  15.687  0.0928 -1.5140 -0.0265
12014TIP3   OH257456   1.378   6.203   0.929 -0.0215 -0.1112  0.2336
12014TIP3    H157457   1.460   6.242   0.898 -0.3520  0.2319 -0.2252
12014TIP3    H257458   1.376   6.116   0.889 -0.1623  0.1043 -0.2296
12015TIP3   OH257459   5.051   2.863   5.683 -0.2451  0.4729 -0.1593
12015TIP3    H157460   5.062   2.785   5.737  0.5243  0.8237  0.1943
12015TIP3    H257461   4.970   2.848   5.635 -1.9060  0.9284  2.3952
12016TIP3   OH257462   2.348   0.243  11.233  0.3807 -0.7003  0.0619
12016TIP3    H157463   2.326   0.328  11.271  1.0801 -0.8041  0.7224
12016TIP3    H257464   2.275   0.186  11.256 -0.3798 -0.1316 -0.8990
12017TIP3   OH257465   0.435   1.556  12.170  0.7512 -0.3274  0.0687
12017TIP3    H157466   0.520   1.515  12.185  0.4483 -1.9869 -2.4877
12017TIP3    H257467   0.443   1.644  12.208  3.6521 -0.3957 -0.3084
12018TIP3   OH257468   1.766   2.322  12.330  0.1291  0.0699 -0.0492
12018TIP3    H157469   1.741   2.338  12.239 -0.5337  0.0088  0.1225
12018TIP3    H257470   1.826   2.248  12.325 -0.6835 -0.5827 -0.3428
12019TIP3   OH257471   4.901   6.285   4.216 -0.1602  0.8898  0.8449
12019TIP3    H157472   4.810   6.268   4.240 -0.2539  0.7273  0.3785
12019TIP3    H257473   4.929   6.355   4.274 -0.5877  0.9444  0.9802
12020TIP3   OH257474   3.167   4.942   5.580 -0.0975  0.0469  0.5848
12020TIP3    H157475   3.255   4.923   5.613 -0.3444 -0.3327  1.0344
12020TIP3    H257476   3.169   4.913   5.488 -0.0259 -0.8172  0.8512
12021TIP3   OH257477   3.595   6.562   2.999 -0.2381 -0.1041  0.2844
12021TIP3    H157478   3.500   6.558   3.001 -0.2691  0.3416 -0.3017
12021TIP3    H257479   3.618   6.628   3.065 -0.4045  0.7906 -0.5383
12022TIP3   OH257480   1.530   3.655  12.544 -0.7339  0.2469 -0.1109
12022TIP3    H157481   1.522   3.611  12.459 -1.7720  0.7424 -0.2893
12022TIP3    H257482   1.465   3.726  12.539 -0.8516  0.2263  1.1279
12023TIP3   OH257483   0.513   4.925  16.821 -0.1823  0.1787  0.0701
12023TIP3    H157484   0.545   4.847  16.775  0.1303  0.1569  0.3182
12023TIP3    H257485   0.470   4.891  16.900 -2.1090  0.1254 -0.9828
12024TIP3   OH257486   4.098   6.402   0.051 -0.4655  0.1176  0.0263
12024TIP3    H157487   4.023   6.401  -0.010 -0.7430  1.2896  0.3340
12024TIP3    H257488   4.094   6.488   0.092 -0.6743 -0.9055  2.2185
12025TIP3   OH257489   1.852   3.795  14.039  0.0601 -0.0765  0.2558
12025TIP3    H157490   1.912   3.773  14.111  0.3872 -0.4542 -0.1341
12025TIP3    H257491   1.843   3.714  13.989 -1.7921 -0.3746  1.0314
12026TIP3   OH257492   5.991   2.847   1.057  0.1391  0.2471  0.2288
12026TIP3    H157493   6.000   2.756   1.029  1.8439  0.3282  0.4758
12026TIP3    H257494   6.064   2.861   1.117  0.6571  2.1272 -0.7911
12027TIP3   OH257495   1.583   1.112  13.990 -0.4018 -0.1577 -0.2145
12027TIP3    H157496   1.593   1.040  14.051  1.3774  1.2349  1.2185
12027TIP3    H257497   1.489   1.131  13.989 -0.6694 -1.4155  0.6500
12028TIP3   OH257498   4.801   5.421   6.126 -0.4356 -0.3378 -0.8554
12028TIP3    H157499   4.834   5.508   6.148 -0.2489 -0.8349  0.9078
12028TIP3    H257500   4.835   5.364   6.195 -1.9581 -1.5136 -1.0374
12029TIP3   OH257501   1.624   6.538   6.516  0.1684  0.2751  0.2007
12029TIP3    H157502   1.616   6.611   6.454 -0.6208 -0.8577 -1.0628
12029TIP3    H257503   1.718   6.531   6.532  0.8014 -1.6215 -3.6498
12030TIP3   OH257504   0.734   6.066  10.284 -0.6978 -0.5332  0.6036
12030TIP3    H157505   0.702   6.141  10.234  1.0313  0.3206  0.7443
12030TIP3    H257506   0.669   5.997  10.269 -1.8264  0.7067 -0.2565
12031TIP3   OH257507   1.611   3.030  14.939 -0.6323  0.2251 -0.2405
12031TIP3    H157508   1.611   3.026  14.843  0.7686  1.5711 -0.3064
12031TIP3    H257509   1.686   2.977  14.965 -1.3741 -0.6399  0.1386
12032TIP3   OH257510   3.440   0.807  11.265 -0.1568 -0.6282 -0.1665
12032TIP3    H157511   3.399   0.721  11.255  0.3597 -1.0409  1.1081
12032TIP3    H257512   3.516   0.791  11.321 -1.2233  0.9915  1.8370
12033TIP3   OH257513   4.110   3.335  14.306  0.0510  0.5864 -0.1191
12033TIP3    H157514   4.120   3.263  14.369  0.8753  0.7515 -0.0509
12033TIP3    H257515   4.199   3.365  14.290  0.0399 -0.6008 -2.7066
12034TIP3   OH257516   0.838   2.840   4.077 -0.2783  0.1277  0.3227
12034TIP3    H157517   0.929   2.839   4.046 -0.6783  1.0923 -0.9273
12034TIP3    H257518   0.826   2.928   4.112 -1.1511  0.4789 -0.8319
12035TIP3   OH257519   6.666   3.254   1.852 -0.6004 -0.1026 -0.1490
12035TIP3    H157520   6.704   3.268   1.765 -1.3000 -1.4521 -0.7121
12035TIP3    H257521   6.571   3.251   1.835 -0.6236 -2.7976  0.2526
12036TIP3   OH257522   5.999   0.589  12.485  0.5970 -0.4122  0.5617
12036TIP3    H157523   5.933   0.596  12.554  0.7921 -1.4552  0.8684
12036TIP3    H257524   6.014   0.494  12.476  0.3772 -0.2948 -1.0966
12037TIP3   OH257525   5.787   6.737  12.574 -0.1651  0.4425 -0.4183
12037TIP3    H157526   5.756   6.735  12.664 -0.7555 -2.0940 -0.6522
12037TIP3    H257527   5.762   6.652  12.537  0.4043  1.2798 -2.8601
12038TIP3   OH257528   5.895   6.172   5.207  0.2586  0.2036 -0.2208
12038TIP3    H157529   5.852   6.174   5.292  0.3034  0.8619 -0.2157
12038TIP3    H257530   5.879   6.083   5.175 -0.8773  0.3534 -0.1061
12039TIP3   OH257531   0.823   2.181   5.222 -0.1650  0.5258  0.1602
12039TIP3    H157532   0.838   2.192   5.316 -1.8905 -0.9553  0.6628
12039TIP3    H257533   0.902   2.139   5.189 -0.1656 -0.3766  1.2761
12040TIP3   OH257534   1.328   2.034   1.871 -0.6335  0.3585 -0.4903
12040TIP3    H157535   1.294   2.092   1.940  1.4707  0.9869  0.0605
12040TIP3    H257536   1.377   2.092   1.814  1.3076 -0.8276 -0.0622
12041TIP3   OH257537   6.471   5.972  15.857  0.2501 -0.8239  0.3188
12041TIP3    H157538   6.414   5.936  15.924 -0.2470 -0.2846  0.1976
12041TIP3    H257539   6.545   6.008  15.905 -1.4934  2.1990  0.8740
12042TIP3   OH257540   4.571   1.737  16.589 -0.1124 -0.1856 -0.0312
12042TIP3    H157541   4.484   1.765  16.618  0.5215  0.9976  0.8016
12042TIP3    H257542   4.564   1.643  16.577 -1.4153 -0.1450  0.3589
12043TIP3   OH257543   5.116   5.662   2.472  0.1222  0.4523  0.4588
12043TIP3    H157544   5.123   5.670   2.377 -1.2327  0.5385  0.3564
12043TIP3    H257545   5.024   5.642   2.487  0.6959 -1.4375  1.6229
12044TIP3   OH257546   3.459   3.613  12.361  0.3558  0.3652 -0.6079
12044TIP3    H157547   3.424   3.696  12.331  0.8880  0.4684 -0.9504
12044TIP3    H257548   3.382   3.560  12.382  0.0168  0.9098 -0.4777
12045TIP3   OH257549   1.727   2.399   0.168 -0.4395 -0.7341 -0.5631
12045TIP3    H157550   1.688   2.486   0.159  3.7297  1.6454  2.7884
12045TIP3    H257551   1.760   2.379   0.080 -0.8564  1.4084 -1.2398
12046TIP3   OH257552   4.465   3.552  12.553 -0.6444 -0.3282  0.3032
12046TIP3    H157553   4.474   3.601  12.635 -0.6463  0.2060 -0.0130
12046TIP3    H257554   4.444   3.619  12.488 -0.2815 -0.7094 -0.2014
12047TIP3   OH257555   4.864   5.877  11.898  0.6213 -0.7969 -0.5482
12047TIP3    H157556   4.915   5.857  11.977 -0.5599  0.2938  0.5137
12047TIP3    H257557   4.869   5.797  11.846  2.5438 -1.0625  0.0050
12048TIP3   OH257558   4.823   1.098  17.211  0.5808  0.2605  0.1965
12048TIP3    H157559   4.829   1.066  17.301 -1.6333 -0.8694 -0.0154
12048TIP3    H257560   4.787   1.024  17.162  2.5115  0.5981 -1.8046
12049TIP3   OH257561   4.878   3.510  12.491  0.2573  0.8118 -0.0115
12049TIP3    H157562   4.844   3.560  12.417 -0.6174 -0.6847 -0.6388
12049TIP3    H257563   4.901   3.576  12.556 -2.5273  1.9506 -0.1230
12050TIP3   OH257564   0.316   1.492   3.198 -0.4837  0.1814  0.4277
12050TIP3    H157565   0.350   1.535   3.120 -1.4596 -1.4636 -0.9301
12050TIP3    H257566   0.358   1.538   3.271  2.5287 -0.0695 -1.1077
12051TIP3   OH257567   0.455   3.996  12.778 -0.0255  0.5094  0.3512
12051TIP3    H157568   0.386   4.044  12.732 -0.3676  0.4715  0.8121
12051TIP3    H257569   0.425   3.905  12.778  1.6860 -0.0934 -2.4551
12052TIP3   OH257570   2.161   4.868   5.400  0.3819 -0.2832  0.3624
12052TIP3    H157571   2.180   4.865   5.494 -0.9242  1.0567  0.6840
12052TIP3    H257572   2.205   4.947   5.369  1.5457 -1.1849 -0.3491
12053TIP3   OH257573   0.261   6.624   4.871 -0.1027  0.3268 -0.1308
12053TIP3    H157574   0.201   6.574   4.927  0.9690  0.3648  1.0724
12053TIP3    H257575   0.271   6.571   4.792  0.5006 -1.0441  0.8540
12054TIP3   OH257576   1.813   1.296  14.018  0.3849 -0.5238  0.3080
12054TIP3    H157577   1.733   1.243  14.014  0.8937 -1.2847 -0.0122
12054TIP3    H257578   1.847   1.295  13.929  0.1283  0.7850  0.1877
12055TIP3   OH257579   0.602   0.399  16.866  0.6004 -0.1990  0.6334
12055TIP3    H157580   0.532   0.426  16.806  0.2528 -1.6610  0.3535
12055TIP3    H257581   0.578   0.439  16.950  0.1660  0.4547  0.1995
12056TIP3   OH257582   3.441   5.274  15.398  0.1964  0.0572  0.1699
12056TIP3    H157583   3.478   5.246  15.314  1.5608  0.7200  0.5475
12056TIP3    H257584   3.498   5.233  15.464 -1.6451 -1.5526  0.8010
12057TIP3   OH257585   3.467   1.290  16.770 -0.2228  0.1432  0.1448
12057TIP3    H157586   3.467   1.229  16.844 -0.2449  0.0280  0.0514
12057TIP3    H257587   3.440   1.237  16.695 -1.2671  0.4942  0.2570
12058TIP3   OH257588   3.833   2.356  15.411  0.3426  0.1665  0.4604
12058TIP3    H157589   3.853   2.262  15.416 -1.7682 -0.4437 -1.8098
12058TIP3    H257590   3.894   2.390  15.346 -0.1675  0.0066 -0.0991
12059TIP3   OH257591   0.135   5.736  17.212 -0.0038 -0.4500  0.6502
12059TIP3    H157592   0.064   5.787  17.252 -0.2908  0.2638 -0.7191
12059TIP3    H257593   0.165   5.677  17.281 -1.1671  0.0420  1.5872
12060TIP3   OH257594   3.446   2.641   5.234  0.7148  0.2341 -0.6873
12060TIP3    H157595   3.468   2.629   5.327  1.8674  0.5765 -0.9128
12060TIP3    H257596   3.527   2.669   5.193  0.0850  0.5987 -1.7167
12061TIP3   OH257597   4.466   3.239  16.960 -0.0208 -0.3565  0.2688
12061TIP3    H157598   4.400   3.303  16.932  0.3333  0.1393  0.5590
12061TIP3    H257599   4.478   3.183  16.883  3.2376  2.8940 -1.7772
12062TIP3   OH257600   2.096   6.715   3.361  0.0945 -0.5876 -0.2713
12062TIP3    H157601   2.057   6.746   3.442 -0.7155 -0.3907 -0.7349
12062TIP3    H257602   2.169   6.660   3.389  1.7599  1.9435  0.5622
12063TIP3   OH257603   0.047   0.112   3.376  0.5809  0.0339  0.1594
12063TIP3    H157604  -0.029   0.070   3.417 -0.2193 -0.1191 -1.4641
12063TIP3    H257605   0.009   0.182   3.322  1.6811  0.7230  0.2761
12064TIP3   OH257606   4.403   3.282   3.667  0.1883  0.2983  0.0846
12064TIP3    H157607   4.327   3.230   3.640 -0.6763 -0.2087  3.2534
12064TIP3    H257608   4.474   3.218   3.671  0.1218  0.2078 -0.1415
12065TIP3   OH257609   2.372   4.095   6.550  0.2307 -0.8268  0.3432
12065TIP3    H157610   2.378   4.041   6.471  0.7432 -0.7033  0.2932
12065TIP3    H257611   2.448   4.153   6.545 -0.8133  0.5441 -0.0946
12066TIP3   OH257612   2.454   1.290   4.989  0.3607 -0.1600  0.4480
12066TIP3    H157613   2.448   1.385   4.979 -0.4289 -0.1124  1.2644
12066TIP3    H257614   2.413   1.272   5.074 -1.1985 -1.4200 -0.5348
12067TIP3   OH257615   0.492   3.575   2.729 -0.4291 -0.2607 -0.0746
12067TIP3    H157616   0.483   3.659   2.684  1.9601  0.4836  0.7593
12067TIP3    H257617   0.479   3.595   2.822  0.6551 -0.6981  0.1864
12068TIP3   OH257618   1.319   3.231   1.534  0.1109  0.5382  0.0006
12068TIP3    H157619   1.383   3.270   1.592 -0.1481 -1.6469  1.8175
12068TIP3    H257620   1.273   3.167   1.588 -0.9263 -0.7343 -2.2963
12069TIP3   OH257621   0.477   4.277   2.075 -0.3627 -0.1512 -1.0629
12069TIP3    H157622   0.468   4.183   2.090 -0.0714  0.2271  1.7389
12069TIP3    H257623   0.560   4.300   2.116 -0.7658  1.4668 -1.1251
12070TIP3   OH257624   6.644   0.757  13.969  0.2183 -0.2412 -0.0810
12070TIP3    H157625   6.662   0.736  13.877 -2.4316 -2.1742 -0.2243
12070TIP3    H257626   6.625   0.672  14.010 -0.5434  0.8046  1.7970
12071TIP3   OH257627   0.812   1.798  12.286 -0.4206 -0.0572  0.3488
12071TIP3    H157628   0.789   1.796  12.379 -0.4271  1.3819  0.3863
12071TIP3    H257629   0.905   1.822  12.284  0.1159 -2.1088  0.0538
12072TIP3   OH257630   3.143   4.513   1.798 -0.2275  0.1984  0.2245
12072TIP3    H157631   3.103   4.540   1.716 -2.0270  1.1984  1.3937
12072TIP3    H257632   3.237   4.517   1.781 -0.5730  0.8985 -1.6155
12073TIP3   OH257633   6.529   0.551   1.530  0.9709  0.1219 -0.1084
12073TIP3    H157634   6.562   0.527   1.444 -1.4492 -1.4249 -0.6458
12073TIP3    H257635   6.579   0.497   1.591  0.5954 -1.0172 -0.7894
12074TIP3   OH257636   1.100   3.374   3.106 -0.0749  0.2721  0.6019
12074TIP3    H157637   1.038   3.441   3.136 -0.2154  0.8599 -0.9437
12074TIP3    H257638   1.045   3.299   3.082 -0.1889  0.7385 -0.6238
12075TIP3   OH257639   4.527   6.361  11.527 -0.8024  0.4384 -0.1908
12075TIP3    H157640   4.561   6.411  11.453  1.0666 -2.2373 -1.1967
12075TIP3    H257641   4.452   6.313  11.490 -0.2794 -0.3841 -0.1842
12076TIP3   OH257642   4.145   2.444   5.174 -0.2049  0.0896 -0.4863
12076TIP3    H157643   4.118   2.393   5.251 -2.3039  0.2826 -1.0649
12076TIP3    H257644   4.199   2.514   5.209 -1.9205  0.7304  0.9512
12077TIP3   OH257645   5.294   4.147  14.653  0.1465 -0.3319 -0.0899
12077TIP3    H157646   5.283   4.063  14.699 -1.6077  0.4090  0.9269
12077TIP3    H257647   5.285   4.126  14.561  0.0168 -1.3106  0.1436
12078TIP3   OH257648   6.330   5.040   0.616  0.0936  0.4619 -0.9907
12078TIP3    H157649   6.366   4.970   0.561  1.0533 -0.9582  1.3583
12078TIP3    H257650   6.236   5.023   0.618  0.3662 -1.0520 -0.1101
12079TIP3   OH257651   0.750   4.714   2.421 -0.4499  0.2825  0.4098
12079TIP3    H157652   0.721   4.644   2.362  0.6314  1.0815 -1.1008
12079TIP3    H257653   0.772   4.669   2.502 -1.3885 -0.9193  0.0178
12080TIP3   OH257654   2.584   1.266   6.258  0.3490 -0.1349 -0.2177
12080TIP3    H157655   2.490   1.263   6.273 -0.0344  2.7443 -1.7082
12080TIP3    H257656   2.613   1.349   6.296  2.0131 -0.2461 -1.1588
12081TIP3   OH257657   4.249   1.683  14.662 -0.2950 -0.4319  0.0626
12081TIP3    H157658   4.232   1.634  14.582  1.1049 -1.2252  0.2298
12081TIP3    H257659   4.270   1.771  14.632  1.2901 -0.9966 -0.5405
12082TIP3   OH257660   5.141   0.938  13.490  0.2494  0.3047 -0.0060
12082TIP3    H157661   5.077   0.891  13.437  0.5994 -1.4603  1.0764
12082TIP3    H257662   5.099   1.021  13.511 -0.8814 -0.0185 -0.9663
12083TIP3   OH257663   0.172   5.930   4.002 -0.1785 -0.0481 -0.4339
12083TIP3    H157664   0.186   5.941   3.908  1.9801  0.8860 -0.0347
12083TIP3    H257665   0.133   6.013   4.030 -0.7391 -0.2925 -0.4978
12084TIP3   OH257666   2.304   0.750   5.975  0.5790 -0.4074 -0.9043
12084TIP3    H157667   2.305   0.654   5.978 -0.9646 -0.3992  0.9874
12084TIP3    H257668   2.307   0.777   6.067 -2.2464  1.2790 -1.2379
12085TIP3   OH257669   2.486   0.433   5.634  0.2712  1.0007  1.2403
12085TIP3    H157670   2.404   0.461   5.674 -0.1820  0.5958  0.6053
12085TIP3    H257671   2.473   0.445   5.540  0.6999  0.3268  1.0866
12086TIP3   OH257672   5.171   5.465  11.598 -0.0239  0.1782  0.0787
12086TIP3    H157673   5.106   5.398  11.616 -0.2542  0.4396  0.2303
12086TIP3    H257674   5.119   5.544  11.578  0.2339  0.0870 -0.9730
12087TIP3   OH257675   1.049   5.360   3.244  0.7037 -0.7428  0.5519
12087TIP3    H157676   1.032   5.381   3.152 -1.0364  1.3879  1.3251
12087TIP3    H257677   0.981   5.297   3.267 -0.3658  0.5447  1.0060
12088TIP3   OH257678   4.771   0.459  17.140 -0.1178  0.2267 -0.0270
12088TIP3    H157679   4.681   0.493  17.144 -0.1470  0.4136 -2.1728
12088TIP3    H257680   4.761   0.367  17.116  0.2899  0.4012 -0.8769
12089TIP3   OH257681   3.085   5.683  10.886 -0.7279  0.1354 -0.1392
12089TIP3    H157682   2.993   5.705  10.899 -0.6293 -0.4872  1.6924
12089TIP3    H257683   3.089   5.588  10.892  0.1701  0.2148  0.6725
12090TIP3   OH257684   3.126   6.725   6.036  0.5720 -0.1462  0.3622
12090TIP3    H157685   3.135   6.653   5.974 -1.7798  0.2091 -0.4235
12090TIP3    H257686   3.147   6.686   6.121 -0.7352 -1.7976 -0.0433
12091TIP3   OH257687   6.452   3.366   0.363 -0.4442 -0.0229  0.1331
12091TIP3    H157688   6.370   3.319   0.374  0.1489 -1.3585 -1.0861
12091TIP3    H257689   6.445   3.406   0.276 -0.5231  1.3123  0.7421
12092TIP3   OH257690   1.421   5.038  16.956 -0.2025  0.2247 -0.0674
12092TIP3    H157691   1.514   5.016  16.948  0.2907  1.8316  0.9926
12092TIP3    H257692   1.412   5.073  17.045 -1.6796  0.7662 -0.4120
12093TIP3   OH257693   0.403   3.524   4.092  0.1412 -0.7279 -0.2629
12093TIP3    H157694   0.438   3.449   4.043  1.5032 -0.3822  0.1443
12093TIP3    H257695   0.477   3.554   4.145 -1.9574 -2.6518  3.9835
12094TIP3   OH257696   1.379   2.013  12.227 -0.3481  0.4153 -1.1502
12094TIP3    H157697   1.439   2.011  12.153 -0.3127 -1.3790 -1.1029
12094TIP3    H257698   1.434   2.033  12.302  0.0339 -0.2801 -1.2456
12095TIP3   OH257699   6.781   1.266   1.330 -0.0244 -0.5751  0.2769
12095TIP3    H157700   6.815   1.255   1.242  0.1232  0.1690  0.2328
12095TIP3    H257701   6.858   1.284   1.384 -0.0293 -1.7513  0.6932
12096TIP3   OH257702   1.551   4.409  13.155  0.1244 -0.3210 -0.3855
12096TIP3    H157703   1.468   4.364  13.164 -0.5256  1.0688  0.8348
12096TIP3    H257704   1.617   4.344  13.180 -0.7972 -0.5710  1.5004
12097TIP3   OH257705   5.554   6.408  15.152 -0.6320  0.0596  0.2986
12097TIP3    H157706   5.488   6.356  15.106 -0.8486  0.4639  0.1445
12097TIP3    H257707   5.637   6.366  15.133 -0.7582  0.0392 -0.1957
12098TIP3   OH257708   6.368   1.993   3.672 -0.2968 -0.4506  0.0638
12098TIP3    H157709   6.407   1.973   3.757  0.0342 -1.3367 -0.2905
12098TIP3    H257710   6.417   2.069   3.640 -1.2726  0.6873  1.2302
12099TIP3   OH257711   6.480   4.652   6.466 -0.8412 -0.0362  0.6910
12099TIP3    H157712   6.530   4.582   6.425 -1.0127  0.3678 -0.2178
12099TIP3    H257713   6.546   4.718   6.488 -0.8372  0.0392  0.4543
12100TIP3   OH257714   2.840   0.248   5.142 -0.3949 -0.3443 -0.2663
12100TIP3    H157715   2.783   0.324   5.152  1.1456  0.7437  0.2418
12100TIP3    H257716   2.885   0.261   5.059  0.8535 -0.0455  0.4536
12101TIP3   OH257717   3.352   4.862   1.705 -0.0807  0.3178 -0.1667
12101TIP3    H157718   3.390   4.801   1.768 -0.2650 -2.7400 -2.8377
12101TIP3    H257719   3.425   4.889   1.649 -0.9206 -2.1160 -2.5758
12102TIP3   OH257720   3.009   0.255   5.660  0.4507  0.3009 -0.6982
12102TIP3    H157721   2.984   0.194   5.729  1.0097 -0.3726 -1.0951
12102TIP3    H257722   2.958   0.228   5.584  1.8586 -0.6595 -1.3215
12103TIP3   OH257723   3.153   4.221   1.632  0.1206 -0.3433  0.0828
12103TIP3    H157724   3.164   4.300   1.578 -1.0995  0.0995  0.4636
12103TIP3    H257725   3.212   4.235   1.706 -2.2927  1.6563  1.7235
12104TIP3   OH257726   5.327   4.655   3.139 -0.6625  0.4694 -0.4176
12104TIP3    H157727   5.341   4.640   3.233  1.7217 -3.9062 -1.3194
12104TIP3    H257728   5.383   4.729   3.118  0.6187  0.0068  1.2194
12105TIP3   OH257729   0.099   1.658   5.823  0.2655  0.6140 -0.2182
12105TIP3    H157730   0.089   1.672   5.918 -0.0638 -2.2936  0.2172
12105TIP3    H257731   0.110   1.563   5.814 -2.4173  0.5100 -3.3249
12106TIP3   OH257732   4.782   5.462   3.359 -0.1115  0.2102 -0.1636
12106TIP3    H157733   4.756   5.523   3.290 -0.7094  0.4992  0.3172
12106TIP3    H257734   4.701   5.416   3.382  0.1882 -0.2483 -0.0081
12107TIP3   OH257735   2.652   0.025  16.859 -0.0902  0.2358  0.1548
12107TIP3    H157736   2.640  -0.041  16.927 -0.1581  0.2306  0.1378
12107TIP3    H257737   2.743   0.052  16.868 -0.0332  0.0641  0.0926
12108TIP3   OH257738   3.086   4.690   0.692 -0.3450 -0.1108  0.1078
12108TIP3    H157739   3.160   4.678   0.751 -0.3644  0.9055  0.3494
12108TIP3    H257740   3.123   4.681   0.604  0.1093  0.5979  0.2229
12109TIP3   OH257741   6.598   3.122  15.147 -0.3078  1.0781  1.0196
12109TIP3    H157742   6.618   3.078  15.229 -0.0673 -2.6048 -0.9346
12109TIP3    H257743   6.674   3.178  15.130  0.7888 -0.1243  1.9959
12110TIP3   OH257744   6.543   1.275   2.496  0.0187  0.1603  0.0021
12110TIP3    H157745   6.461   1.321   2.480 -0.4131 -1.1844 -1.8171
12110TIP3    H257746   6.579   1.260   2.409  1.1782 -1.1017  0.6810
12111TIP3   OH257747   4.360   5.006   2.280  0.0971  0.3990 -0.0017
12111TIP3    H157748   4.315   5.090   2.276  3.0387  2.0336 -0.3250
12111TIP3    H257749   4.439   5.023   2.331  0.7527 -2.1675 -0.0711
12112TIP3   OH257750   0.560   1.862   5.609 -0.3672  0.6053  0.1992
12112TIP3    H157751   0.629   1.800   5.583  0.7156  1.8790 -0.0058
12112TIP3    H257752   0.584   1.889   5.698 -0.8161  0.7671  0.2733
12113TIP3   OH257753   5.242   0.775  11.660 -0.2590  0.2156 -0.1550
12113TIP3    H157754   5.332   0.791  11.688 -0.0326 -0.8843 -0.2378
12113TIP3    H257755   5.243   0.791  11.565 -0.0305 -0.2896 -0.2392
12114TIP3   OH257756   3.079   2.667   1.460  0.7244 -0.6526  0.0645
12114TIP3    H157757   3.169   2.675   1.428  0.8525 -2.0196  0.0344
12114TIP3    H257758   3.029   2.729   1.408  1.2538 -1.5290 -1.5339
12115TIP3   OH257759   4.252   1.282  14.944  0.1286 -0.0842  0.9975
12115TIP3    H157760   4.240   1.229  15.023 -1.7766  1.0307  1.5002
12115TIP3    H257761   4.237   1.372  14.973  0.1531  0.4133 -0.4757
12116TIP3   OH257762   6.774   2.477  15.067 -0.4522  0.1962 -0.2071
12116TIP3    H157763   6.777   2.472  15.162 -1.5407  2.4595 -0.0032
12116TIP3    H257764   6.779   2.387  15.037  0.7058 -0.4845  1.9662
12117TIP3   OH257765   0.823   5.076  12.015 -0.1468  0.0509  0.2193
12117TIP3    H157766   0.763   5.144  12.045  1.3556  0.5918  2.1058
12117TIP3    H257767   0.770   4.996  12.016 -1.1703  0.7172  0.7047
12118TIP3   OH257768   0.433   2.322   6.481 -0.7753 -0.4857 -0.1315
12118TIP3    H157769   0.474   2.406   6.503 -1.0583 -0.3597 -0.0813
12118TIP3    H257770   0.340   2.337   6.495 -0.7490 -1.0374  0.5976
12119TIP3   OH257771   6.547   1.193   2.234  0.6952 -0.3330 -0.0783
12119TIP3    H157772   6.505   1.189   2.148  2.4885  0.1540 -0.9850
12119TIP3    H257773   6.639   1.174   2.217  0.8089 -1.6515  1.9394
12120TIP3   OH257774   4.865   5.097   5.598  0.6868  0.3479 -0.3022
12120TIP3    H157775   4.792   5.140   5.642 -0.9661 -0.0845 -2.5356
12120TIP3    H257776   4.900   5.036   5.663 -2.6563 -1.3772 -0.0231
12121TIP3   OH257777   3.336   0.148  16.829 -0.2144  0.6432  0.0408
12121TIP3    H157778   3.373   0.160  16.916  0.6594  0.6427 -0.3285
12121TIP3    H257779   3.403   0.098  16.781  0.5173  2.9640 -1.4489
12122TIP3   OH257780   6.130   2.055   0.215 -0.0841 -0.2525 -0.3097
12122TIP3    H157781   6.166   1.970   0.187 -3.1903 -1.7258  0.0242
12122TIP3    H257782   6.116   2.103   0.133  0.9321 -0.3502 -0.5507
12123TIP3   OH257783   0.984   5.532   3.796 -0.2786 -0.0246 -0.2398
12123TIP3    H157784   0.995   5.499   3.707  2.9176  1.5655 -0.5043
12123TIP3    H257785   1.059   5.498   3.844 -0.9695  0.6609  1.3811
12124TIP3   OH257786   4.996   2.207   6.699 -0.0981 -0.1787  0.0617
12124TIP3    H157787   5.068   2.210   6.762  2.1599 -2.4050 -2.2700
12124TIP3    H257788   4.978   2.298   6.678  0.1363  0.5232  2.7399
12125TIP3   OH257789   0.505   4.082   4.836  0.1721  0.2680 -0.3607
12125TIP3    H157790   0.600   4.073   4.829  0.1614  0.4702 -0.7930
12125TIP3    H257791   0.485   4.055   4.925  0.7025  0.7411 -0.0894
12126TIP3   OH257792   3.714   3.510  12.018  0.0038 -0.3843 -0.1634
12126TIP3    H157793   3.638   3.529  11.963  0.4696 -0.6020 -0.8963
12126TIP3    H257794   3.776   3.466  11.959  1.7724  2.1516 -0.2588
12127TIP3   OH257795   0.118   3.833   2.011 -0.7893  0.0929 -0.0430
12127TIP3    H157796   0.148   3.907   2.064  0.3724  1.5099 -2.6261
12127TIP3    H257797   0.025   3.823   2.035 -0.3343  0.7523  2.1376
12128TIP3   OH257798   5.982   1.643  11.852  0.1433  0.1329  0.2259
12128TIP3    H157799   5.926   1.585  11.800  0.2065  1.8772 -1.8379
12128TIP3    H257800   5.972   1.611  11.942 -2.4458 -0.9640 -0.4005
12129TIP3   OH257801   3.679   5.376   0.518 -0.1774 -0.1469 -0.1505
12129TIP3    H157802   3.685   5.449   0.456 -0.9559 -1.2000 -1.4940
12129TIP3    H257803   3.621   5.313   0.475  1.4229 -2.0817  0.4599
12130TIP3   OH257804   3.747   2.295  13.604 -0.4938 -0.8349 -0.0824
12130TIP3    H157805   3.772   2.375  13.558  1.6646 -1.9685 -0.9442
12130TIP3    H257806   3.700   2.243  13.538  1.8665 -2.0940 -0.8501
12131TIP3   OH257807   2.497   0.883  13.492  0.3475 -0.3449  0.0860
12131TIP3    H157808   2.509   0.799  13.536  0.3995  0.9261  2.5249
12131TIP3    H257809   2.406   0.907  13.510  0.4599  0.3384 -0.2320
12132TIP3   OH257810   3.146   2.655   5.068  0.0517  0.3735  0.1875
12132TIP3    H157811   3.191   2.572   5.077 -1.7241 -0.7126 -0.6414
12132TIP3    H257812   3.137   2.688   5.158  1.6844  0.1953  0.4215
12133TIP3   OH257813   0.903   5.781  13.400 -0.2036  0.5550  0.7444
12133TIP3    H157814   0.870   5.741  13.481  0.9707  2.0087  1.9817
12133TIP3    H257815   0.947   5.861  13.430 -0.8886  1.7901 -1.4750
12134TIP3   OH257816   2.861   4.243   0.323  0.4398 -0.4724 -0.0047
12134TIP3    H157817   2.801   4.180   0.363 -2.4743  1.0442 -1.7660
12134TIP3    H257818   2.872   4.210   0.233 -0.2595  0.8972 -0.6077
12135TIP3   OH257819   6.124   4.244   3.708 -0.0212 -0.6774 -0.3145
12135TIP3    H157820   6.115   4.337   3.730 -0.4478 -0.5226 -1.1262
12135TIP3    H257821   6.051   4.202   3.753 -2.7983  0.0738 -3.8997
12136TIP3   OH257822   2.593   3.931   3.574  0.2153 -0.5468 -0.2926
12136TIP3    H157823   2.512   3.883   3.589  0.3891 -0.6996  0.1536
12136TIP3    H257824   2.644   3.919   3.654  0.2274  0.4540 -0.1478
12137TIP3   OH257825   6.695   3.184  15.940  0.2686 -0.4475 -0.2190
12137TIP3    H157826   6.755   3.110  15.942  0.1254 -0.5429  1.0119
12137TIP3    H257827   6.703   3.220  15.852  2.1424 -0.4551 -0.0570
12138TIP3   OH257828   0.290   2.076  12.933 -0.1459 -0.4719 -0.2256
12138TIP3    H157829   0.304   2.170  12.946 -0.6975 -0.4967  0.6284
12138TIP3    H257830   0.198   2.069  12.906  0.0520 -0.7230 -0.8480
12139TIP3   OH257831   3.705   3.006  12.338 -0.7081  0.3429  1.0046
12139TIP3    H157832   3.650   2.952  12.394 -1.0317  0.1696  0.5203
12139TIP3    H257833   3.779   2.949  12.316 -1.1604  0.0262  0.3143
12140TIP3   OH257834   4.696   2.711   6.210 -0.3309 -0.4960  0.3448
12140TIP3    H157835   4.663   2.632   6.253 -1.8434 -0.1226 -0.0851
12140TIP3    H257836   4.759   2.679   6.146 -1.0045 -1.3760  0.0986
12141TIP3   OH257837   4.185   2.538   0.967  0.5181 -0.2985  1.0621
12141TIP3    H157838   4.157   2.535   1.058 -3.7510 -0.7333 -0.1677
12141TIP3    H257839   4.154   2.456   0.929  0.7187  0.6270 -1.1816
12142TIP3   OH257840   1.393   2.487   2.483  0.1998  0.0836  0.4953
12142TIP3    H157841   1.341   2.522   2.410  0.7925  2.7179  1.2593
12142TIP3    H257842   1.331   2.437   2.535 -1.0585  1.2082  0.1154
12143TIP3   OH257843   3.413   6.055   1.727 -0.2351  0.1138 -0.3374
12143TIP3    H157844   3.466   6.132   1.748 -0.0547  0.8372 -3.3093
12143TIP3    H257845   3.331   6.068   1.775  0.5597  1.1535  0.7635
12144TIP3   OH257846   3.158   2.348   5.231  0.3216 -0.6748 -0.0354
12144TIP3    H157847   3.068   2.371   5.254  0.7277 -1.1642  2.1479
12144TIP3    H257848   3.179   2.272   5.285  1.6842 -1.2836 -1.3458
12145TIP3   OH257849   1.034   3.283  10.786 -0.0606 -0.1413  0.0147
12145TIP3    H157850   1.096   3.321  10.847 -1.2030  0.0556  1.0560
12145TIP3    H257851   1.082   3.211  10.745  0.6957 -0.2908  1.1550
12146TIP3   OH257852   0.882   0.538   2.433 -0.0567  0.2023 -0.2730
12146TIP3    H157853   0.882   0.501   2.521  1.7549  1.0855  0.1171
12146TIP3    H257854   0.790   0.539   2.408 -0.3056 -3.4762  0.1382
12147TIP3   OH257855   3.953   6.333   0.332  0.0442  0.2596 -0.4815
12147TIP3    H157856   3.916   6.377   0.255 -0.1337  0.1796 -0.4420
12147TIP3    H257857   3.894   6.355   0.403  1.0523  1.6065 -0.0332
12148TIP3   OH257858   0.851   6.484  11.523  0.2855  0.2068  0.6290
12148TIP3    H157859   0.832   6.567  11.567  1.6304  0.5132  0.6480
12148TIP3    H257860   0.946   6.478  11.523  0.2213 -0.9815 -0.0497
12149TIP3   OH257861   0.930   4.255   6.189  0.1875 -0.1116 -0.3113
12149TIP3    H157862   0.926   4.302   6.273 -0.5555  0.8289 -0.8701
12149TIP3    H257863   0.842   4.217   6.180  1.0717 -2.4997  0.6288
12150TIP3   OH257864   1.758   0.957   0.541 -0.7476  0.1803  0.0171
12150TIP3    H157865   1.676   0.981   0.584 -0.6872 -1.2591  0.9796
12150TIP3    H257866   1.753   0.997   0.455 -1.5186  1.9141  0.8469
12151TIP3   OH257867   4.221   1.611  11.878  0.2401 -0.3381 -0.2320
12151TIP3    H157868   4.156   1.543  11.860 -2.1220  2.1687 -1.5846
12151TIP3    H257869   4.170   1.682  11.919  2.0716  1.7563 -1.4930
12152TIP3   OH257870   4.334   6.494  12.464 -0.2680 -0.0070 -0.4824
12152TIP3    H157871   4.303   6.441  12.537  0.0631 -1.5902 -1.4826
12152TIP3    H257872   4.411   6.540  12.498 -0.6272 -0.0669  0.4200
12153TIP3   OH257873   6.358   6.116   3.080 -0.2752 -0.4411  0.1706
12153TIP3    H157874   6.328   6.170   3.154 -0.5556 -1.8360  1.0826
12153TIP3    H257875   6.453   6.118   3.087 -0.2317  1.0503 -0.6128
12154TIP3   OH257876   0.399   5.402   2.106  0.2386  0.0554 -0.0663
12154TIP3    H157877   0.452   5.454   2.047 -1.2480 -0.2744 -1.7323
12154TIP3    H257878   0.362   5.465   2.167 -1.1777  0.9275 -1.7899
12155TIP3   OH257879   1.045   1.549   3.454 -0.3669  0.0967  0.1071
12155TIP3    H157880   1.009   1.463   3.435  2.8743 -1.3111  0.0648
12155TIP3    H257881   1.045   1.554   3.550 -1.1216  0.3373  0.1021
12156TIP3   OH257882   3.877   2.571  13.059 -0.2328  0.3699 -0.2494
12156TIP3    H157883   3.838   2.580  12.972 -1.6744 -0.0268  0.3307
12156TIP3    H257884   3.822   2.626  13.116 -1.1820 -1.7174  0.9398
12157TIP3   OH257885   1.737   3.096   3.035 -0.4062 -0.3340  0.3225
12157TIP3    H157886   1.738   3.006   3.003  0.5900 -0.3913  0.5131
12157TIP3    H257887   1.720   3.149   2.957 -0.3790 -0.6450  0.1063
12158TIP3   OH257888   0.578   0.491  12.835  0.1490 -0.0928 -0.0007
12158TIP3    H157889   0.551   0.528  12.751 -1.6595 -1.4112 -0.0363
12158TIP3    H257890   0.618   0.564  12.882  0.1334  0.9391 -1.5512
12159TIP3   OH257891   1.326   2.209   1.463  0.2602  0.3124  0.3812
12159TIP3    H157892   1.272   2.144   1.508  1.7758 -1.4374 -0.2978
12159TIP3    H257893   1.359   2.164   1.385  1.8900  1.6646  0.2604
12160TIP3   OH257894   6.532   3.603  11.556  0.0170  0.1859 -0.0895
12160TIP3    H157895   6.573   3.671  11.503 -0.9692  0.7116 -0.1920
12160TIP3    H257896   6.568   3.616  11.643  0.5122  0.2641 -0.3014
12161TIP3   OH257897   6.433   0.245   1.844 -0.3281  0.2748 -0.0811
12161TIP3    H157898   6.431   0.220   1.752 -0.2260  2.5530 -0.7332
12161TIP3    H257899   6.502   0.310   1.850 -1.0484  0.9357  1.3848
12162TIP3   OH257900   3.322   5.297   2.596  0.0100  0.0909  0.5536
12162TIP3    H157901   3.269   5.376   2.598 -0.4124 -0.0724 -2.4530
12162TIP3    H257902   3.340   5.278   2.688 -1.7896  2.3743  1.4200
12163TIP3   OH257903   1.654   4.776   5.770 -0.6398  0.1811 -0.2897
12163TIP3    H157904   1.620   4.687   5.775 -0.7997  0.3940  3.2786
12163TIP3    H257905   1.747   4.765   5.748 -0.8182 -0.8030 -0.5765
12164TIP3   OH257906   0.830   5.579   3.099 -0.5786 -0.1971  0.5280
12164TIP3    H157907   0.754   5.568   3.042  1.0779  1.9887 -2.2112
12164TIP3    H257908   0.892   5.512   3.071 -0.0459  0.4065  0.2459
12165TIP3   OH257909   2.262   1.618  16.707  0.2574 -0.0165 -0.0274
12165TIP3    H157910   2.225   1.601  16.793 -1.9437 -2.3678 -1.3502
12165TIP3    H257911   2.352   1.585  16.712  0.3822  0.5702  1.5829
12166TIP3   OH257912   3.940   4.528  13.213  0.0058  0.3337 -0.0824
12166TIP3    H157913   3.926   4.539  13.307 -2.6903  0.5856 -0.4827
12166TIP3    H257914   3.922   4.615  13.176  1.3788  0.3207 -0.8338
12167TIP3   OH257915   5.426   3.612   3.328  0.2350 -0.3429 -0.0249
12167TIP3    H157916   5.502   3.566   3.292  0.4877  0.2867 -0.3016
12167TIP3    H257917   5.351   3.574   3.283  0.3883 -0.9408  0.2203
12168TIP3   OH257918   6.618   0.572  15.742 -0.0873  0.6697  0.2200
12168TIP3    H157919   6.618   0.595  15.649  2.3889  0.8002  0.2290
12168TIP3    H257920   6.558   0.497  15.749  1.4745 -0.8013 -1.8580
12169TIP3   OH257921   1.251   1.277   0.175 -0.1442  0.1736  0.0406
12169TIP3    H157922   1.157   1.293   0.175 -0.3544 -0.9975 -0.4056
12169TIP3    H257923   1.282   1.314   0.258 -0.8485  1.3882 -0.2362
12170TIP3   OH257924   2.985   3.010  14.286  0.3175 -0.3888 -0.6501
12170TIP3    H157925   2.909   3.045  14.334  1.3953  0.7513  0.2628
12170TIP3    H257926   3.003   3.074  14.218  1.5430  0.2567  0.2551
12171TIP3   OH257927   0.457   0.896   2.753  0.2193 -0.0637 -0.0887
12171TIP3    H157928   0.539   0.852   2.731  0.8113  0.6907  0.6017
12171TIP3    H257929   0.465   0.983   2.713 -0.5538 -0.2433 -0.6476
12172TIP3   OH257930   1.787   0.784   1.618  0.0056 -0.2250 -0.2328
12172TIP3    H157931   1.858   0.726   1.645  1.6756  2.1822  0.6832
12172TIP3    H257932   1.796   0.790   1.523  0.4917 -0.5921 -0.2132
12173TIP3   OH257933   0.442   5.142   3.650  0.3004  0.2294  0.1285
12173TIP3    H157934   0.416   5.216   3.594 -1.3363  0.3357  0.9829
12173TIP3    H257935   0.432   5.066   3.594 -1.6956  0.2989  0.3404
12174TIP3   OH257936   2.645   0.326  15.955 -0.1522  0.1558 -0.2126
12174TIP3    H157937   2.734   0.300  15.980  0.2709 -0.1231 -1.9542
12174TIP3    H257938   2.648   0.422  15.956  0.4491  0.1530 -1.2103
12175TIP3   OH257939   2.039   0.020  11.648 -0.6038 -0.2917  0.2156
12175TIP3    H157940   2.096   0.078  11.698 -0.8975 -0.2241  0.4750
12175TIP3    H257941   1.980   0.079  11.602  2.6829 -0.0652 -4.0242
12176TIP3   OH257942   4.569   5.459  15.246 -0.0232  0.4223  0.0214
12176TIP3    H157943   4.500   5.404  15.283 -0.8870  0.9839 -0.7393
12176TIP3    H257944   4.650   5.413  15.269 -0.7409 -1.4745 -1.0707
12177TIP3   OH257945   3.808   4.672  16.943  0.4065 -0.0195  0.5618
12177TIP3    H157946   3.756   4.737  16.897  0.6559 -0.0434  0.2377
12177TIP3    H257947   3.856   4.627  16.874 -2.1315 -2.6926  0.4502
12178TIP3   OH257948   1.123   5.234   4.564 -0.0464 -0.5967  0.0452
12178TIP3    H157949   1.134   5.311   4.508  1.4918  0.0508  1.1975
12178TIP3    H257950   1.212   5.212   4.593 -0.7358 -1.2622  1.7695
12179TIP3   OH257951   0.924   6.329  15.975  0.3031  0.1082 -0.1642
12179TIP3    H157952   0.971   6.288  15.903  1.2010  1.0061 -0.0959
12179TIP3    H257953   0.931   6.265  16.047 -0.9514 -0.9684 -0.9841
12180TIP3   OH257954   2.434   6.305   0.722 -0.0936  0.4498  0.4715
12180TIP3    H157955   2.447   6.211   0.706 -1.5158  0.3535 -0.1526
12180TIP3    H257956   2.367   6.309   0.790  1.2448  0.9924  1.7851
12181TIP3   OH257957   6.490   0.941   1.808  0.0401 -0.7501  0.6497
12181TIP3    H157958   6.437   0.876   1.854  1.0418 -1.2128  1.1876
12181TIP3    H257959   6.553   0.888   1.758 -1.0144 -0.2531 -1.2473
12182TIP3   OH257960   6.743   3.070  10.317 -0.2671  0.0579 -0.1866
12182TIP3    H157961   6.676   3.004  10.338  0.4835 -1.3837 -2.1989
12182TIP3    H257962   6.694   3.152  10.309 -1.1043 -0.0521  3.1571
12183TIP3   OH257963   5.968   2.900  10.732 -0.6799  0.0703  0.7070
12183TIP3    H157964   5.936   2.811  10.719 -2.7511  1.1506 -2.1705
12183TIP3    H257965   6.049   2.904  10.680  0.9732 -0.9138  3.1390
12184TIP3   OH257966   0.838   3.011  10.947  0.4789 -0.0682  0.9191
12184TIP3    H157967   0.807   3.003  10.857 -1.1939  1.8400  1.2913
12184TIP3    H257968   0.919   2.960  10.949  1.0890  0.7224 -1.9180
12185TIP3   OH257969   2.875   5.899  13.152 -0.2008 -0.4738 -0.4707
12185TIP3    H157970   2.833   5.859  13.076 -1.6722  1.0092 -0.4865
12185TIP3    H257971   2.833   5.858  13.227 -0.9026  0.2074 -0.4838
12186TIP3   OH257972   1.587   0.241  12.832  0.1295 -0.4478 -0.2586
12186TIP3    H157973   1.494   0.247  12.809  0.2156 -0.1511 -0.5398
12186TIP3    H257974   1.629   0.309  12.780  0.4582 -0.3581  0.1161
12187TIP3   OH257975   4.744   6.012  12.547  0.0691  0.3401  0.0731
12187TIP3    H157976   4.779   5.923  12.558 -1.2997 -0.1395  0.7074
12187TIP3    H257977   4.794   6.049  12.475 -0.5154 -1.5837 -1.3690
12188TIP3   OH257978   6.769   0.050   4.332  0.2795  0.0136  0.6002
12188TIP3    H157979   6.791   0.104   4.256 -0.6287  1.3150  1.2543
12188TIP3    H257980   6.854   0.027   4.370  0.6621  1.3084  0.5370
12189TIP3   OH257981   5.516   2.378   5.754 -0.1135  0.1451 -0.7547
12189TIP3    H157982   5.557   2.446   5.808 -0.3544 -0.0616 -0.3045
12189TIP3    H257983   5.582   2.309   5.748 -0.6755 -0.5217  0.6158
12190TIP3   OH257984   5.956   5.899  11.378  0.4194 -0.1567  0.2540
12190TIP3    H157985   6.028   5.864  11.325  0.5008 -2.4681  1.8469
12190TIP3    H257986   5.884   5.909  11.315  1.8106  1.3638 -1.1709
12191TIP3   OH257987   4.789   3.257  13.620 -0.1245  0.2343  0.3528
12191TIP3    H157988   4.726   3.201  13.574  0.5084 -0.3147  0.1429
12191TIP3    H257989   4.758   3.258  13.711 -1.0119  0.7990  0.0554
12192TIP3   OH257990   5.317   4.038   0.719  0.2265 -0.3269 -0.0782
12192TIP3    H157991   5.395   4.092   0.705  0.4335 -0.7588 -0.6704
12192TIP3    H257992   5.296   4.049   0.811  0.3552  0.6335 -0.1570
12193TIP3   OH257993   4.755   5.103  10.399  0.4618 -0.0157 -0.0134
12193TIP3    H157994   4.773   5.157  10.322  1.4125  2.0880  1.6529
12193TIP3    H257995   4.670   5.134  10.430  0.1000 -0.8330 -0.1690
12194TIP3   OH257996   3.865   4.632  16.506 -0.2660  0.1787  0.3180
12194TIP3    H157997   3.795   4.566  16.503  0.2316 -0.3072 -1.2987
12194TIP3    H257998   3.874   4.661  16.415 -0.1324  2.1349  0.9332
12195TIP3   OH257999   1.803   6.635  16.172 -0.2034  0.2139  0.7171
12195TIP3    H158000   1.712   6.632  16.144  0.5630  1.3316 -2.0842
12195TIP3    H258001   1.834   6.545  16.166 -0.5742  0.1524 -0.2818
12196TIP3   OH258002   4.136   4.103   4.809 -0.3276  0.0323  0.4228
12196TIP3    H158003   4.099   4.044   4.744 -0.2896  0.3863  0.0821
12196TIP3    H258004   4.129   4.190   4.771 -0.9023  0.3165  1.1624
12197TIP3   OH258005   4.187   5.687   1.168  0.5495 -0.2698 -0.1182
12197TIP3    H158006   4.124   5.632   1.215 -0.8143  1.1601 -0.2576
12197TIP3    H258007   4.183   5.657   1.077  0.1221 -0.2075 -0.1168
12198TIP3   OH258008   2.694   4.874   1.406 -0.5646 -0.1742 -0.4253
12198TIP3    H158009   2.731   4.820   1.336  2.7055  0.9459  0.3542
12198TIP3    H258010   2.759   4.942   1.421 -2.4844  1.2598  1.8060
12199TIP3   OH258011   4.656   4.057   6.136  0.2094  0.4165 -0.3950
12199TIP3    H158012   4.608   4.139   6.153  0.7996  0.6249  0.2687
12199TIP3    H258013   4.748   4.080   6.148  0.2921 -0.7298  1.4702
12200TIP3   OH258014   1.224   5.973  14.506  0.4008 -0.0689  0.1149
12200TIP3    H158015   1.221   5.917  14.429  0.6502  0.8707 -0.5897
12200TIP3    H258016   1.307   5.951  14.549 -0.6555 -2.0071  1.2115
12201TIP3   OH258017   2.040   1.193   4.381 -0.2165  0.2005  0.8378
12201TIP3    H158018   2.092   1.197   4.301 -1.8012 -0.4646 -0.2559
12201TIP3    H258019   2.059   1.275   4.427  2.2828 -0.3386  0.7999
12202TIP3   OH258020   0.959   1.347  15.657 -0.2549 -0.0437 -0.6505
12202TIP3    H158021   0.901   1.404  15.707  0.9738  0.4236  0.2686
12202TIP3    H258022   1.001   1.291  15.722  0.4634 -0.2490 -1.2731
12203TIP3   OH258023   5.811   4.548  13.418 -0.2973 -0.0652 -0.1946
12203TIP3    H158024   5.844   4.488  13.484  0.7899  0.3357 -0.3547
12203TIP3    H258025   5.866   4.626  13.427 -1.3927  0.7336 -0.2870
12204TIP3   OH258026   4.535   0.039  13.437  0.0449  0.4400 -0.5024
12204TIP3    H158027   4.612   0.089  13.411  0.3429  0.4569  0.3897
12204TIP3    H258028   4.474   0.104  13.473 -0.2138  0.3674 -0.7991
12205TIP3   OH258029   4.384   2.419   2.497 -0.9709 -0.3177 -0.6576
12205TIP3    H158030   4.456   2.418   2.434 -0.1525  1.6041  0.2096
12205TIP3    H258031   4.306   2.437   2.445 -0.6468 -1.1016 -1.4248
12206TIP3   OH258032   3.929   5.789  15.457  0.2486 -0.8589  0.0383
12206TIP3    H158033   3.910   5.881  15.473  0.3488 -0.5466 -1.5776
12206TIP3    H258034   3.919   5.748  15.543  0.3079  0.6639  0.7993
12207TIP3   OH258035   4.975   2.568  11.733  0.1097  0.4838  0.2994
12207TIP3    H158036   4.913   2.639  11.714  2.0302  2.2188  0.3875
12207TIP3    H258037   5.030   2.563  11.655  0.0695 -0.8697  0.3398
12208TIP3   OH258038   4.291   4.249   0.027  0.8280 -0.2664 -0.0039
12208TIP3    H158039   4.316   4.201  -0.052 -0.9952 -0.2710 -0.5894
12208TIP3    H258040   4.227   4.193   0.070  1.0583  0.1994  0.9705
12209TIP3   OH258041   5.497   3.926  11.569 -0.4293  0.1022  0.0008
12209TIP3    H158042   5.586   3.954  11.546 -0.2476 -0.0417  0.5258
12209TIP3    H258043   5.466   3.992  11.630 -0.3077 -0.3826  0.5967
12210TIP3   OH258044   1.998   4.713  11.395  0.6952 -0.0628 -1.1154
12210TIP3    H158045   2.057   4.637  11.398  1.2258  0.3629 -0.4174
12210TIP3    H258046   2.044   4.776  11.340  0.9279  0.2872 -0.5339
12211TIP3   OH258047   3.950   2.352  17.101 -0.4792 -0.2352 -0.1028
12211TIP3    H158048   3.904   2.332  17.182  0.0681 -2.2602 -0.2865
12211TIP3    H258049   3.984   2.441  17.114 -0.8796 -0.3265  1.6517
12212TIP3   OH258050   3.910   3.461   0.567 -0.4208  0.2370 -0.3810
12212TIP3    H158051   3.822   3.465   0.531 -0.8109 -1.8378  0.2671
12212TIP3    H258052   3.901   3.490   0.658 -0.1332  1.5628 -0.7574
12213TIP3   OH258053   4.867   1.662   0.275  0.3088 -0.2005  0.1663
12213TIP3    H158054   4.887   1.711   0.354 -0.1657 -0.4920  0.4695
12213TIP3    H258055   4.917   1.581   0.284  1.6346  0.5112 -0.6549
12214TIP3   OH258056   5.251   0.791   5.976  0.0764  0.1222  0.4427
12214TIP3    H158057   5.224   0.771   6.066  0.0221 -2.4494 -0.1289
12214TIP3    H258058   5.316   0.725   5.955  1.4944  1.8520 -0.7782
12215TIP3   OH258059   5.411   1.852   4.494 -0.3317  0.3092 -0.0712
12215TIP3    H158060   5.470   1.882   4.563 -1.1759  1.0335  0.3451
12215TIP3    H258061   5.459   1.783   4.449  0.6716  0.6184  0.5230
12216TIP3   OH258062   0.204   6.681  12.407 -0.1617  0.2969  0.7638
12216TIP3    H158063   0.251   6.692  12.489  0.8922  1.0453  0.0692
12216TIP3    H258064   0.261   6.624  12.354 -0.6442  0.1438  0.4031
12217TIP3   OH258065   2.009   2.282  13.147 -0.4937  0.0562 -0.0309
12217TIP3    H158066   1.942   2.330  13.195 -0.0258  0.8537 -0.1604
12217TIP3    H258067   2.073   2.255  13.214  0.6774  2.0384 -0.3172
12218TIP3   OH258068   3.614   1.189   6.744  0.0894 -0.0097  0.1232
12218TIP3    H158069   3.633   1.101   6.777 -0.9686 -0.0140  0.7321
12218TIP3    H258070   3.542   1.220   6.799  0.8054  1.4436  0.2623
12219TIP3   OH258071   6.268   0.095  12.355  1.0040 -0.0657 -0.4101
12219TIP3    H158072   6.344   0.053  12.313  1.7274  0.1324  0.6760
12219TIP3    H258073   6.297   0.184  12.373  0.5204 -0.0028  0.0477
12220TIP3   OH258074   0.323   6.713   6.376  0.6685 -0.2946  0.2006
12220TIP3    H158075   0.366   6.641   6.329  0.5741  0.1366 -0.5432
12220TIP3    H258076   0.242   6.674   6.409 -1.0512  0.3392 -3.0753
12221TIP3   OH258077   2.540   3.017   1.993  0.3291 -0.6632 -0.3291
12221TIP3    H158078   2.597   2.992   1.921  1.8946 -0.9815  1.0014
12221TIP3    H258079   2.590   3.082   2.042 -0.5285 -0.7897  0.7422
12222TIP3   OH258080   4.269   3.429  12.220 -0.2397 -0.8502  0.0721
12222TIP3    H158081   4.260   3.517  12.256 -0.1944 -0.8535  0.0926
12222TIP3    H258082   4.359   3.403  12.243 -0.3003 -0.9566  0.1883
12223TIP3   OH258083   0.101   1.404  14.542 -0.3745  0.0270 -0.3038
12223TIP3    H158084   0.088   1.445  14.628  2.4376  1.8756 -0.6666
12223TIP3    H258085   0.195   1.383  14.540 -0.5374 -0.6048 -2.6729
12224TIP3   OH258086   6.118   6.211  10.761  0.0864  0.3773 -0.2205
12224TIP3    H158087   6.166   6.164  10.829  0.0340  0.0173 -0.4315
12224TIP3    H258088   6.139   6.303  10.777 -0.9510  0.4031  1.0758
12225TIP3   OH258089   4.790   6.539  12.465 -0.2765 -0.0054  0.2349
12225TIP3    H158090   4.785   6.460  12.519 -1.1550 -0.1225 -0.0137
12225TIP3    H258091   4.884   6.551  12.449 -0.0759 -0.5135  0.9846
12226TIP3   OH258092   3.848   0.710   3.594 -0.0484 -0.2003  0.5308
12226TIP3    H158093   3.861   0.685   3.503  0.8923  0.1462  0.5644
12226TIP3    H258094   3.753   0.710   3.606 -0.1418 -1.1137 -0.1987
12227TIP3   OH258095   3.020   4.464   3.755  0.1465  0.4657  0.6462
12227TIP3    H158096   3.007   4.460   3.660 -2.1616  0.2285  0.9299
12227TIP3    H258097   3.069   4.385   3.777  0.5792  0.4634 -0.3507
12228TIP3   OH258098   1.084   2.744   5.873  0.2736  0.0680  0.6209
12228TIP3    H158099   1.177   2.730   5.855  0.2346 -1.2894  1.3922
12228TIP3    H258100   1.082   2.775   5.964 -0.1125 -1.3161  1.1000
12229TIP3   OH258101   3.748   1.777   4.099 -0.1345 -0.5735 -0.3762
12229TIP3    H158102   3.667   1.726   4.094 -1.4864  1.4313  0.4083
12229TIP3    H258103   3.796   1.737   4.172 -1.6354 -0.1384  0.8933
12230TIP3   OH258104   1.028   0.982   0.064  0.4623 -0.0760 -0.1224
12230TIP3    H158105   1.070   1.056   0.021  1.5827 -0.9837 -0.6207
12230TIP3    H258106   0.941   0.978   0.026 -0.4020  2.3154  1.4921
12231TIP3   OH258107   6.396   6.716   4.758 -0.6575  0.0705  0.2275
12231TIP3    H158108   6.391   6.673   4.672  2.9723  0.4894 -0.2837
12231TIP3    H258109   6.385   6.809   4.739  0.5353  0.2028  0.1160
12232TIP3   OH258110   2.806   3.457   1.216  0.3898  0.5318  0.5643
12232TIP3    H158111   2.882   3.473   1.160  0.5100  0.7046  0.7757
12232TIP3    H258112   2.731   3.486   1.164  0.4254 -0.0643  0.1770
12233TIP3   OH258113   6.484   4.352   0.398 -0.7460  0.9143 -0.4860
12233TIP3    H158114   6.527   4.367   0.482  1.0293 -2.2920 -0.7479
12233TIP3    H258115   6.496   4.434   0.349  1.0597  1.6553  1.1638
12234TIP3   OH258116   3.024   4.003  15.738 -0.0760  0.5855 -1.0370
12234TIP3    H158117   3.076   4.038  15.810 -1.0351  1.6632 -0.8532
12234TIP3    H258118   3.016   3.909  15.757  0.9843  0.5756 -0.5818
12235TIP3   OH258119   1.727   3.757   6.019  0.8383  0.2837  0.1050
12235TIP3    H158120   1.676   3.833   6.047  2.5577  1.5205 -0.0570
12235TIP3    H258121   1.752   3.714   6.100 -2.0061 -1.4204  0.1528
12236TIP3   OH258122   2.502   0.141   0.324 -0.2017  0.2595 -0.0475
12236TIP3    H158123   2.407   0.139   0.338 -0.1383  2.7525  1.0307
12236TIP3    H258124   2.539   0.113   0.408  0.0235  0.8917  0.0666
12237TIP3   OH258125   1.721   1.583  12.123 -0.1173 -0.3302  0.3182
12237TIP3    H158126   1.743   1.598  12.031  0.7290  0.8019  0.6937
12237TIP3    H258127   1.784   1.636  12.172 -1.5803  0.3534  1.5125
12238TIP3   OH258128   0.485   3.669  14.120 -0.1740 -0.0734 -0.5016
12238TIP3    H158129   0.430   3.602  14.162  0.4921 -0.6041 -0.4673
12238TIP3    H258130   0.505   3.731  14.191  1.1889 -1.1242  0.0599
12239TIP3   OH258131   3.620   6.027   0.545  0.4310  0.8241 -0.0328
12239TIP3    H158132   3.582   5.942   0.567  0.3226  0.0659 -2.9859
12239TIP3    H258133   3.589   6.086   0.614 -2.2724 -0.8085  0.2143
12240TIP3   OH258134   5.802   4.250   3.546 -0.0306  0.0504 -0.2998
12240TIP3    H158135   5.821   4.158   3.563  2.6672  0.3849 -1.2306
12240TIP3    H258136   5.827   4.296   3.626  1.1996  0.2609 -0.7944
12241TIP3   OH258137   4.248   6.655   3.331  0.2802  0.4447  0.0057
12241TIP3    H158138   4.162   6.616   3.341  1.1916 -1.4571  0.6226
12241TIP3    H258139   4.309   6.582   3.343  2.0078  2.0174  1.0059
12242TIP3   OH258140   1.072   4.962  14.519  0.1557 -0.4273 -0.1259
12242TIP3    H158141   1.010   4.910  14.468  0.2656 -0.2711 -0.4173
12242TIP3    H258142   1.034   4.965  14.607 -1.6846  2.0467 -0.9684
12243TIP3   OH258143   3.025   5.563   0.597  0.0921  0.9977 -0.4281
12243TIP3    H158144   3.065   5.527   0.676  0.4123  0.2553 -0.9241
12243TIP3    H258145   3.018   5.488   0.538 -1.8884  1.1515 -0.4051
12244TIP3   OH258146   2.624   0.544  14.562  0.0679  0.1936 -0.3582
12244TIP3    H158147   2.634   0.490  14.484  2.1706 -0.1611  0.1105
12244TIP3    H258148   2.699   0.603  14.560 -0.0625  0.4363  1.1815
12245TIP3   OH258149   6.556   5.615   3.631  0.9600 -0.3250  0.2808
12245TIP3    H158150   6.623   5.623   3.699  2.2713  0.7497 -1.1066
12245TIP3    H258151   6.511   5.699   3.631  0.4033 -0.6196  0.3874
12246TIP3   OH258152   3.197   3.228  11.748  0.0724  0.5348  0.5178
12246TIP3    H158153   3.184   3.241  11.842 -0.5132 -1.0893  0.6651
12246TIP3    H258154   3.274   3.172  11.741 -0.4078 -0.0807  0.0607
12247TIP3   OH258155   2.017   5.958   3.949  0.0429 -0.0840  0.6056
12247TIP3    H158156   1.974   6.040   3.925 -0.2276 -0.3332  0.2351
12247TIP3    H258157   2.074   5.938   3.875 -0.3948 -0.5765  0.4018
12248TIP3   OH258158   0.019   0.106  14.160 -0.5524  0.2782  0.5053
12248TIP3    H158159   0.110   0.107  14.190 -0.2934 -0.8379 -0.1872
12248TIP3    H258160  -0.024   0.175  14.211  1.1031  2.1319 -0.5251
12249TIP3   OH258161   5.067   6.782   4.402  0.6680 -0.0275 -0.7335
12249TIP3    H158162   5.033   6.817   4.484 -0.9541 -0.4025 -1.2303
12249TIP3    H258163   5.157   6.754   4.423  0.3406  0.0816  0.8464
12250TIP3   OH258164   1.675   3.359   6.317 -0.3330  0.0559 -0.1828
12250TIP3    H158165   1.768   3.341   6.326 -0.2953  0.1077 -0.4745
12250TIP3    H258166   1.651   3.403   6.399 -0.3610 -1.0350  0.4046
12251TIP3   OH258167   0.568   2.918   3.308  0.1211 -0.2540 -0.1949
12251TIP3    H158168   0.502   2.877   3.365  1.5805 -1.6551  0.5405
12251TIP3    H258169   0.542   2.893   3.219 -1.7418  1.3084 -0.1166
12252TIP3   OH258170   4.683   4.230   2.382 -0.1384 -0.7351  0.7330
12252TIP3    H158171   4.727   4.312   2.358 -1.2847 -0.8386 -1.9511
12252TIP3    H258172   4.750   4.163   2.371 -0.3739 -0.6575 -1.4297
12253TIP3   OH258173   6.139   0.273   5.490 -0.5003  0.2107 -0.5703
12253TIP3    H158174   6.231   0.295   5.500 -0.0886 -1.3561 -0.8756
12253TIP3    H258175   6.123   0.278   5.395 -0.6146  0.0135 -0.5622
12254TIP3   OH258176   3.057   2.588  12.247  0.1231  0.2486  0.0849
12254TIP3    H158177   3.083   2.602  12.338  3.3737  0.0547 -0.7654
12254TIP3    H258178   3.131   2.619  12.196 -1.7213  0.4953 -2.5392
12255TIP3   OH258179   1.572   6.416   4.005 -0.3466 -0.2615 -0.2602
12255TIP3    H158180   1.550   6.467   4.084 -0.0027 -0.5803  0.0421
12255TIP3    H258181   1.667   6.406   4.009  0.1891  3.0132 -2.7072
12256TIP3   OH258182   0.462   2.651   5.998  0.0716  0.3003 -0.0525
12256TIP3    H158183   0.424   2.698   6.072 -0.1070 -1.0371  0.7103
12256TIP3    H258184   0.493   2.721   5.940  0.1598  1.3626  1.2346
12257TIP3   OH258185   5.806   2.549   0.850 -0.4775  0.2819  0.2632
12257TIP3    H158186   5.773   2.463   0.823 -1.2874  0.1829  1.5195
12257TIP3    H258187   5.746   2.611   0.808  0.3372  0.2543 -0.9556
12258TIP3   OH258188   1.477   2.930  12.550 -0.6254 -0.1386  0.2959
12258TIP3    H158189   1.555   2.886  12.517 -1.8391 -1.4063 -0.9268
12258TIP3    H258190   1.440   2.869  12.614 -2.1149 -0.7890 -1.1461
12259TIP3   OH258191   6.343   3.179  15.806 -0.6802 -0.4385  0.2541
12259TIP3    H158192   6.334   3.187  15.711 -1.8916 -0.7173  0.3415
12259TIP3    H258193   6.351   3.085  15.822  0.2226 -0.3479  0.3764
12260TIP3   OH258194   2.789   5.483  11.743  0.7847  0.2944 -0.3956
12260TIP3    H158195   2.869   5.453  11.699  0.4314 -1.7981  0.3368
12260TIP3    H258196   2.721   5.480  11.675  1.1252  1.3003 -0.8053
12261TIP3   OH258197   2.759   0.898   2.018  0.1095 -0.6588 -0.8312
12261TIP3    H158198   2.683   0.911   1.962  0.2300  1.1648 -0.6141
12261TIP3    H258199   2.828   0.952   1.978  0.3533  0.2317  0.7372
12262TIP3   OH258200   6.561   4.540  10.754  0.1665 -0.2079  0.2143
12262TIP3    H158201   6.639   4.486  10.750 -0.0778 -0.4130 -3.2198
12262TIP3    H258202   6.530   4.545  10.663 -3.2621  0.6559  1.3438
12263TIP3   OH258203   0.819   5.042   3.987 -0.3322  0.3488  0.5409
12263TIP3    H158204   0.790   5.072   3.900 -0.9905  0.5298  0.8173
12263TIP3    H258205   0.738   5.019   4.032 -0.1151  1.7086  1.6474
12264TIP3   OH258206   1.802   0.737   2.730  0.1626  0.3698  0.4070
12264TIP3    H158207   1.743   0.812   2.736  0.4260  0.6314 -0.1690
12264TIP3    H258208   1.790   0.704   2.641 -1.0657 -1.2052  1.1496
12265TIP3   OH258209   3.169   2.609  15.343 -0.4265 -0.3830  0.3237
12265TIP3    H158210   3.176   2.699  15.313 -1.0520  0.1135  1.6168
12265TIP3    H258211   3.092   2.609  15.400  1.0556 -1.1464  2.3904
12266TIP3   OH258212   1.402   0.891  15.655 -0.4964 -0.3355  0.5069
12266TIP3    H158213   1.436   0.815  15.609 -0.3100 -0.8055  1.4014
12266TIP3    H258214   1.447   0.890  15.740  0.3273  1.3904  0.1208
12267TIP3   OH258215   2.997   2.359   0.531 -0.3667 -0.0825  0.2208
12267TIP3    H158216   2.941   2.410   0.473  1.3023 -0.8338 -2.1202
12267TIP3    H258217   3.007   2.275   0.487  0.8347 -0.7290  1.6729
12268TIP3   OH258218   1.443   3.139  16.078  0.6551  0.3577 -0.0683
12268TIP3    H158219   1.496   3.079  16.024  1.1983  1.2837 -0.5853
12268TIP3    H258220   1.380   3.082  16.123  1.4811 -0.6575 -0.1737
12269TIP3   OH258221   1.615   2.075  13.606  0.0225  0.0223  0.1632
12269TIP3    H158222   1.650   2.126  13.679  3.9187  0.4707 -1.8562
12269TIP3    H258223   1.570   2.001  13.646  1.3773  0.6980  3.0117
12270TIP3   OH258224   0.618   0.678   0.263 -0.0043  0.6373 -0.0741
12270TIP3    H158225   0.698   0.667   0.313  0.3017  2.3935 -0.1204
12270TIP3    H258226   0.621   0.769   0.234 -1.8807  0.6499 -0.2962
12271TIP3   OH258227   4.867   5.021   4.555 -0.1720  0.0145 -0.1092
12271TIP3    H158228   4.900   5.037   4.644 -0.4574  1.7833 -0.2978
12271TIP3    H258229   4.944   5.028   4.499 -0.5795  2.7805 -0.3992
12272TIP3   OH258230   6.157   2.895  13.840 -0.1587  0.1337  0.2833
12272TIP3    H158231   6.129   2.935  13.757 -0.6441 -0.3607  0.2056
12272TIP3    H258232   6.111   2.946  13.907 -0.4663 -0.0349  0.2030
12273TIP3   OH258233   2.250   3.394  13.791 -0.0347 -0.2368  0.7725
12273TIP3    H158234   2.175   3.395  13.850 -0.9617  0.0472 -0.3841
12273TIP3    H258235   2.216   3.427  13.708  0.2309 -4.4473 -1.1388
12274TIP3   OH258236   1.051   1.807   1.236 -0.4579  0.2722 -0.0580
12274TIP3    H158237   1.049   1.783   1.329  0.8223 -0.1140 -0.1280
12274TIP3    H258238   1.117   1.750   1.197 -1.6168 -0.1910 -1.4009
12275TIP3   OH258239   4.078   6.730  11.165 -0.1113 -1.0249  0.7423
12275TIP3    H158240   4.059   6.819  11.196  0.7192 -1.3788  2.3181
12275TIP3    H258241   4.146   6.742  11.100  0.6741 -0.5740  1.6326
12276TIP3   OH258242   3.380   6.466  14.892 -0.7568 -0.1474  0.0278
12276TIP3    H158243   3.353   6.487  14.802 -0.8165 -0.7515 -0.1017
12276TIP3    H258244   3.434   6.388  14.883 -0.3095  0.1094  0.4665
12277TIP3   OH258245   0.576   2.419  11.944  0.4421  0.1524  0.1267
12277TIP3    H158246   0.657   2.379  11.913 -0.1493 -0.4871 -0.6234
12277TIP3    H258247   0.590   2.433  12.038  1.0805 -0.7849  0.1722
12278TIP3   OH258248   5.283   1.283   3.937 -0.0975 -0.2040  0.0254
12278TIP3    H158249   5.341   1.289   4.012  0.1370  0.8051 -0.2369
12278TIP3    H258250   5.221   1.355   3.948 -1.5319 -1.4848  0.4961
12279TIP3   OH258251   1.327   4.466   5.317  0.0250  0.4462  0.5390
12279TIP3    H158252   1.234   4.456   5.334 -0.4697  1.2273 -1.5358
12279TIP3    H258253   1.368   4.468   5.403 -1.9468  0.7524  1.4752
12280TIP3   OH258254   1.770   5.433   4.967 -0.0177 -0.0612  0.1604
12280TIP3    H158255   1.821   5.497   5.017  0.2526  0.7617 -1.1612
12280TIP3    H258256   1.832   5.362   4.949 -0.5514 -1.1302  2.3786
12281TIP3   OH258257   2.998   3.281  13.301  0.3869 -0.7989 -0.5253
12281TIP3    H158258   2.925   3.273  13.362  1.7515  0.6605  1.3444
12281TIP3    H258259   3.071   3.236  13.345  1.6833  1.2051 -0.5669
12282TIP3   OH258260   4.999   2.089  15.904  0.0760  0.2043 -0.3982
12282TIP3    H158261   5.091   2.115  15.899  0.4478 -0.7451  1.1152
12282TIP3    H258262   4.963   2.113  15.818  1.4284  1.6663 -0.5866
12283TIP3   OH258263   3.191   6.077   0.135 -0.2759  0.6479 -0.0132
12283TIP3    H158264   3.126   6.136   0.173  0.0750  0.9662  0.0988
12283TIP3    H258265   3.266   6.084   0.194 -0.5875 -0.6668  0.5587
12284TIP3   OH258266   6.658   3.614   4.533  0.3251 -0.6164  0.2142
12284TIP3    H158267   6.738   3.591   4.487  0.4447  0.7945 -0.3019
12284TIP3    H258268   6.594   3.631   4.464  0.0107 -0.2038  0.6021
12285TIP3   OH258269   0.211   6.641   2.544  0.0356 -0.3795 -0.0538
12285TIP3    H158270   0.300   6.677   2.535  0.3077 -1.0411 -0.0634
12285TIP3    H258271   0.174   6.687   2.619 -0.1185  0.9161 -0.8966
12286TIP3   OH258272   3.071   0.906  16.829  0.3578 -0.1054  0.2583
12286TIP3    H158273   3.120   0.971  16.879 -0.0255 -1.4912  2.4682
12286TIP3    H258274   3.138   0.853  16.786  0.6986  0.8320 -0.3817
12287TIP3   OH258275   5.979   0.211   6.382 -0.2180  0.5240 -0.1634
12287TIP3    H158276   6.007   0.273   6.314  0.6089  2.3877  1.7959
12287TIP3    H258277   5.908   0.257   6.427 -0.3854 -0.4510  0.5705
12288TIP3   OH258278   4.063   3.260   0.807 -0.0547  0.1435 -0.1533
12288TIP3    H158279   4.017   3.341   0.783  0.9865  0.1308 -2.3876
12288TIP3    H258280   4.116   3.284   0.883 -1.8077  0.8181  0.8915
12289TIP3   OH258281   4.392   0.838  12.629 -0.6995 -0.4439  0.1346
12289TIP3    H158282   4.387   0.843  12.533  0.5975 -1.0972  0.0239
12289TIP3    H258283   4.342   0.914  12.659 -1.1642 -0.2545 -1.0580
12290TIP3   OH258284   6.429   0.540  16.822  0.6402  0.0895  0.5896
12290TIP3    H158285   6.382   0.577  16.896 -1.0823  0.4744 -0.6420
12290TIP3    H258286   6.506   0.497  16.860  0.2502  1.0200  2.4798
12291TIP3   OH258287   1.185   3.117   3.470 -0.0883  0.0904  0.1076
12291TIP3    H158288   1.240   3.165   3.532  0.7196  0.4954 -0.9003
12291TIP3    H258289   1.238   3.113   3.390 -1.2570 -0.1138 -0.6617
12292TIP3   OH258290   4.697   6.748  13.123  0.3191  0.1830  0.0758
12292TIP3    H158291   4.734   6.664  13.097 -0.6306  0.6122 -2.8655
12292TIP3    H258292   4.605   6.743  13.098 -0.2309  1.3467  1.7567
12293TIP3   OH258293   3.455   3.586   1.091  0.2959 -0.1820  0.0427
12293TIP3    H158294   3.395   3.651   1.126  1.7928  0.2180  1.9936
12293TIP3    H258295   3.448   3.512   1.152 -0.1905 -1.1943 -1.2303
12294TIP3   OH258296   5.266   2.198  11.713 -0.2278 -0.3582  0.4296
12294TIP3    H158297   5.336   2.171  11.654 -1.2135 -1.3625 -0.2920
12294TIP3    H258298   5.199   2.131  11.704 -1.4271  0.7519  0.8787
12295TIP3   OH258299   0.664   4.231   1.665 -0.1688  0.4863 -0.5515
12295TIP3    H158300   0.693   4.234   1.756  0.9122  2.8570 -0.9526
12295TIP3    H258301   0.741   4.201   1.616 -0.5484 -0.1296 -0.7862
12296TIP3   OH258302   1.198   6.070  14.832 -0.3856  0.2301 -0.5620
12296TIP3    H158303   1.127   6.068  14.768 -1.4246  1.7517  0.5067
12296TIP3    H258304   1.166   6.127  14.901  0.3009 -2.1629  1.8231
12297TIP3   OH258305   0.896   4.605   1.066  0.1733  0.8017 -0.3703
12297TIP3    H158306   0.804   4.585   1.048  0.2076  0.3797 -0.0861
12297TIP3    H258307   0.933   4.625   0.980 -0.1087  0.6490 -0.5291
12298TIP3   OH258308   3.556   1.615   0.251  0.3062  0.5949 -0.0785
12298TIP3    H158309   3.545   1.520   0.247 -2.0611  0.7876  1.1133
12298TIP3    H258310   3.542   1.644   0.161  2.7494 -0.3200 -0.7911
12299TIP3   OH258311   4.072   3.871  11.155 -0.8282 -0.1681  0.5915
12299TIP3    H158312   4.023   3.936  11.106 -1.0558  0.7469  2.0197
12299TIP3    H258313   4.032   3.787  11.130 -1.1293  0.3026 -0.5375
12300TIP3   OH258314   6.762   3.454  16.288 -0.0812 -0.1545 -0.7280
12300TIP3    H158315   6.848   3.424  16.319 -0.0293 -0.5723 -1.2616
12300TIP3    H258316   6.782   3.529  16.231 -0.0764 -0.1989 -0.7859
12301TIP3   OH258317   0.586   0.777   4.635  0.5167  0.2612  0.0513
12301TIP3    H158318   0.515   0.715   4.619  1.1221 -0.7267  1.1197
12301TIP3    H258319   0.546   0.845   4.689 -0.1871  0.9020 -1.2537
12302TIP3   OH258320   6.232   0.002  16.680 -0.2548  0.1931  0.7247
12302TIP3    H158321   6.186  -0.073  16.717 -1.9054  1.1215  0.5854
12302TIP3    H258322   6.307  -0.036  16.635 -1.3321 -1.4160  0.2571
12303TIP3   OH258323   6.590   4.669   4.189 -0.3565 -0.2092 -0.3067
12303TIP3    H158324   6.495   4.682   4.188 -0.1185  1.6411 -0.5999
12303TIP3    H258325   6.624   4.732   4.125  1.2895  1.3721  2.0081
12304TIP3   OH258326   1.584   0.976  15.417 -0.3793 -0.5759  0.0653
12304TIP3    H158327   1.490   0.961  15.405 -0.4468 -0.2423  0.1829
12304TIP3    H258328   1.591   1.069  15.438  0.0117 -0.5069 -0.3483
12305TIP3   OH258329   1.876   2.236   4.534  0.2786 -0.3071 -0.6214
12305TIP3    H158330   1.888   2.205   4.444  2.4932 -0.1183 -0.4344
12305TIP3    H258331   1.891   2.331   4.528  0.5608 -0.3145 -0.0384
12306TIP3   OH258332   4.353   4.258  10.355 -0.3023  0.5042 -0.2476
12306TIP3    H158333   4.300   4.334  10.331 -0.9171  0.3585  0.6237
12306TIP3    H258334   4.438   4.295  10.377 -0.8401  1.0305  0.9717
12307TIP3   OH258335   2.747   1.189  11.736 -0.7366 -0.1788 -0.0393
12307TIP3    H158336   2.785   1.265  11.778  0.4139 -0.8965  0.2354
12307TIP3    H258337   2.722   1.131  11.808  0.0315 -0.8337 -0.2916
12308TIP3   OH258338   6.109   6.115  16.229  0.5706  0.0314  0.1952
12308TIP3    H158339   6.042   6.182  16.246  0.3721  0.6578 -2.8020
12308TIP3    H258340   6.106   6.057  16.306 -1.3176  1.7507  1.4539
12309TIP3   OH258341   2.688   3.533   0.091 -0.1104 -0.0579  0.2688
12309TIP3    H158342   2.693   3.547  -0.004 -1.4155 -1.6930 -0.0617
12309TIP3    H258343   2.648   3.613   0.125 -0.5967  0.1115 -0.6845
12310TIP3   OH258344   0.789   3.319  12.123 -0.4934  0.1741 -0.0262
12310TIP3    H158345   0.773   3.328  12.029 -0.2749  1.9411  0.0841
12310TIP3    H258346   0.884   3.330  12.131 -0.1449 -2.6319  0.1354
12311TIP3   OH258347   2.571   3.750  11.330 -0.0410 -0.3187 -0.2567
12311TIP3    H158348   2.480   3.756  11.358  0.2832  0.2101  0.7014
12311TIP3    H258349   2.598   3.840  11.316  0.3027 -0.4819 -0.6330
12312TIP3   OH258350   5.502   1.948  16.782 -0.2056 -0.0430 -0.1322
12312TIP3    H158351   5.567   1.890  16.743  0.7046 -0.4529  1.9221
12312TIP3    H258352   5.552   2.025  16.811 -0.7697  0.0136  0.7076
12313TIP3   OH258353   1.649   5.893   5.503  0.0087 -0.5464  0.1619
12313TIP3    H158354   1.559   5.868   5.481  0.1615 -1.3319  0.4239
12313TIP3    H258355   1.684   5.930   5.422  0.0931 -2.0697 -0.4962
12314TIP3   OH258356   0.849   5.146   2.791  0.1925  0.5541  0.5786
12314TIP3    H158357   0.782   5.212   2.807 -0.4870 -0.3874  1.6569
12314TIP3    H258358   0.813   5.091   2.722  0.4191  0.8375  0.2345
12315TIP3   OH258359   0.014   0.087   4.934  0.1813  0.2425 -0.5792
12315TIP3    H158360  -0.002   0.076   4.841 -0.5703  2.3744 -0.7399
12315TIP3    H258361   0.079   0.157   4.940 -0.0376  0.3773  0.4840
12316TIP3   OH258362   3.401   3.464  11.043 -0.0088 -0.8798  0.1970
12316TIP3    H158363   3.309   3.489  11.039 -0.2929 -1.6452  1.6681
12316TIP3    H258364   3.407   3.385  10.987 -0.1134 -0.4885 -0.3731
12317TIP3   OH258365   4.252   3.754   2.338  0.5578  0.4219  0.3824
12317TIP3    H158366   4.294   3.787   2.417  0.3543 -0.2355  0.7732
12317TIP3    H258367   4.232   3.832   2.286 -2.3845  1.1730  2.5173
12318TIP3   OH258368   3.065   2.649  13.356 -0.3844 -0.0517  0.0533
12318TIP3    H158369   3.066   2.744  13.368 -0.8249  0.0428 -0.6622
12318TIP3    H258370   3.062   2.614  13.445 -1.3679  0.6191  0.2927
12319TIP3   OH258371   2.267   2.548   5.439 -0.8894 -0.4384  0.1696
12319TIP3    H158372   2.323   2.502   5.501  0.5828 -0.4256 -1.1139
12319TIP3    H258373   2.241   2.480   5.376 -0.0727  0.1242 -0.7832
12320TIP3   OH258374   2.999   4.719   3.839 -0.2485 -0.2953 -0.0612
12320TIP3    H158375   2.985   4.626   3.823 -0.6654 -0.1598 -0.4855
12320TIP3    H258376   2.924   4.763   3.799 -0.2258  0.2024  0.4229
12321TIP3   OH258377   0.177   1.160  13.510 -0.3067 -0.9382 -0.0180
12321TIP3    H158378   0.189   1.068  13.532 -3.2399 -0.9218  1.9410
12321TIP3    H258379   0.090   1.164  13.471 -1.1904  1.2990  2.0413
12322TIP3   OH258380   5.547   0.130  15.652 -0.0663 -0.0090  0.0341
12322TIP3    H158381   5.616   0.064  15.645  0.8942  0.9155  0.6572
12322TIP3    H258382   5.472   0.081  15.686 -0.3654 -1.4465 -2.5543
12323TIP3   OH258383   2.426   4.407  13.870 -0.2189 -0.2438 -0.2089
12323TIP3    H158384   2.449   4.474  13.935 -0.3179  0.6756 -1.1074
12323TIP3    H258385   2.411   4.328  13.921  0.7115  0.2139  0.8030
12324TIP3   OH258386   4.065   5.482  10.833 -0.5674 -0.3331  0.0432
12324TIP3    H158387   4.145   5.474  10.780 -0.2848  2.0444  0.0456
12324TIP3    H258388   3.997   5.440  10.781  0.1846 -0.1174 -1.1295
12325TIP3   OH258389   0.504   5.729  11.682 -0.0679 -0.2798  0.2501
12325TIP3    H158390   0.557   5.658  11.718 -0.6750 -0.8965 -0.0805
12325TIP3    H258391   0.494   5.707  11.589  2.6871  2.0232 -0.6557
12326TIP3   OH258392   4.499   5.091  15.734 -0.5183  0.0763 -0.4202
12326TIP3    H158393   4.481   5.167  15.679 -1.6587 -0.1393 -0.3563
12326TIP3    H258394   4.579   5.054  15.698 -1.4803 -0.3264 -2.2157
12327TIP3   OH258395   5.571   3.596   0.335  0.6520  0.2398 -0.0688
12327TIP3    H158396   5.549   3.503   0.338 -0.1467  0.4465  3.6593
12327TIP3    H258397   5.486   3.640   0.326  1.1004  0.6227 -2.7080
12328TIP3   OH258398   1.521   5.073   4.019 -0.0399 -0.1843 -0.4451
12328TIP3    H158399   1.486   4.984   4.020  1.8392 -0.9524  0.2082
12328TIP3    H258400   1.507   5.103   3.929  1.0015 -1.8497 -1.1924
12329TIP3   OH258401   3.354   5.895  16.567 -0.1109  0.0971 -0.1680
12329TIP3    H158402   3.289   5.870  16.501 -1.1220 -0.9790  1.1868
12329TIP3    H258403   3.367   5.814  16.618  0.3897  0.9926  1.1390
12330TIP3   OH258404   3.384   5.077   0.848 -0.6360 -0.0815  0.1090
12330TIP3    H158405   3.299   5.042   0.876 -0.9580  0.0927 -0.6601
12330TIP3    H258406   3.363   5.160   0.805 -0.0513  0.0776  0.1249
12331TIP3   OH258407   2.468   2.252  14.572  0.3574 -0.1077 -0.0467
12331TIP3    H158408   2.425   2.305  14.504 -1.7649  0.2497  1.5326
12331TIP3    H258409   2.561   2.256  14.550 -0.0761  1.8208 -1.6675
12332TIP3   OH258410   2.534   0.262   6.352 -0.0078 -0.4171 -0.0716
12332TIP3    H158411   2.587   0.185   6.370  0.5051  0.1510  0.9157
12332TIP3    H258412   2.488   0.242   6.270 -1.2824 -2.5109  1.1203
12333TIP3   OH258413   0.413   3.514   3.689  0.8145  0.7021  1.2337
12333TIP3    H158414   0.359   3.462   3.630  0.3933  1.9785  0.4619
12333TIP3    H258415   0.426   3.459   3.766  0.6342 -0.6380  0.3118
12334TIP3   OH258416   0.306   3.217  10.682 -0.0740 -0.4007 -0.1962
12334TIP3    H158417   0.389   3.218  10.635 -0.5009  0.4005 -0.9447
12334TIP3    H258418   0.306   3.134  10.729  1.1402 -0.4141 -0.2074
12335TIP3   OH258419   6.341   4.022  14.620 -0.2831 -0.3090 -0.9642
12335TIP3    H158420   6.420   4.073  14.605  0.4340 -1.2587 -0.5059
12335TIP3    H258421   6.364   3.933  14.592 -0.4674 -1.0582  1.1525
12336TIP3   OH258422   2.082   2.609  16.534  0.5398 -0.0535 -0.6133
12336TIP3    H158423   2.085   2.682  16.472 -0.5463  0.0302 -0.5733
12336TIP3    H258424   2.122   2.536  16.487  0.4382  0.2191 -1.1262
12337TIP3   OH258425   5.228   4.613  14.732 -0.4842  0.1151  0.4430
12337TIP3    H158426   5.313   4.613  14.688  0.5141 -0.0304  2.3113
12337TIP3    H258427   5.174   4.556  14.679  0.4313  0.5849 -1.0441
12338TIP3   OH258428   1.125   3.530  14.934 -0.8408  0.1110 -0.4174
12338TIP3    H158429   1.111   3.624  14.944  0.8645  0.3076  0.4058
12338TIP3    H258430   1.104   3.512  14.843 -0.3479  1.4608 -0.8097
12339TIP3   OH258431   1.753   0.195   2.234 -0.2886  0.4725  0.5884
12339TIP3    H158432   1.799   0.211   2.317 -1.3502 -0.6543  1.4181
12339TIP3    H258433   1.745   0.100   2.229 -2.9829  0.6301  0.7575
12340TIP3   OH258434   4.810   0.325  13.014  0.0519  0.4877 -0.5872
12340TIP3    H158435   4.896   0.340  12.976 -0.1677  0.2331 -1.1832
12340TIP3    H258436   4.765   0.410  13.005 -0.8501 -0.2017 -3.0915
12341TIP3   OH258437   5.387   0.294  13.654  0.4706  0.6365  0.4934
12341TIP3    H158438   5.466   0.346  13.670  0.4845  1.1391 -1.0990
12341TIP3    H258439   5.355   0.325  13.569 -2.5462  1.8336  1.9985
12342TIP3   OH258440   3.333   0.201   1.119 -0.0272 -0.5571  0.6288
12342TIP3    H158441   3.365   0.183   1.030  1.8731 -0.9614  1.3668
12342TIP3    H258442   3.282   0.281   1.110  0.2356 -0.5265 -0.8195
12343TIP3   OH258443   0.729   3.949   3.361  0.0190  0.3285  0.8080
12343TIP3    H158444   0.753   3.899   3.283 -0.5312  0.0604  0.8103
12343TIP3    H258445   0.786   3.916   3.430  0.2548  0.3099  0.6034
12344TIP3   OH258446   6.010   4.902  11.189  0.1607  0.1057  0.3562
12344TIP3    H158447   6.006   4.968  11.121 -0.5267 -2.0386 -1.7696
12344TIP3    H258448   5.920   4.895  11.222 -0.6805 -2.5344 -2.2574
12345TIP3   OH258449   6.586   1.530  13.757  0.2142 -0.5076 -0.3696
12345TIP3    H158450   6.676   1.560  13.749  0.0533  0.4752  1.3495
12345TIP3    H258451   6.534   1.605  13.728 -0.0693 -1.2560 -1.8822
12346TIP3   OH258452   6.167   2.087  11.691 -0.6544  0.3473  0.2359
12346TIP3    H158453   6.161   2.128  11.777  0.2095  0.4869  0.2322
12346TIP3    H258454   6.118   2.145  11.633 -1.0169  0.3903  0.5843
12347TIP3   OH258455   6.353   6.011   3.865 -0.3151 -0.0271 -0.2674
12347TIP3    H158456   6.277   6.036   3.812 -0.5514  0.1383  0.1448
12347TIP3    H258457   6.326   6.029   3.955  0.5499  0.9169 -0.1851
12348TIP3   OH258458   3.287   5.096   3.411 -0.1143  0.3738  0.1800
12348TIP3    H158459   3.235   5.120   3.334 -0.0412  0.9158  0.2975
12348TIP3    H258460   3.375   5.079   3.376 -0.4523 -0.9393 -0.0778
12349TIP3   OH258461   6.613   4.483   4.720  0.2940 -0.8634 -0.4074
12349TIP3    H158462   6.685   4.462   4.660  0.1147 -0.9894 -0.5784
12349TIP3    H258463   6.611   4.409   4.781  0.1622 -0.9693 -0.5405
12350TIP3   OH258464   4.926   6.264   5.763 -0.2888 -0.1277  0.1974
12350TIP3    H158465   5.011   6.221   5.765 -1.0152 -1.6262 -0.5934
12350TIP3    H258466   4.862   6.192   5.762 -1.5552  0.9709  0.1996
12351TIP3   OH258467   0.122   1.107   5.472 -0.7518 -0.0077 -0.5785
12351TIP3    H158468   0.069   1.181   5.445 -1.8710 -0.4856  0.2898
12351TIP3    H258469   0.151   1.067   5.389 -0.1946  1.3290 -1.0456
12352TIP3   OH258470   1.452   5.713  13.388  0.9068 -0.0063  0.6090
12352TIP3    H158471   1.453   5.770  13.465 -1.4974  0.3421  0.4057
12352TIP3    H258472   1.418   5.629  13.419 -1.3210  0.5272 -0.3093
12353TIP3   OH258473   1.367   2.349  12.769 -0.2211 -0.1932  0.4140
12353TIP3    H158474   1.298   2.396  12.722 -1.2053  0.3529  2.3559
12353TIP3    H258475   1.359   2.258  12.740 -0.4960  0.2077 -0.8089
12354TIP3   OH258476   3.395   2.781  11.554  0.0319 -0.2593 -0.4889
12354TIP3    H158477   3.472   2.817  11.509 -0.1094  1.3771  0.5352
12354TIP3    H258478   3.377   2.699  11.508  0.4140  0.9387 -2.8606
12355TIP3   OH258479   2.108   4.016  11.429  0.1586 -0.4324  0.1873
12355TIP3    H158480   2.057   4.057  11.360 -1.5043 -1.0768  0.9846
12355TIP3    H258481   2.160   4.087  11.467  1.1708 -0.0993 -1.7653
12356TIP3   OH258482   6.524   1.531  14.022  0.0373 -0.4464 -0.1728
12356TIP3    H158483   6.505   1.616  14.062  1.1064  0.1155 -0.8155
12356TIP3    H258484   6.524   1.549  13.928  1.0418 -0.9730 -0.2827
12357TIP3   OH258485   4.341   0.342  12.476  0.3618 -0.2265  0.4429
12357TIP3    H158486   4.398   0.306  12.544 -1.0534  0.8298  2.2370
12357TIP3    H258487   4.343   0.437  12.491 -3.0336 -0.2684  1.5223
12358TIP3   OH258488   1.706   4.913  16.455  0.2348  0.1110  0.5940
12358TIP3    H158489   1.623   4.877  16.421  0.4172 -1.1509  1.4336
12358TIP3    H258490   1.720   4.993  16.404 -1.4852  0.3210  0.4070
12359TIP3   OH258491   5.933   3.319  11.003  0.2732 -0.3774  0.3289
12359TIP3    H158492   6.011   3.277  10.967  0.6167  1.9800 -1.8379
12359TIP3    H258493   5.860   3.279  10.955  0.5154  0.5952 -0.8881
12360TIP3   OH258494   2.999   1.475  16.101 -0.1686  0.5239  0.2946
12360TIP3    H158495   3.019   1.407  16.166 -1.5136 -0.5561 -0.3841
12360TIP3    H258496   3.085   1.506  16.072  0.4522  0.1232  1.6559
12361TIP3   OH258497   5.468   5.165   1.859 -0.0211 -0.8577 -0.4296
12361TIP3    H158498   5.530   5.210   1.802  0.2900 -1.8941 -0.9224
12361TIP3    H258499   5.404   5.232   1.884 -0.2142 -0.4126 -2.0827
12362TIP3   OH258500   2.637   3.687  10.964 -0.0615  0.0108 -0.2181
12362TIP3    H158501   2.723   3.644  10.965  0.0681  0.2560 -0.8667
12362TIP3    H258502   2.578   3.622  10.924 -0.6745 -1.0818  2.3546
12363TIP3   OH258503   0.052   4.894  12.440 -0.0085 -0.2679 -0.2048
12363TIP3    H158504  -0.013   4.851  12.495 -0.4420  4.2579  3.0738
12363TIP3    H258505   0.136   4.877  12.483  0.0941  0.2463 -0.2011
12364TIP3   OH258506   2.429   2.734   5.318  0.8432 -0.1548 -0.1498
12364TIP3    H158507   2.365   2.675   5.359 -1.5794  1.5134 -1.4265
12364TIP3    H258508   2.459   2.790   5.389  0.2656 -0.3921  0.2845
12365TIP3   OH258509   4.075   6.741  13.538  0.2050 -0.2428  0.0710
12365TIP3    H158510   4.161   6.701  13.544  0.8349  0.8455 -1.3714
12365TIP3    H258511   4.045   6.722  13.449 -1.6961 -1.8896  1.0287
12366TIP3   OH258512   5.108   1.639  16.461 -0.9669  0.2782 -0.2421
12366TIP3    H158513   5.117   1.586  16.540  1.2850 -1.3867 -1.5795
12366TIP3    H258514   5.177   1.705  16.469 -1.5592  0.8985 -0.2214
12367TIP3   OH258515   4.255   2.600  15.376 -0.3389 -0.0946  0.1378
12367TIP3    H158516   4.334   2.549  15.356  0.2052  0.4376  0.9281
12367TIP3    H258517   4.252   2.603  15.472 -0.3301  1.4306  0.0966
12368TIP3   OH258518   1.039   4.746  11.101 -0.3694  0.4131  0.6056
12368TIP3    H158519   1.135   4.748  11.101 -0.3308 -0.4568 -0.9935
12368TIP3    H258520   1.016   4.707  11.185  0.6531  1.3777  1.3425
12369TIP3   OH258521   6.657   4.093  15.111 -0.1124 -0.7633  0.3963
12369TIP3    H158522   6.624   4.086  15.021  0.5699  0.0742  0.0756
12369TIP3    H258523   6.632   4.181  15.138 -0.6351 -1.1477  1.1618
12370TIP3   OH258524   4.395   2.221  14.501  0.3157 -0.1262 -1.0000
12370TIP3    H158525   4.316   2.214  14.554  0.7919 -1.3495 -0.4416
12370TIP3    H258526   4.466   2.199  14.561  1.1261  1.4252 -1.3729
12371TIP3   OH258527   5.444   5.708  11.794  0.0477 -0.3772 -0.2542
12371TIP3    H158528   5.470   5.653  11.720  1.1665 -0.2515  0.0298
12371TIP3    H258529   5.444   5.649  11.870 -0.3897 -0.3506 -0.2323
12372TIP3   OH258530   5.049   1.859   1.712 -0.3120 -1.0104  0.3556
12372TIP3    H158531   5.121   1.806   1.678 -0.9340 -1.9722  0.5212
12372TIP3    H258532   4.973   1.832   1.661 -0.6462 -0.2993  0.4662
12373TIP3   OH258533   2.089   1.885  14.186  0.0931 -0.2566  0.5444
12373TIP3    H158534   2.164   1.840  14.226 -0.2460 -3.2009 -1.9335
12373TIP3    H258535   2.129   1.953  14.131  1.0614 -2.2520 -1.3018
12374TIP3   OH258536   4.545   3.482   4.375 -0.0705 -0.6327  0.1273
12374TIP3    H158537   4.562   3.570   4.410 -1.1330 -0.2209 -0.3805
12374TIP3    H258538   4.483   3.443   4.436 -1.1868 -0.2643 -0.7529
12375TIP3   OH258539   0.228   4.077   0.675 -0.6135 -0.3712  0.1506
12375TIP3    H158540   0.274   4.017   0.616 -0.0119  0.3253 -0.1037
12375TIP3    H258541   0.293   4.098   0.742 -1.8937 -2.6633  2.1795
12376TIP3   OH258542   4.873   2.363   4.637 -0.2056 -0.0434  0.0325
12376TIP3    H158543   4.788   2.331   4.668  0.1590 -0.7248  0.3359
12376TIP3    H258544   4.894   2.309   4.562  0.9709 -1.3414  1.2639
12377TIP3   OH258545   3.156   0.061   3.918 -0.7363 -0.5209  0.1779
12377TIP3    H158546   3.238   0.047   3.964 -0.3947  1.3860  0.1871
12377TIP3    H258547   3.100   0.108   3.981 -1.5734 -1.1687 -0.0698
12378TIP3   OH258548   1.618   1.588   2.792 -0.0030 -0.0065  0.3611
12378TIP3    H158549   1.575   1.503   2.797  0.3284 -0.2957 -1.5939
12378TIP3    H258550   1.711   1.569   2.809  0.4000 -0.3431 -2.1306
12379TIP3   OH258551   2.076   3.171  13.912 -0.0921 -0.1152 -0.1293
12379TIP3    H158552   2.053   3.239  13.976  0.7268 -0.2038  0.2683
12379TIP3    H258553   2.022   3.096  13.936 -1.5623  0.6386 -1.0394
12380TIP3   OH258554   3.075   0.435   2.590 -0.5861 -0.3089  0.4035
12380TIP3    H158555   3.069   0.340   2.593 -0.2009 -0.4155 -1.6985
12380TIP3    H258556   2.992   0.466   2.626 -0.6616 -1.4160  1.2042
12381TIP3   OH258557   4.307   4.721   0.054 -0.2379 -0.3278  0.0876
12381TIP3    H158558   4.341   4.632   0.052 -0.0646 -0.2435 -2.3385
12381TIP3    H258559   4.236   4.721  -0.011 -0.0432  1.3705 -0.1500
12382TIP3   OH258560   3.047   0.039   0.505 -0.1851 -0.3306  0.3628
12382TIP3    H158561   2.973   0.066   0.559 -0.0966 -0.5976  0.6206
12382TIP3    H258562   3.012   0.035   0.416 -0.1585  0.7603  0.3017
12383TIP3   OH258563   4.440   2.391  14.045 -0.3282 -0.0874 -0.5039
12383TIP3    H158564   4.421   2.329  13.975 -0.9479 -0.1822 -0.2527
12383TIP3    H258565   4.474   2.336  14.116 -0.9510 -0.1447 -0.2532
12384TIP3   OH258566   4.263   0.775   4.129  0.2233  0.6889 -0.2614
12384TIP3    H158567   4.309   0.741   4.206 -1.6652 -1.3496  0.0041
12384TIP3    H258568   4.200   0.837   4.165 -0.5223 -0.1151 -0.1619
12385TIP3   OH258569   2.752   2.167   5.158  0.2979  0.3415 -0.1621
12385TIP3    H158570   2.777   2.091   5.210  2.4216  0.7090 -0.6247
12385TIP3    H258571   2.770   2.242   5.214  1.0940  0.6612 -0.8365
12386TIP3   OH258572   4.996   2.446   1.607 -0.2665  0.9605  0.4398
12386TIP3    H158573   4.911   2.417   1.573 -0.4414  1.5326  0.3873
12386TIP3    H258574   5.022   2.518   1.550  0.7860  0.0710 -0.2288
12387TIP3   OH258575   2.640   3.337   1.026  0.2119  0.2086  0.2670
12387TIP3    H158576   2.573   3.307   0.965  1.0251  0.5457 -0.7986
12387TIP3    H258577   2.697   3.394   0.974  1.9076 -0.8692  0.9218
12388TIP3   OH258578   4.045   5.206   5.403  0.0139  0.0097 -0.5321
12388TIP3    H158579   4.046   5.300   5.390 -0.6976  0.1158  0.1418
12388TIP3    H258580   4.015   5.194   5.493  0.8529 -0.8356 -0.3545
12389TIP3   OH258581   2.415   6.051   4.000 -0.4408 -0.1346 -0.4098
12389TIP3    H158582   2.440   6.105   4.075 -0.5427  0.5822 -0.8906
12389TIP3    H258583   2.365   5.979   4.038 -0.5686  0.2745  0.2013
12390TIP3   OH258584   5.719   6.670   3.247 -0.3958  0.0114 -0.2481
12390TIP3    H158585   5.799   6.652   3.196  0.4108  0.2505  0.9014
12390TIP3    H258586   5.670   6.589   3.243  1.3299 -1.1649  1.5326
12391TIP3   OH258587   1.899   4.168  12.858  0.4672  0.2845 -0.4871
12391TIP3    H158588   1.898   4.234  12.789 -3.0413 -0.2685 -1.0467
12391TIP3    H258589   1.858   4.091  12.820 -0.5550 -0.3982  1.8607
12392TIP3   OH258590   4.975   2.541  16.271  0.4779  1.0104  0.5283
12392TIP3    H158591   4.925   2.562  16.350  1.6889 -0.3070  1.6623
12392TIP3    H258592   5.035   2.471  16.298 -2.2702 -2.8241 -2.6402
12393TIP3   OH258593   2.669   5.945   5.017  0.0086  0.1862 -0.9469
12393TIP3    H158594   2.680   5.850   5.010 -0.7519  0.1092 -1.1367
12393TIP3    H258595   2.733   5.972   5.083 -1.1122 -0.7141  0.5211
12394TIP3   OH258596   3.057   1.067   0.192  0.0917 -0.5026  0.1594
12394TIP3    H158597   3.039   1.050   0.285 -0.1433  0.2448  0.2576
12394TIP3    H258598   3.144   1.031   0.177 -0.4273 -1.8485  0.3311
12395TIP3   OH258599   3.590   1.053  15.625  0.7247  0.0859  0.8653
12395TIP3    H158600   3.565   1.144  15.642  0.4361  0.1419  0.1775
12395TIP3    H258601   3.656   1.060  15.556 -0.6806 -0.3255 -0.5617
12396TIP3   OH258602   5.926   4.942  14.264 -0.5650 -0.0622 -0.2677
12396TIP3    H158603   5.977   4.901  14.195 -3.4951  3.7026 -5.0075
12396TIP3    H258604   5.978   5.019  14.289  0.5259 -1.4564  1.8963
12397TIP3   OH258605   1.619   2.586   3.086  0.1487  0.0078 -0.2034
12397TIP3    H158606   1.700   2.558   3.128  0.0359 -0.9747 -0.6388
12397TIP3    H258607   1.626   2.556   2.996 -1.1081 -0.9212 -0.0008
12398TIP3   OH258608   5.566   4.129  12.721 -0.5273 -0.6789  0.4560
12398TIP3    H158609   5.598   4.045  12.688  0.6081  0.0184 -0.2557
12398TIP3    H258610   5.603   4.135  12.809 -0.3268 -0.7697  0.3788
12399TIP3   OH258611   4.981   6.114   1.898 -0.6794 -0.3746  0.5305
12399TIP3    H158612   4.929   6.185   1.937 -1.5628 -0.9805  0.4715
12399TIP3    H258613   4.916   6.055   1.860  0.1165 -0.4229 -0.7975
12400TIP3   OH258614   2.324   1.215   0.888 -0.4192  0.3924  0.1615
12400TIP3    H158615   2.297   1.259   0.808 -0.5301  1.7405  0.9310
12400TIP3    H258616   2.384   1.147   0.859 -3.6165 -1.8756 -1.4837
12401TIP3   OH258617   2.846   4.026  14.332 -0.0114 -0.5224 -0.1781
12401TIP3    H158618   2.937   4.034  14.360 -0.8340  0.1040  2.4756
12401TIP3    H258619   2.837   4.090  14.262  0.8178  1.6250  1.6190
12402TIP3   OH258620   5.956   4.273  12.043 -0.1957 -0.5307  0.9723
12402TIP3    H158621   5.904   4.235  11.973  2.5817 -0.6186 -1.0985
12402TIP3    H258622   5.935   4.367  12.040 -0.9156 -0.6939  0.7923
12403TIP3   OH258623   3.771   0.466  11.500  0.6173 -0.1152 -0.3088
12403TIP3    H158624   3.802   0.464  11.591  2.1263  1.3189 -0.7925
12403TIP3    H258625   3.834   0.413  11.452  0.5265  0.1674 -0.7413
12404TIP3   OH258626   5.524   4.109   5.809 -0.0273 -0.2025  0.9185
12404TIP3    H158627   5.437   4.136   5.839 -1.3666 -3.1355 -0.0622
12404TIP3    H258628   5.585   4.163   5.858 -2.3706  0.7942  2.8287
12405TIP3   OH258629   1.665   4.637  11.857  0.1738 -0.0723  0.0347
12405TIP3    H158630   1.712   4.554  11.856  1.0094  0.3798  0.5322
12405TIP3    H258631   1.709   4.690  11.791 -0.6422 -0.1831 -0.5907
12406TIP3   OH258632   2.560   0.896   1.829  0.1158  0.0889 -0.5962
12406TIP3    H158633   2.500   0.969   1.844 -1.9383 -1.4699 -1.1143
12406TIP3    H258634   2.523   0.848   1.755  2.3815 -0.5223 -1.3859
12407TIP3   OH258635   0.521   6.030  16.411 -0.6365 -0.1098 -0.1047
12407TIP3    H158636   0.527   5.992  16.498  0.2553  0.3436  0.0371
12407TIP3    H258637   0.488   6.119  16.426 -0.9215 -0.1910 -0.2656
12408TIP3   OH258638   5.733   4.090  16.941 -0.3717 -0.3585 -0.5414
12408TIP3    H158639   5.744   4.054  16.853  0.8718 -0.6092 -0.3042
12408TIP3    H258640   5.745   4.014  16.999  1.3473  0.2469 -0.0752
12409TIP3   OH258641   2.695   2.468  14.421  0.3092 -0.4169  0.2982
12409TIP3    H158642   2.739   2.550  14.442  0.5098 -0.4797  0.1278
12409TIP3    H258643   2.671   2.476  14.329 -1.2505  0.1657  0.7338
12410TIP3   OH258644   0.739   1.145  16.215  0.2791  0.6826  0.4727
12410TIP3    H158645   0.789   1.096  16.150  0.2231  2.1393 -0.6907
12410TIP3    H258646   0.800   1.208  16.251 -0.0199  0.6961  0.9707
12411TIP3   OH258647   2.074   5.625  11.793 -0.0285 -0.0666  0.0638
12411TIP3    H158648   1.984   5.656  11.795 -0.5096 -1.4886  1.4884
12411TIP3    H258649   2.091   5.591  11.881  0.9841 -2.2743 -0.9200
12412TIP3   OH258650   3.198   5.128  15.732  0.3082  1.3649  0.2223
12412TIP3    H158651   3.134   5.180  15.780 -2.1408 -3.2431  2.3135
12412TIP3    H258652   3.258   5.095  15.798 -1.3331 -2.6413 -0.1334
12413TIP3   OH258653   4.799   0.490  15.559 -0.5264  0.3760  0.2785
12413TIP3    H158654   4.811   0.565  15.617  0.7888 -0.5845  1.3213
12413TIP3    H258655   4.706   0.490  15.538 -0.8202  1.4195  1.4833
12414TIP3   OH258656   0.273   5.510  14.312  0.2700 -0.1904 -0.3787
12414TIP3    H158657   0.351   5.458  14.294  0.9930  1.3362 -1.7815
12414TIP3    H258658   0.306   5.589  14.356 -0.6101 -0.0478  0.0511
12415TIP3   OH258659   3.217   1.316   3.653  0.0955 -0.2097  0.5569
12415TIP3    H158660   3.187   1.370   3.726 -0.3258  1.1664 -0.5922
12415TIP3    H258661   3.137   1.277   3.618  0.2299 -0.4159  0.4773
12416TIP3   OH258662   1.266   5.278  11.547 -0.4104 -0.6291 -0.0808
12416TIP3    H158663   1.341   5.220  11.559  0.3221  0.5911  1.4563
12416TIP3    H258664   1.299   5.350  11.493 -0.3261  0.1715  1.0309
12417TIP3   OH258665   0.708   5.361  14.561 -0.7116 -0.4062 -0.0270
12417TIP3    H158666   0.653   5.439  14.554 -2.1180 -1.3263  0.5669
12417TIP3    H258667   0.761   5.362  14.481 -1.2562  0.7419 -0.3913
12418TIP3   OH258668   0.912   3.308  12.694  0.0352  0.0600  0.6232
12418TIP3    H158669   0.923   3.213  12.689  0.8344  0.1921 -0.2353
12418TIP3    H258670   0.989   3.338  12.742  0.1439  0.3525  0.2622
12419TIP3   OH258671   2.376   5.319   3.144  0.0964  0.1409  0.2424
12419TIP3    H158672   2.418   5.312   3.058 -3.3310 -1.2440 -1.4268
12419TIP3    H258673   2.353   5.411   3.153 -1.2448 -0.0241 -1.2531
12420TIP3   OH258674   5.606   3.460   2.933 -0.0016  0.1323  0.5261
12420TIP3    H158675   5.626   3.391   2.869  0.1600 -0.5373  1.2863
12420TIP3    H258676   5.511   3.474   2.923  0.0535  0.1452  0.0244
12421TIP3   OH258677   5.972   6.443   0.851  0.8264 -0.7560 -0.3040
12421TIP3    H158678   5.930   6.491   0.923  0.2118 -0.3469 -0.9325
12421TIP3    H258679   6.013   6.510   0.797  0.0610 -0.9378 -1.1236
12422TIP3   OH258680   3.876   5.053   1.632 -0.4372  0.3561  0.0366
12422TIP3    H158681   3.867   5.054   1.536 -2.3252  2.0521  0.2067
12422TIP3    H258682   3.860   5.143   1.658  1.1767  0.1385  1.8991
12423TIP3   OH258683   6.493   0.768  11.992 -0.1338 -0.2324  0.0476
12423TIP3    H158684   6.404   0.799  12.007 -0.0547  0.8345 -1.5912
12423TIP3    H258685   6.543   0.847  11.972  1.0780 -0.8899  0.4147
12424TIP3   OH258686   5.363   2.774   4.992  0.1637  0.9789  0.3954
12424TIP3    H158687   5.412   2.805   4.917 -0.3967  0.7041 -0.0897
12424TIP3    H258688   5.272   2.797   4.972 -0.1912 -0.4865  0.2709
12425TIP3   OH258689   6.415   5.251  13.204  0.0978  0.0543  0.2658
12425TIP3    H158690   6.440   5.330  13.253  0.1834  0.8291 -1.0081
12425TIP3    H258691   6.385   5.284  13.119  0.5476 -1.3102 -0.4383
12426TIP3   OH258692   4.790   0.194  12.399  0.1246 -0.3173  0.6028
12426TIP3    H158693   4.754   0.282  12.412  1.1547  0.3136 -0.7478
12426TIP3    H258694   4.828   0.196  12.311 -1.4838 -2.6750 -0.2222
12427TIP3   OH258695   1.060   5.773  11.989  0.0898 -0.3386 -0.1463
12427TIP3    H158696   1.118   5.741  12.057 -2.1439 -2.3984  0.8589
12427TIP3    H258697   0.999   5.831  12.034  0.2940  0.4712 -0.8912
12428TIP3   OH258698   2.430   5.963  12.271 -0.3981 -0.3842  0.1306
12428TIP3    H158699   2.441   5.880  12.317 -0.3592 -1.4720 -1.8065
12428TIP3    H258700   2.519   5.992  12.253 -0.3266  1.4705  3.1858
12429TIP3   OH258701   0.248   4.310  16.690 -1.1353 -0.3448  0.1223
12429TIP3    H158702   0.169   4.285  16.643 -1.8357 -1.3534  1.7960
12429TIP3    H258703   0.219   4.373  16.756 -0.2833  0.4952 -0.2878
12430TIP3   OH258704   6.619   3.032   2.454  0.5163  0.1057  0.4141
12430TIP3    H158705   6.563   3.090   2.402 -1.7685 -1.4156  1.0694
12430TIP3    H258706   6.593   2.944   2.426  2.3297 -0.6466  1.0434
12431TIP3   OH258707   1.144   0.792  13.467  0.1149 -0.6908  0.4190
12431TIP3    H158708   1.209   0.751  13.524  0.5183 -0.0048  0.4600
12431TIP3    H258709   1.195   0.836  13.400 -0.3349 -0.7555  0.0310
12432TIP3   OH258710   1.460   4.974  14.264 -0.0078  0.2758  0.1212
12432TIP3    H158711   1.540   4.982  14.317  0.5750  0.2564 -0.7547
12432TIP3    H258712   1.448   5.060  14.224  0.2990 -0.0906 -0.7744
12433TIP3   OH258713   1.748   1.273   3.585  0.3752  0.0144 -0.1198
12433TIP3    H158714   1.744   1.362   3.551 -0.5988  0.6211  1.5286
12433TIP3    H258715   1.663   1.235   3.562  0.6707 -0.3929 -0.5473
12434TIP3   OH258716   2.868   3.044  12.338 -0.1400 -0.4817 -0.6182
12434TIP3    H158717   2.877   2.957  12.298 -0.2758 -0.9004  0.2444
12434TIP3    H258718   2.774   3.054  12.352 -0.0187 -0.7083  0.3898
12435TIP3   OH258719   5.178   4.926   1.423 -0.3679  0.2019  0.3276
12435TIP3    H158720   5.120   4.852   1.407  0.1773 -0.2717  0.4969
12435TIP3    H258721   5.204   4.916   1.515  3.5176 -2.1795 -0.9126
12436TIP3   OH258722   2.566   2.452   3.453 -0.0111 -0.4565 -0.3711
12436TIP3    H158723   2.547   2.462   3.360 -1.3805  0.8765  0.0395
12436TIP3    H258724   2.622   2.527   3.474 -1.1178  0.2011  0.2517
12437TIP3   OH258725   0.360   2.333  12.939  0.0631 -0.2839  0.0669
12437TIP3    H158726   0.404   2.371  12.863 -0.0118 -1.3289 -0.5114
12437TIP3    H258727   0.294   2.399  12.963  3.6329  2.5492  2.6240
12438TIP3   OH258728   5.982   0.742  14.748  0.1120  0.8996  0.1757
12438TIP3    H158729   5.939   0.784  14.823  1.7288  2.5378  0.2363
12438TIP3    H258730   5.939   0.779  14.671 -0.7586  0.1078  0.2889
12439TIP3   OH258731   0.567   5.406  16.488  0.5566  0.2997  0.1851
12439TIP3    H158732   0.652   5.449  16.490 -0.7608  3.1282 -1.4018
12439TIP3    H258733   0.540   5.399  16.579  1.5617  1.2769  0.5558
12440TIP3   OH258734   5.183   0.809  13.038 -0.1204 -0.0300  0.2242
12440TIP3    H158735   5.233   0.823  13.118  0.4764 -1.7246  0.1720
12440TIP3    H258736   5.249   0.792  12.971 -0.7284 -1.7447  0.0429
12441TIP3   OH258737   5.191   4.347  10.932  0.0602 -0.9050  0.6648
12441TIP3    H158738   5.122   4.389  10.882 -0.1622  0.1812  1.8664
12441TIP3    H258739   5.255   4.320  10.867 -0.5605 -0.1470 -0.2629
12442TIP3   OH258740   1.448   3.701  13.843  0.1140  0.0878 -0.2445
12442TIP3    H158741   1.474   3.622  13.890 -1.1205  1.0480  2.1560
12442TIP3    H258742   1.500   3.771  13.882  1.4249  0.4376 -2.5677
12443TIP3   OH258743   0.224   5.220   4.694  0.2089  0.7324 -0.1164
12443TIP3    H158744   0.214   5.309   4.661  1.0640  1.0233  0.3996
12443TIP3    H258745   0.317   5.211   4.713 -0.3512  0.8773  3.0097
12444TIP3   OH258746   1.128   5.702  16.979  0.6151 -0.3763 -0.2410
12444TIP3    H158747   1.133   5.703  17.074  1.6645 -0.4536 -0.2844
12444TIP3    H258748   1.218   5.720  16.950 -0.3392  3.1784 -1.2223
12445TIP3   OH258749   5.922   3.721   3.524 -0.2881  0.6963  0.1839
12445TIP3    H158750   5.988   3.764   3.469  1.6610 -0.3423  1.6193
12445TIP3    H258751   5.967   3.706   3.607 -1.4733 -2.3662  0.3550
12446TIP3   OH258752   3.462   4.370  13.560  0.3296 -0.2254  0.0674
12446TIP3    H158753   3.507   4.442  13.515 -1.1297  0.2917 -0.5973
12446TIP3    H258754   3.520   4.348  13.633  2.6314 -0.9502 -1.9357
12447TIP3   OH258755   3.112   1.253  15.896 -0.4950  0.0093  0.0404
12447TIP3    H158756   3.159   1.194  15.956  0.8150 -1.3374 -2.2434
12447TIP3    H258757   3.170   1.329  15.887  0.6769 -1.0608 -1.7251
12448TIP3   OH258758   4.007   5.167   2.376  0.5133  0.1077 -0.3635
12448TIP3    H158759   4.014   5.094   2.437 -0.9605  0.3313  0.0855
12448TIP3    H258760   4.069   5.232   2.410  1.2901 -0.6343 -0.3499
12449TIP3   OH258761   5.782   6.303   4.611  0.2971  0.4404 -0.0296
12449TIP3    H158762   5.840   6.241   4.656 -0.6970 -0.8087 -0.4299
12449TIP3    H258763   5.832   6.384   4.607  1.3254 -0.1089  1.2135
12450TIP3   OH258764   3.332   4.653  16.062  0.8405 -0.5597 -0.2300
12450TIP3    H158765   3.405   4.664  16.001 -0.4806 -2.5026 -2.2377
12450TIP3    H258766   3.254   4.661  16.008 -0.4396  0.6104  1.7449
12451TIP3   OH258767   1.212   4.371   2.410 -0.1893 -0.3331 -0.3545
12451TIP3    H158768   1.277   4.394   2.476 -1.1811  0.6947  0.2736
12451TIP3    H258769   1.154   4.447   2.405 -1.9664 -1.6266 -0.1325
12452TIP3   OH258770   6.569   3.193   2.803  1.0721  0.0109 -0.0149
12452TIP3    H158771   6.504   3.249   2.761 -0.3309 -0.8507  0.9599
12452TIP3    H258772   6.607   3.246   2.873  0.8748  0.2629 -0.1002
12453TIP3   OH258773   1.561   4.239   3.789  0.4482 -0.2361 -0.3718
12453TIP3    H158774   1.546   4.269   3.700  1.4321 -0.0039 -0.4680
12453TIP3    H258775   1.527   4.309   3.845 -0.1386 -0.3682 -0.5608
12454TIP3   OH258776   4.803   1.761   2.382 -0.4786  0.1266 -0.3848
12454TIP3    H158777   4.738   1.690   2.379  0.1833 -0.6509  2.3932
12454TIP3    H258778   4.872   1.733   2.322 -1.6404 -0.0910 -1.6579
12455TIP3   OH258779   5.448   5.958   6.252  0.2182  0.0065  0.2602
12455TIP3    H158780   5.485   5.905   6.182  2.1104  2.6847 -0.8695
12455TIP3    H258781   5.367   5.994   6.214  0.6224  0.4996 -0.1491
12456TIP3   OH258782   4.168   2.113   0.634  0.0816  0.1415  0.1947
12456TIP3    H158783   4.236   2.072   0.687  1.9479  2.2254 -0.5394
12456TIP3    H258784   4.187   2.085   0.544 -0.7118 -0.1733  0.1213
12457TIP3   OH258785   3.532   0.392  12.559 -0.1740 -0.5552  0.0122
12457TIP3    H158786   3.484   0.471  12.537 -0.1910 -0.3414  0.7899
12457TIP3    H258787   3.509   0.375  12.651 -0.6713 -1.8087 -0.3323
12458TIP3   OH258788   0.086   5.328  16.944  0.4719  0.2962  0.1667
12458TIP3    H158789   0.147   5.356  16.876 -0.2641  0.9739 -0.2164
12458TIP3    H258790   0.000   5.360  16.915  0.3022  1.4866  1.9096
12459TIP3   OH258791   3.525   1.110   0.801 -0.1325  0.2400  0.4706
12459TIP3    H158792   3.505   1.203   0.814  2.7478  0.7165  1.9625
12459TIP3    H258793   3.593   1.091   0.866  1.4171 -2.1694 -1.7575
12460TIP3   OH258794   3.931   1.909   0.959  0.7078  0.6635 -0.2479
12460TIP3    H158795   3.938   1.865   1.043 -0.7074  2.1679  0.6967
12460TIP3    H258796   3.917   1.839   0.896 -0.7009 -0.3272  1.1068
12461TIP3   OH258797   5.364   4.749  13.953  0.3266  0.4884 -0.0921
12461TIP3    H158798   5.423   4.680  13.921  0.7066 -0.2473  2.0855
12461TIP3    H258799   5.423   4.819  13.981  0.2663 -0.5048  2.6910
12462TIP3   OH258800   4.513   2.077   5.941 -0.6134  0.2532 -0.2220
12462TIP3    H158801   4.488   2.044   5.855 -2.2573  0.0458  0.3153
12462TIP3    H258802   4.429   2.097   5.984  0.2184  1.3434  0.9350
12463TIP3   OH258803   4.994   6.410  12.814  0.1141  0.3921 -0.0512
12463TIP3    H158804   4.981   6.466  12.737 -0.8852  2.5230  1.6247
12463TIP3    H258805   4.991   6.321  12.779  0.5501  1.3320 -2.6009
12464TIP3   OH258806   1.618   6.755   4.197 -0.5394 -0.0988 -0.2065
12464TIP3    H158807   1.649   6.685   4.254 -0.8447  0.0328  0.1207
12464TIP3    H258808   1.566   6.811   4.254  0.7670  1.1085 -0.1785
12465TIP3   OH258809   1.668   1.423  16.184 -0.7274 -0.5688 -0.7043
12465TIP3    H158810   1.713   1.435  16.268 -1.8538 -3.5539  0.3601
12465TIP3    H258811   1.648   1.512  16.155  0.4828  0.5363  1.7420
12466TIP3   OH258812   2.197   4.981  15.432 -0.1622 -0.1890 -0.1650
12466TIP3    H158813   2.163   4.923  15.364 -0.3447  0.1507 -0.3634
12466TIP3    H258814   2.167   4.943  15.514 -0.1993 -0.4279 -0.2889
12467TIP3   OH258815   0.889   5.753   2.790  0.1402  0.3812  0.2965
12467TIP3    H158816   0.821   5.815   2.817 -0.0270  0.1118  0.5010
12467TIP3    H258817   0.899   5.694   2.865  1.1624  0.8951  0.5734
12468TIP3   OH258818   3.252   2.810   5.312  0.2428 -0.0408  0.3827
12468TIP3    H158819   3.297   2.879   5.261 -0.9028 -0.1962 -0.8636
12468TIP3    H258820   3.317   2.740   5.317  0.3706 -0.0346 -0.9020
12469TIP3   OH258821   2.643   5.651  11.343 -0.0486 -0.0446  0.1311
12469TIP3    H158822   2.629   5.578  11.402 -2.5765  0.8966  0.7653
12469TIP3    H258823   2.694   5.714  11.394 -0.4181 -0.1151  0.5874
12470TIP3   OH258824   2.495   5.439  12.269  0.1470 -0.3666  0.3694
12470TIP3    H158825   2.422   5.474  12.219 -0.8002 -0.7833  1.4618
12470TIP3    H258826   2.471   5.348  12.288  1.3108 -0.7684  0.0312
12471TIP3   OH258827   6.143   3.508   3.292  0.2752  0.0784  0.2650
12471TIP3    H158828   6.212   3.509   3.226 -0.6427 -0.1171 -0.7196
12471TIP3    H258829   6.189   3.512   3.375  1.4844 -0.4079 -0.3689
12472TIP3   OH258830   2.332   2.911   2.784  0.4825  0.5092  0.6237
12472TIP3    H158831   2.378   2.986   2.746  2.6756 -1.1202 -0.0319
12472TIP3    H258832   2.286   2.871   2.710 -0.6826  1.1510  0.9735
12473TIP3   OH258833   1.152   0.675  14.973 -0.0968 -0.5083  0.1027
12473TIP3    H158834   1.194   0.589  14.968  0.3067 -0.2759 -0.7807
12473TIP3    H258835   1.128   0.685  15.065  0.7635 -1.1357  0.4066
12474TIP3   OH258836   0.192   0.885  13.929  0.0728 -0.3993  0.3355
12474TIP3    H158837   0.278   0.893  13.971  0.7011  0.9952 -1.1756
12474TIP3    H258838   0.150   0.970  13.943 -0.9527 -0.9576  0.7681
12475TIP3   OH258839   4.505   2.051   0.161 -0.9042  0.3362 -0.2434
12475TIP3    H158840   4.477   2.093   0.242 -1.2344 -0.0689 -0.1472
12475TIP3    H258841   4.467   2.105   0.092 -1.9359 -0.2193 -0.1129
12476TIP3   OH258842   4.201   3.799   5.297 -0.1429 -0.0027 -0.7390
12476TIP3    H158843   4.130   3.771   5.354  1.7206 -0.2599  1.5809
12476TIP3    H258844   4.228   3.885   5.332  1.6678 -0.6077 -0.5663
12477TIP3   OH258845   6.546   4.325  15.546 -0.1263 -1.1980 -0.0156
12477TIP3    H158846   6.462   4.285  15.569  0.0931 -2.0379 -0.6048
12477TIP3    H258847   6.536   4.417  15.567 -2.2378 -0.7320 -2.8337
12478TIP3   OH258848   0.692   1.300  11.758 -0.0826 -0.2570  0.3644
12478TIP3    H158849   0.723   1.389  11.737  0.8575 -0.6226  0.1806
12478TIP3    H258850   0.635   1.277  11.685  0.5254 -0.2164 -0.1288
12479TIP3   OH258851   5.239   3.238  11.712  0.2922  0.4496  0.2297
12479TIP3    H158852   5.158   3.270  11.752  0.4581 -0.0987  1.0096
12479TIP3    H258853   5.229   3.143  11.708  0.9209  0.3709  0.3876
12480TIP3   OH258854   6.675   2.461   1.121 -0.6063 -0.2285  0.6567
12480TIP3    H158855   6.674   2.518   1.197  0.7049  1.5847 -0.6330
12480TIP3    H258856   6.760   2.479   1.079 -1.9918  0.0640 -2.1396
12481TIP3   OH258857   2.469   6.344   1.753  0.7416 -0.4575  0.2348
12481TIP3    H158858   2.563   6.334   1.737  1.0104  2.5154 -0.4167
12481TIP3    H258859   2.427   6.293   1.685  1.8653 -2.5249  1.0407
12482TIP3   OH258860   6.080   6.588   3.845 -0.4024  0.3509 -0.1764
12482TIP3    H158861   6.075   6.504   3.893 -0.1651  1.0052  1.0180
12482TIP3    H258862   6.173   6.605   3.836 -0.4290 -0.3918 -2.0176
12483TIP3   OH258863   3.734   6.146  13.893  0.2462  0.3177  0.2190
12483TIP3    H158864   3.659   6.128  13.950 -0.7738 -0.5407 -1.3851
12483TIP3    H258865   3.717   6.234  13.859 -0.0470  0.0978 -0.1931
12484TIP3   OH258866   1.280   1.737  11.734 -0.1935 -0.6257  0.4214
12484TIP3    H158867   1.315   1.813  11.688 -0.7491 -0.8424 -0.3498
12484TIP3    H258868   1.218   1.774  11.798 -0.8638 -0.4723 -0.3179
12485TIP3   OH258869   0.041   5.067   3.877  0.5719 -0.2133 -0.2011
12485TIP3    H158870   0.032   5.139   3.940 -1.2188  1.8545 -2.7261
12485TIP3    H258871   0.134   5.065   3.855  0.7377  0.8911  0.3879
12486TIP3   OH258872   3.890   6.172  16.140 -0.0476 -0.2006 -0.7036
12486TIP3    H158873   3.872   6.148  16.231  0.5633 -0.2709 -0.6011
12486TIP3    H258874   3.972   6.127  16.119  0.6677  1.1104 -0.7709
12487TIP3   OH258875   0.403   6.763   2.997 -0.3023 -0.1590  0.3985
12487TIP3    H158876   0.404   6.858   2.993 -0.0781 -0.2082 -0.8581
12487TIP3    H258877   0.334   6.737   2.936 -0.2998 -0.8039  0.6617
12488TIP3   OH258878   3.607   6.346  14.789 -0.5860  0.0853  0.1143
12488TIP3    H158879   3.588   6.279  14.854 -0.7443  1.4870  1.5372
12488TIP3    H258880   3.649   6.299  14.717 -1.2436 -1.6200  0.8259
12489TIP3   OH258881   4.695   4.752   3.184  0.7281 -0.2356 -0.5256
12489TIP3    H158882   4.741   4.809   3.123 -0.1653  0.1992 -0.8068
12489TIP3    H258883   4.657   4.812   3.249 -0.3161 -0.4859 -0.8886
12490TIP3   OH258884   3.967   1.999   4.350 -0.4213 -0.1853 -0.8336
12490TIP3    H158885   3.987   2.060   4.280 -0.3367  0.2634 -0.4172
12490TIP3    H258886   3.872   1.989   4.348 -0.5833  1.1268  0.0759
12491TIP3   OH258887   3.950   6.072   4.964 -0.1414  0.4321 -0.0313
12491TIP3    H158888   3.898   6.079   4.884 -2.8885 -3.1356  1.3483
12491TIP3    H258889   4.041   6.070   4.933 -1.0768  0.6629 -2.9204
12492TIP3   OH258890   3.660   1.573   1.462  0.1576 -0.3171  0.3169
12492TIP3    H158891   3.573   1.545   1.494  0.8015 -0.4948  1.9759
12492TIP3    H258892   3.710   1.492   1.456  0.3786 -0.1492 -0.0931
12493TIP3   OH258893   0.154   4.402  16.119  0.1962  0.2971 -0.2943
12493TIP3    H158894   0.174   4.484  16.074 -2.2542  0.9834 -0.1888
12493TIP3    H258895   0.195   4.411  16.205  2.2053  0.2744 -1.2008
12494TIP3   OH258896   2.463   6.385  15.731 -0.0886  0.0671 -0.1571
12494TIP3    H158897   2.410   6.408  15.807  0.4596  0.2156  0.1871
12494TIP3    H258898   2.451   6.458  15.670 -0.3058  0.0827 -0.0960
12495TIP3   OH258899   4.747   5.947  16.718  0.1234 -0.1665 -0.2553
12495TIP3    H158900   4.741   5.990  16.632 -0.3593  0.8013  0.2555
12495TIP3    H258901   4.840   5.946  16.738  0.3553 -1.3831 -1.2722
12496TIP3   OH258902   2.728   5.575   5.862  0.3401  0.3306  0.0044
12496TIP3    H158903   2.668   5.502   5.880  0.4343  1.0270  3.5062
12496TIP3    H258904   2.812   5.533   5.844 -0.1251 -0.4982 -0.3002
12497TIP3   OH258905   1.430   1.282  13.652 -0.3020 -0.4544  0.0993
12497TIP3    H158906   1.488   1.334  13.595 -0.8786 -0.0064 -0.0906
12497TIP3    H258907   1.482   1.206  13.677  0.2848 -0.1765 -0.2658
12498TIP3   OH258908   1.467   6.312   5.787  0.2218  0.5049 -0.8102
12498TIP3    H158909   1.461   6.240   5.850 -0.2634  1.2287 -0.0172
12498TIP3    H258910   1.500   6.271   5.707 -1.5281 -0.8873 -0.8515
12499TIP3   OH258911   5.362   4.254   4.704 -0.0058  0.1978 -0.0875
12499TIP3    H158912   5.370   4.194   4.629  2.8015  0.8269 -0.3466
12499TIP3    H258913   5.292   4.216   4.758 -1.1382 -0.9968 -2.3356
12500TIP3   OH258914   2.146   3.279   4.966 -0.2174  0.0775  0.4240
12500TIP3    H158915   2.112   3.221   4.897 -1.6253 -0.4134  1.5071
12500TIP3    H258916   2.074   3.339   4.985  0.2175  0.3151  1.3526
12501TIP3   OH258917   5.223   0.749  11.392 -0.0065  0.4657  0.1946
12501TIP3    H158918   5.133   0.781  11.390 -0.4871 -0.8664 -0.0218
12501TIP3    H258919   5.255   0.762  11.303 -0.3069  0.0293  0.0259
12502TIP3   OH258920   1.120   5.210   6.251 -0.3354 -0.1721 -0.5015
12502TIP3    H158921   1.046   5.272   6.252 -1.0446 -1.0102  0.7210
12502TIP3    H258922   1.170   5.233   6.329  1.6932  1.5333 -2.2520
12503TIP3   OH258923   0.590   4.720   6.225 -0.9787 -0.0457 -0.1286
12503TIP3    H158924   0.535   4.644   6.244 -1.0174  0.4133  1.7187
12503TIP3    H258925   0.680   4.687   6.231 -1.0096 -0.5571 -2.1118
12504TIP3   OH258926   6.689   6.216  16.798 -0.6497  0.3894 -0.4425
12504TIP3    H158927   6.770   6.259  16.770 -0.4794 -0.5846 -1.4901
12504TIP3    H258928   6.663   6.162  16.724 -0.0047 -2.5413  1.3823
12505TIP3   OH258929   6.009   1.427   1.716 -0.5043  0.0836 -0.0206
12505TIP3    H158930   6.034   1.358   1.653 -0.8466  0.6091 -0.7379
12505TIP3    H258931   5.959   1.489   1.664  2.1074  2.2920  0.0056
12506TIP3   OH258932   1.342   2.931   1.360 -0.0946  0.2424 -0.3798
12506TIP3    H158933   1.276   3.000   1.356 -2.2238 -1.7606 -0.4244
12506TIP3    H258934   1.343   2.893   1.272 -0.5149 -1.2053  0.2225
12507TIP3   OH258935   3.929   4.049   3.729 -0.3413 -0.0483  0.8883
12507TIP3    H158936   3.987   4.107   3.680 -1.5925  0.3580 -0.1514
12507TIP3    H258937   3.853   4.103   3.748 -1.3486 -1.2243  0.2570
12508TIP3   OH258938   5.533   5.619   3.370  0.1860  0.2079 -0.1329
12508TIP3    H158939   5.550   5.552   3.435  1.1938 -0.6453 -1.2463
12508TIP3    H258940   5.438   5.631   3.372  0.2110  0.2549  1.5237
12509TIP3   OH258941   5.663   4.167   6.406 -0.0709  0.1847  0.3869
12509TIP3    H158942   5.717   4.110   6.460  0.5271  0.5761  0.2120
12509TIP3    H258943   5.606   4.213   6.467  0.9290  0.9780  0.7450
12510TIP3   OH258944   2.633   5.241  15.348  0.2411  0.1799  0.1448
12510TIP3    H158945   2.681   5.170  15.391 -0.7394 -0.1830  0.6464
12510TIP3    H258946   2.659   5.320  15.396  1.3717  0.1745 -0.4487
12511TIP3   OH258947   3.535   0.542  11.041 -0.0599  0.3317 -0.2670
12511TIP3    H158948   3.618   0.500  11.063  0.0475 -0.4521 -2.0332
12511TIP3    H258949   3.554   0.592  10.962 -1.1412  0.5662 -0.3854
12512TIP3   OH258950   5.619   2.807   6.665  0.0475  0.5715 -0.1316
12512TIP3    H158951   5.633   2.831   6.573 -0.3100  0.0530 -0.3200
12512TIP3    H258952   5.527   2.828   6.682  0.0154  0.3152  0.0042
12513TIP3   OH258953   1.882   5.455   1.712 -0.5186 -0.0858  0.4394
12513TIP3    H158954   1.936   5.445   1.790 -0.1311 -1.8334 -0.0375
12513TIP3    H258955   1.935   5.420   1.641 -0.8182  1.5904 -0.6514
12514TIP3   OH258956   0.616   2.030   5.810  0.6617 -0.0107  0.2877
12514TIP3    H158957   0.664   2.004   5.888  0.1689  0.9494  0.9184
12514TIP3    H258958   0.569   2.110   5.835 -0.8373 -0.6170 -0.4662
12515TIP3   OH258959   2.097   5.930   3.510  0.1243  0.2206 -0.0914
12515TIP3    H158960   2.024   5.958   3.564 -1.4829 -0.1358 -2.0333
12515TIP3    H258961   2.162   5.896   3.573 -1.5131  0.2038  1.6192
12516TIP3   OH258962   0.645   5.470  16.796  0.1807 -0.1231  0.4821
12516TIP3    H158963   0.694   5.467  16.714  0.0654  0.0649  0.4058
12516TIP3    H258964   0.611   5.382  16.807  0.9773 -0.3978  0.8032
12517TIP3   OH258965   2.664   6.144  10.944  0.1266  0.8601  0.3100
12517TIP3    H158966   2.676   6.200  11.021 -0.8988  1.8903 -0.2533
12517TIP3    H258967   2.578   6.104  10.957 -0.8762  2.4487 -1.1427
12518TIP3   OH258968   6.276   5.646   4.528 -0.1261  0.0412 -0.1908
12518TIP3    H158969   6.194   5.613   4.564  0.5157 -3.1798 -1.4903
12518TIP3    H258970   6.268   5.741   4.531 -2.0909 -0.1502  3.8023
12519TIP3   OH258971   5.562   5.820   4.063 -0.3107 -0.3439  0.2033
12519TIP3    H158972   5.576   5.744   4.119  1.3783 -1.8420 -2.1257
12519TIP3    H258973   5.647   5.864   4.059 -0.4501 -0.1376 -0.9699
12520TIP3   OH258974   2.028   4.130   0.129 -0.2569 -0.2593 -0.1622
12520TIP3    H158975   2.085   4.054   0.115  0.3132  0.4858 -2.0978
12520TIP3    H258976   2.076   4.203   0.090 -1.1892  0.9488  0.9008
12521TIP3   OH258977   0.132   3.573   3.822  0.6631 -0.0048 -0.0142
12521TIP3    H158978   0.069   3.638   3.792  0.8316  0.9931  1.7302
12521TIP3    H258979   0.217   3.617   3.814  1.1104 -1.1599 -1.8619
12522TIP3   OH258980   4.450   5.972   2.638  0.7370  0.0553 -0.0196
12522TIP3    H158981   4.475   5.888   2.678 -0.2168 -0.1314  0.2027
12522TIP3    H258982   4.367   5.995   2.681  0.6801  0.8069 -0.5223
12523TIP3   OH258983   4.312   0.794   1.368 -0.2691  0.4755 -0.4374
12523TIP3    H158984   4.346   0.737   1.436  0.3193  0.9909 -0.2943
12523TIP3    H258985   4.389   0.831   1.326 -0.5822 -1.5456 -2.8758
12524TIP3   OH258986   2.032   5.056   0.259 -0.0825  1.0187 -0.6618
12524TIP3    H158987   2.036   5.082   0.168 -1.3899  1.3432 -0.6370
12524TIP3    H258988   2.055   5.135   0.308  2.0717  0.4710 -0.7198
12525TIP3   OH258989   0.933   5.063   4.683  0.4472 -0.0310 -0.1225
12525TIP3    H158990   0.936   5.131   4.616 -0.0117 -1.4568 -1.6591
12525TIP3    H258991   0.999   4.999   4.655 -0.3330 -1.0450  0.3063
12526TIP3   OH258992   0.169   6.688  14.448 -0.4183  0.1752 -0.2170
12526TIP3    H158993   0.234   6.711  14.516  0.8589 -2.3340 -0.5404
12526TIP3    H258994   0.085   6.715  14.486  0.4900  0.6852  1.5100
12527TIP3   OH258995   0.795   0.236  16.440  0.6817 -0.2627  0.0033
12527TIP3    H158996   0.704   0.266  16.446  0.7312 -0.2280  0.6302
12527TIP3    H258997   0.791   0.159  16.383 -0.2116 -2.0855  2.4405
12528TIP3   OH258998   0.352   2.952  10.796  0.2546 -0.2984  0.2771
12528TIP3    H158999   0.295   2.876  10.786 -0.0407 -0.0632  0.1874
12528TIP3    H259000   0.424   2.936  10.735 -0.1862 -0.1444 -0.2779
12529TIP3   OH259001   3.440   6.266  13.765 -0.2289  0.4300 -0.2502
12529TIP3    H159002   3.490   6.194  13.803 -1.8063 -1.8513 -2.3856
12529TIP3    H259003   3.497   6.301  13.696  0.0563  0.5079  0.0212
12530TIP3   OH259004   3.163   2.185   6.306  0.4197  0.1901 -0.1859
12530TIP3    H159005   3.241   2.201   6.359  1.0094  0.4795 -1.1162
12530TIP3    H259006   3.125   2.105   6.342  1.0770  0.1174  0.3598
12531TIP3   OH259007   6.480   3.272  13.790 -0.0137 -0.5679  0.5988
12531TIP3    H159008   6.435   3.202  13.743 -2.1427  0.3024  1.2767
12531TIP3    H259009   6.454   3.261  13.881  0.4351  0.5012  0.8655
12532TIP3   OH259010   0.988   0.564  16.758 -0.1212 -0.0974  0.5521
12532TIP3    H159011   0.964   0.475  16.786 -1.1785  0.1117  0.3424
12532TIP3    H259012   1.051   0.550  16.687  4.1711 -0.6136  4.2396
12533TIP3   OH259013   5.032   1.893   3.457  0.2412  0.6197 -0.5212
12533TIP3    H159014   5.061   1.928   3.373 -0.0970  0.1663 -0.8357
12533TIP3    H259015   4.985   1.812   3.433 -0.4552  0.8557  0.0420
12534TIP3   OH259016   5.612   4.232   3.939  0.1663 -0.0470 -0.2344
12534TIP3    H159017   5.555   4.231   3.862 -0.6322 -0.2275  0.3630
12534TIP3    H259018   5.554   4.249   4.013  1.0079  0.6543  0.2760
12535TIP3   OH259019   2.627   1.763   4.279  0.4402  0.6285  0.3209
12535TIP3    H159020   2.555   1.825   4.275  1.0132  1.3719  1.3333
12535TIP3    H259021   2.632   1.738   4.371  0.0301 -1.1444 -0.1218
12536TIP3   OH259022   3.741   3.366   3.554 -0.2637 -0.4719  0.3906
12536TIP3    H159023   3.722   3.353   3.461 -0.9205 -0.7149  0.5505
12536TIP3    H259024   3.744   3.461   3.566  1.7008 -0.4530 -0.2402
12537TIP3   OH259025   0.098   4.434   4.269 -1.2078 -0.6741  0.1315
12537TIP3    H159026   0.141   4.350   4.286 -0.0155  0.1011  0.9323
12537TIP3    H259027   0.143   4.468   4.192  0.4507  0.6934  1.6727
12538TIP3   OH259028   2.989   6.561  11.387 -0.3582  0.1027  0.4808
12538TIP3    H159029   3.082   6.580  11.379 -0.5291  0.0725 -1.8668
12538TIP3    H259030   2.953   6.633  11.438  0.8502  0.4157  0.8882
12539TIP3   OH259031   0.959   5.608   2.564  0.0272 -0.6523 -0.4875
12539TIP3    H159032   0.941   5.657   2.644 -0.6082 -0.6623 -0.6261
12539TIP3    H259033   0.995   5.673   2.503  0.7175 -0.6866 -0.1292
12540TIP3   OH259034   5.613   5.638  13.793 -0.3145  0.7012 -0.1911
12540TIP3    H159035   5.575   5.719  13.828  0.0599  0.5565  0.5584
12540TIP3    H259036   5.543   5.601  13.739 -1.1792  0.5497  1.0009
12541TIP3   OH259037   2.379   3.654   0.909  0.6224 -0.3419 -0.6741
12541TIP3    H159038   2.404   3.645   1.001 -0.8955 -1.0708 -0.3091
12541TIP3    H259039   2.447   3.606   0.861  2.8888  2.2871 -0.1731
12542TIP3   OH259040   2.756   0.660  10.842 -0.0336 -0.3093  0.0201
12542TIP3    H159041   2.817   0.734  10.844 -0.7167  0.2440  1.2658
12542TIP3    H259042   2.800   0.592  10.893  0.2949 -0.5195 -0.5426
12543TIP3   OH259043   5.012   3.036  11.477 -0.4824 -0.4649  0.0443
12543TIP3    H159044   4.987   2.975  11.408 -0.9948 -1.3673  1.0184
12543TIP3    H259045   5.108   3.035  11.477 -0.4512  0.4452 -1.4371
12544TIP3   OH259046   6.416   1.528   3.045 -0.2234  0.3562  0.2707
12544TIP3    H159047   6.454   1.573   3.120 -0.6633  0.0879  0.6512
12544TIP3    H259048   6.352   1.468   3.082 -0.8233  0.6062 -0.3488
12545TIP3   OH259049   1.396   2.596   4.702  0.0505  0.3605  0.9457
12545TIP3    H159050   1.477   2.615   4.654  0.7510  1.3150  2.4733
12545TIP3    H259051   1.337   2.668   4.678  0.1068  0.3767  0.8571
12546TIP3   OH259052   3.318   4.584   3.690 -0.2106  0.2073  0.3838
12546TIP3    H159053   3.311   4.601   3.596  0.7859  1.0864  0.4638
12546TIP3    H259054   3.232   4.609   3.724 -0.3242  0.6210 -0.1864
12547TIP3   OH259055   3.356   3.398   5.794 -0.2044  0.8552  0.3409
12547TIP3    H159056   3.357   3.313   5.838  2.6202  0.2885 -0.7199
12547TIP3    H259057   3.405   3.456   5.852  0.0384  1.1415 -0.1501
12548TIP3   OH259058   6.273   1.322  15.784  0.4579 -0.4148  0.2124
12548TIP3    H159059   6.248   1.413  15.764  1.0157 -0.5390 -1.0896
12548TIP3    H259060   6.212   1.295  15.853  0.6475  1.1317  1.0136
12549TIP3   OH259061   5.493   4.093  11.026  0.6058  0.1777 -0.0602
12549TIP3    H159062   5.423   4.131  11.079  0.8597  0.9043 -0.2355
12549TIP3    H259063   5.508   4.157  10.956  0.0471 -0.9205 -1.2111
12550TIP3   OH259064   1.601   2.378  13.774 -0.3577 -0.0202  0.2325
12550TIP3    H159065   1.665   2.308  13.788  0.6608  0.6530 -0.9700
12550TIP3    H259066   1.654   2.457  13.765 -1.1500  0.1930 -3.3077
12551TIP3   OH259067   1.651   6.186  12.287 -0.4784 -0.0877  0.1336
12551TIP3    H159068   1.640   6.255  12.353  0.8752  0.6203 -0.3661
12551TIP3    H259069   1.593   6.211  12.216 -0.1994  0.3972  0.0756
12552TIP3   OH259070   3.735   1.248   1.250 -0.1275  0.1305 -0.1700
12552TIP3    H159071   3.785   1.169   1.229  0.5730  0.6545 -0.5319
12552TIP3    H259072   3.753   1.264   1.343 -0.3511 -0.1992 -0.0735
12553TIP3   OH259073   3.814   1.082   2.580 -0.6254  0.3974 -0.4560
12553TIP3    H159074   3.894   1.035   2.600  0.7674  2.2262 -1.5918
12553TIP3    H259075   3.744   1.027   2.617  1.2127 -0.5145  1.7763
12554TIP3   OH259076   6.349   2.559  15.551 -0.3631 -0.1968 -0.1769
12554TIP3    H159077   6.427   2.522  15.592 -0.0995  1.2757  0.7200
12554TIP3    H259078   6.375   2.574  15.460  0.6520  0.9144  0.2756
12555TIP3   OH259079   1.060   4.754   3.561 -0.3827  0.5281  0.1822
12555TIP3    H159080   1.064   4.845   3.532 -1.6304  0.1316 -1.3345
12555TIP3    H259081   0.980   4.720   3.522  1.3716 -1.9439 -1.4099
12556TIP3   OH259082   4.278   2.005   1.453 -0.4003 -0.3085 -0.6079
12556TIP3    H159083   4.319   1.966   1.375 -0.9891 -2.2372  0.0124
12556TIP3    H259084   4.184   2.002   1.434 -0.5352 -0.6746  0.1128
12557TIP3   OH259085   1.692   3.942  11.427 -0.4949  0.4340 -0.4930
12557TIP3    H159086   1.742   4.001  11.372 -0.8749 -1.6644 -3.2069
12557TIP3    H259087   1.742   3.861  11.427 -0.6499  0.2962  2.0607
12558TIP3   OH259088   0.924   5.300   4.005 -0.4659 -0.3380 -0.3113
12558TIP3    H159089   0.873   5.220   3.997  0.3875 -1.0153  0.8425
12558TIP3    H259090   1.008   5.279   3.965  0.0129 -0.2621  0.6368
12559TIP3   OH259091   0.881   0.640   0.336 -0.6268 -0.1472 -0.8256
12559TIP3    H159092   0.873   0.552   0.301  1.5541 -0.7842  0.2034
12559TIP3    H259093   0.970   0.644   0.371 -0.8911  2.2755 -0.3585
12560TIP3   OH259094   4.861   4.188  13.424 -0.1530 -0.2456  0.3737
12560TIP3    H159095   4.800   4.115  13.437  0.5077 -0.8510  0.1623
12560TIP3    H259096   4.934   4.149  13.376  0.4813  0.4273  0.7773
12561TIP3   OH259097   0.530   1.454   1.701 -0.4585 -0.6196 -0.3089
12561TIP3    H159098   0.468   1.526   1.707  0.7519  0.6093 -2.0843
12561TIP3    H259099   0.515   1.403   1.781 -0.1519  2.5528  1.8699
12562TIP3   OH259100   1.859   1.787   1.900  0.4226  0.1257 -0.0377
12562TIP3    H159101   1.844   1.813   1.991 -0.9562  1.8769 -0.7429
12562TIP3    H259102   1.944   1.743   1.901  1.0788  1.4103  1.8325
12563TIP3   OH259103   3.107   3.179  13.755 -0.3581 -0.1247 -0.0229
12563TIP3    H159104   3.130   3.120  13.827  1.8596  0.1282 -0.4946
12563TIP3    H259105   3.090   3.263  13.797 -1.9777 -0.6855  0.4856
12564TIP3   OH259106   5.925   0.303   4.625 -0.2456  0.5142  0.8537
12564TIP3    H159107   6.001   0.304   4.683 -1.0995  2.0614  1.9878
12564TIP3    H259108   5.850   0.303   4.684 -1.1404  0.7069 -0.2621
12565TIP3   OH259109   5.352   3.670  13.895 -0.0412 -0.8346  0.2895
12565TIP3    H159110   5.357   3.744  13.955 -1.1395 -1.4003  1.1117
12565TIP3    H259111   5.411   3.693  13.824 -0.0041  0.6159  0.7591
12566TIP3   OH259112   1.804   6.444   5.842  0.0483 -0.1604 -0.1122
12566TIP3    H159113   1.847   6.501   5.778  0.6962  0.4393  0.8403
12566TIP3    H259114   1.740   6.501   5.885 -0.6887 -0.6730 -0.5053
12567TIP3   OH259115   6.666   3.776  15.561  0.1719 -0.1799  0.3440
12567TIP3    H159116   6.641   3.868  15.564 -0.6496 -0.4059  0.7420
12567TIP3    H259117   6.641   3.742  15.647 -1.3026 -1.2111 -0.4756
12568TIP3   OH259118   2.583   3.141  14.023  0.2753  0.4692  0.0518
12568TIP3    H159119   2.565   3.227  13.985 -0.2635  0.7021  0.8195
12568TIP3    H259120   2.540   3.143  14.108  1.7659  0.0751  0.8265
12569TIP3   OH259121   6.651   2.291  14.881 -0.1799  0.5589  0.3293
12569TIP3    H159122   6.741   2.270  14.906  0.1019  0.5734 -0.6598
12569TIP3    H259123   6.605   2.303  14.964  0.4657 -0.5578  0.8457
12570TIP3   OH259124   5.119   3.743  12.323  0.0332 -0.2825  0.5300
12570TIP3    H159125   5.031   3.780  12.321 -0.0017 -0.4141 -0.2691
12570TIP3    H259126   5.155   3.760  12.236  1.3789  1.2101  1.3380
12571TIP3   OH259127   0.527   5.950  14.854 -0.4357  0.4369 -0.4907
12571TIP3    H159128   0.510   5.949  14.760  1.2073 -1.0123 -0.7902
12571TIP3    H259129   0.609   5.903  14.864 -0.7734  0.2682  1.7131
12572TIP3   OH259130   0.869   3.850   2.370  0.0225  0.3715 -0.7794
12572TIP3    H159131   0.891   3.943   2.369 -0.4703  0.5054  0.2127
12572TIP3    H259132   0.935   3.809   2.313  2.5368  0.8245  1.6968
12573TIP3   OH259133   4.675   4.392  13.396 -0.0762  0.5407 -0.2372
12573TIP3    H159134   4.720   4.314  13.427 -1.3206  0.2004  0.7755
12573TIP3    H259135   4.745   4.453  13.372  0.9053  0.2824  1.9267
12574TIP3   OH259136   1.836   3.633  13.430  0.1044 -0.3556  0.7814
12574TIP3    H159137   1.746   3.640  13.461 -0.5141  0.8233 -1.1823
12574TIP3    H259138   1.885   3.601  13.506 -1.9303 -0.8852  1.9124
12575TIP3   OH259139   6.214   4.953   1.655 -0.4460  0.4931 -0.0390
12575TIP3    H159140   6.163   4.949   1.736 -1.0990  2.1960 -0.3326
12575TIP3    H259141   6.228   5.047   1.641  0.6394  0.1563 -1.2936
12576TIP3   OH259142   5.351   5.362  17.215 -0.6245 -0.1147 -0.4089
12576TIP3    H159143   5.357   5.273  17.180 -1.7725  0.2168 -1.5109
12576TIP3    H259144   5.365   5.418  17.138  1.3244  0.6662  0.4933
12577TIP3   OH259145   4.003   0.265   4.851  0.7234  0.7186 -0.0567
12577TIP3    H159146   3.953   0.308   4.920  1.9292  1.5503  0.3161
12577TIP3    H259147   3.952   0.281   4.771 -0.6260 -0.1748  0.6075
12578TIP3   OH259148   4.519   4.211  12.915 -0.5612  0.1096 -0.4310
12578TIP3    H159149   4.578   4.179  12.984 -0.8683  0.8316  0.1726
12578TIP3    H259150   4.574   4.268  12.861 -0.6035  0.4605 -0.1059
12579TIP3   OH259151   5.688   1.751   0.718 -0.1044 -0.2684 -0.1397
12579TIP3    H159152   5.655   1.665   0.746 -0.2720 -0.2683 -0.3396
12579TIP3    H259153   5.642   1.813   0.774 -1.5531 -0.1668 -1.4180
12580TIP3   OH259154   2.929   5.824  10.402  0.0985  0.0839 -0.3348
12580TIP3    H159155   2.908   5.770  10.479  0.3852 -0.3688 -0.5716
12580TIP3    H259156   3.024   5.836  10.407  0.4426 -1.7116 -1.7502
12581TIP3   OH259157   1.590   3.979   6.163 -0.4746 -0.6574 -0.4399
12581TIP3    H159158   1.549   3.940   6.240  2.4327 -1.2774  0.8589
12581TIP3    H259159   1.559   4.069   6.163 -0.3128 -0.5661  1.6375
12582TIP3   OH259160   1.065   4.150  12.783  0.3880  0.5633 -0.1939
12582TIP3    H159161   0.975   4.152  12.815 -0.2136  0.6005 -1.8670
12582TIP3    H259162   1.058   4.169  12.690  2.0349 -0.4701 -0.5456
12583TIP3   OH259163   1.284   1.580   2.616 -0.4386 -0.2317  0.2688
12583TIP3    H159164   1.289   1.646   2.547 -3.0970 -1.2117 -0.9392
12583TIP3    H259165   1.256   1.628   2.693  0.0003  0.4481  0.0064
12584TIP3   OH259166   5.043   5.803   1.202  0.5319 -0.1078  0.2921
12584TIP3    H159167   5.116   5.767   1.152 -0.1440 -1.0797 -0.0040
12584TIP3    H259168   4.985   5.841   1.136  1.1676  1.3934  0.5932
12585TIP3   OH259169   6.570   2.711  10.566  0.4349 -0.2442  0.7845
12585TIP3    H159170   6.543   2.654  10.639 -2.2465  1.2193  0.9891
12585TIP3    H259171   6.637   2.660  10.520 -0.5017 -2.7751  2.0889
12586TIP3   OH259172   2.998   6.760  12.681  0.1692 -0.0166 -0.2795
12586TIP3    H159173   3.014   6.771  12.775  0.8937 -1.0115 -0.2825
12586TIP3    H259174   3.072   6.707  12.650 -1.2979 -1.6895 -0.9691
12587TIP3   OH259175   4.957   2.015  12.953 -0.6117 -0.2557  0.0012
12587TIP3    H159176   4.876   2.052  12.988  0.5387  1.3159  1.0656
12587TIP3    H259177   4.989   2.080  12.891  0.5492 -0.2330  0.6122
12588TIP3   OH259178   0.792   1.468   0.066 -0.3846  0.0413  0.2674
12588TIP3    H159179   0.759   1.541   0.013 -0.2969  0.0474  0.2213
12588TIP3    H259180   0.728   1.398   0.051 -0.3771  0.0527  0.1762
12589TIP3   OH259181   2.589   4.526   4.163 -0.1831 -0.2375 -0.2925
12589TIP3    H159182   2.672   4.539   4.117 -0.3121  0.4098 -0.3477
12589TIP3    H259183   2.531   4.491   4.096 -0.1964  0.1265 -0.4755
12590TIP3   OH259184   0.516   2.019  11.949  0.3935 -0.2563  0.4633
12590TIP3    H159185   0.538   2.075  11.875  1.1266  0.1104  0.9497
12590TIP3    H259186   0.533   1.930  11.918 -0.6763 -0.2158 -0.2767
12591TIP3   OH259187   3.257   1.155  10.924  0.0990  0.2729  0.0302
12591TIP3    H159188   3.171   1.153  10.882  1.7824 -1.5270 -3.5088
12591TIP3    H259189   3.241   1.122  11.013 -2.7475 -0.5331 -0.7294
12592TIP3   OH259190   0.209   2.466  15.280  0.0646 -0.0291 -0.2174
12592TIP3    H159191   0.290   2.449  15.327  1.3612  0.8003 -2.0762
12592TIP3    H259192   0.217   2.556  15.250 -0.8904 -0.3938 -1.6435
12593TIP3   OH259193   3.720   5.084   5.570 -0.1590  0.1207 -0.8779
12593TIP3    H159194   3.682   5.155   5.621 -0.6876 -1.1950  0.6257
12593TIP3    H259195   3.790   5.125   5.519  0.2971  1.5104  0.8158
12594TIP3   OH259196   6.362   6.613   3.836  0.0307 -0.4167  1.0200
12594TIP3    H159197   6.419   6.631   3.911  0.8631 -0.2702  0.3637
12594TIP3    H259198   6.395   6.530   3.801 -0.5151 -0.6128  0.9687
12595TIP3   OH259199   0.471   3.761  11.419 -0.1653  0.0597 -0.1685
12595TIP3    H159200   0.502   3.827  11.481  3.6534 -0.8864 -0.9122
12595TIP3    H259201   0.380   3.785  11.401 -0.7806  1.4730  4.2690
12596TIP3   OH259202   4.699   0.256   2.695 -0.3900 -0.1775 -0.6062
12596TIP3    H159203   4.669   0.337   2.654 -0.8647 -1.0835 -2.1059
12596TIP3    H259204   4.791   0.249   2.670  0.4144  1.2854  1.8340
12597TIP3   OH259205   4.728   6.235  13.032  0.4022 -0.3510 -0.0165
12597TIP3    H159206   4.758   6.318  13.070  0.5019 -0.3635 -0.0685
12597TIP3    H259207   4.807   6.195  12.996  0.4890 -0.8504  0.7145
12598TIP3   OH259208   5.579   6.760   1.116  0.2611 -0.4445  0.4231
12598TIP3    H159209   5.633   6.692   1.076  1.6240  0.4792  0.6603
12598TIP3    H259210   5.494   6.751   1.073  0.9587 -1.1121 -0.8570
12599TIP3   OH259211   5.583   4.482  13.732 -0.1115 -0.4655 -0.1866
12599TIP3    H159212   5.666   4.524  13.708  0.3312 -1.4103 -0.3155
12599TIP3    H259213   5.578   4.491  13.827  2.7318 -5.0529  0.5209
12600TIP3   OH259214   3.473   5.883   0.001 -0.4640  0.9074 -0.5997
12600TIP3    H159215   3.491   5.974  -0.021  0.1589  0.7536 -0.7304
12600TIP3    H259216   3.378   5.873  -0.013 -0.6328  1.6852 -0.0253
12601TIP3   OH259217   4.447   5.653   1.335 -0.0097  0.2126 -0.3476
12601TIP3    H159218   4.353   5.668   1.319  0.1464 -0.0798 -1.5894
12601TIP3    H259219   4.452   5.560   1.358 -0.1076  0.3898  0.3934
12602TIP3   OH259220   3.467   6.098   2.513 -0.1872  0.1651 -0.1180
12602TIP3    H159221   3.449   6.187   2.544 -0.3822  0.1498 -0.1858
12602TIP3    H259222   3.502   6.110   2.425 -2.1940  0.0758 -0.9612
12603TIP3   OH259223   0.352   2.134   0.806  0.4640  0.5967 -0.5786
12603TIP3    H159224   0.431   2.094   0.769  1.3284 -0.7126  2.4958
12603TIP3    H259225   0.286   2.127   0.737  1.8958 -1.9623 -1.7469
12604TIP3   OH259226   1.556   5.874   2.051  0.0636 -0.3365  0.1251
12604TIP3    H159227   1.581   5.872   2.144 -0.8879  0.1701  0.4045
12604TIP3    H259228   1.500   5.952   2.043  1.3317  0.4607 -1.1957
12605TIP3   OH259229   6.210   5.194  12.376  0.4606 -0.4727  0.0445
12605TIP3    H159230   6.181   5.284  12.363 -0.5883 -0.7302  0.5892
12605TIP3    H259231   6.153   5.142  12.319  0.4413 -0.8847  0.4342
12606TIP3   OH259232   1.898   6.140   0.829 -0.2437 -0.5020  0.0432
12606TIP3    H159233   1.863   6.110   0.745 -0.8072 -1.8396  0.7288
12606TIP3    H259234   1.821   6.164   0.880  0.0964  0.3269  0.1639
12607TIP3   OH259235   3.558   0.034  10.672 -0.2518  0.0468 -0.4827
12607TIP3    H159236   3.645   0.074  10.676  0.0641 -0.6655 -0.2478
12607TIP3    H259237   3.498   0.108  10.670  0.2803  0.5267  0.9862
12608TIP3   OH259238   6.360   2.370   0.868 -0.0145  0.3598  0.1022
12608TIP3    H159239   6.282   2.352   0.814  0.3656  1.5798 -0.8650
12608TIP3    H259240   6.344   2.456   0.905 -0.2360 -0.4382  1.9232
12609TIP3   OH259241   5.393   0.355   4.181 -0.1809  0.0924 -0.5435
12609TIP3    H159242   5.300   0.342   4.163 -0.4680  0.1536  0.8486
12609TIP3    H259243   5.436   0.335   4.098 -1.1928 -2.5579 -0.4819
12610TIP3   OH259244   1.124   4.155  14.392 -0.3814 -0.5030  0.0027
12610TIP3    H159245   1.116   4.155  14.487  1.3753  0.5516  0.1677
12610TIP3    H259246   1.198   4.212  14.374 -1.0186 -0.2745 -2.0399
12611TIP3   OH259247   1.186   0.518   3.882 -0.5909 -0.4248  0.5634
12611TIP3    H159248   1.236   0.451   3.836 -0.3731  0.2752 -0.2380
12611TIP3    H259249   1.209   0.508   3.974 -2.7248 -3.3234  0.8467
12612TIP3   OH259250   3.756   0.932   0.468 -0.4622 -0.5385  0.1408
12612TIP3    H159251   3.836   0.896   0.429 -0.5448 -2.4687  1.6738
12612TIP3    H259252   3.714   0.981   0.397 -0.0812 -3.0918 -1.9102
12613TIP3   OH259253   5.235   4.692  11.146 -0.3252 -0.0725  0.5708
12613TIP3    H159254   5.233   4.679  11.241 -1.5151 -0.6306  0.4716
12613TIP3    H259255   5.189   4.617  11.110  1.2789 -0.5645 -0.5374
12614TIP3   OH259256   0.666   3.835  16.482 -0.4159 -0.2474  0.0744
12614TIP3    H159257   0.583   3.797  16.509 -0.7689  0.4525 -0.0140
12614TIP3    H259258   0.714   3.848  16.564 -0.0063 -1.5323  0.0429
12615TIP3   OH259259   1.942   6.721   6.549 -0.6780  0.6013  0.1604
12615TIP3    H159260   1.902   6.765   6.625 -1.0356  1.2922 -0.4197
12615TIP3    H259261   2.036   6.733   6.562 -0.6758 -0.5686  1.2594
12616TIP3   OH259262   0.648   3.707   1.435 -0.1138  0.6062 -0.0097
12616TIP3    H159263   0.618   3.740   1.520  0.2811 -1.9600  1.1900
12616TIP3    H259264   0.619   3.616   1.434  2.1458 -0.1227 -1.5305
12617TIP3   OH259265   1.128   1.632  10.774 -0.1218  0.7187 -0.2209
12617TIP3    H159266   1.212   1.627  10.728  0.8939 -1.3776  1.7438
12617TIP3    H259267   1.083   1.551  10.749 -0.6289  0.7889  0.4635
12618TIP3   OH259268   0.490   3.012   1.820 -0.0662  0.1441  0.4100
12618TIP3    H159269   0.460   2.981   1.905  0.1812 -1.6342 -0.1073
12618TIP3    H259270   0.533   3.096   1.838 -0.9513  0.2952  1.8652
12619TIP3   OH259271   6.669   4.908  11.293  0.0811  0.1172  0.6443
12619TIP3    H159272   6.699   4.866  11.374 -3.1768 -1.8977  0.9130
12619TIP3    H259273   6.625   4.987  11.323 -0.0738 -0.0093  0.7514
12620TIP3   OH259274   0.239   0.434  13.539  0.8918 -0.6824 -0.0323
12620TIP3    H159275   0.194   0.431  13.623 -0.7797 -0.3356 -0.8966
12620TIP3    H259276   0.315   0.490  13.554  0.5963 -0.6192  1.2395
12621TIP3   OH259277   5.205   2.893  12.089  0.6736 -0.2664  0.0483
12621TIP3    H159278   5.140   2.932  12.146 -1.4674 -0.2580 -2.2797
12621TIP3    H259279   5.160   2.817  12.050  2.1396 -0.4619 -1.3341
12622TIP3   OH259280   1.835   1.735  15.521  0.0353  0.5199  0.1225
12622TIP3    H159281   1.820   1.736  15.426 -0.5199  2.6112  0.2073
12622TIP3    H259282   1.904   1.669  15.533 -0.6761 -0.5702 -1.5986
12623TIP3   OH259283   5.803   0.565  10.999  0.2985  0.1987  0.3284
12623TIP3    H159284   5.751   0.643  10.979  0.8196  1.1693  2.5375
12623TIP3    H259285   5.869   0.562  10.929  1.2434  2.6633  1.0423
12624TIP3   OH259286   5.358   3.000  15.586  0.1845  0.5870 -0.8344
12624TIP3    H159287   5.451   3.006  15.565  0.2322  0.5603 -0.6325
12624TIP3    H259288   5.340   3.079  15.636  0.4298 -0.1088  0.3720
12625TIP3   OH259289   2.341   1.293  16.874 -0.1299  0.1464  0.0058
12625TIP3    H159290   2.367   1.237  16.947 -2.3611 -0.2023  0.5543
12625TIP3    H259291   2.307   1.372  16.916  0.9694  1.0380 -0.7345
12626TIP3   OH259292   3.755   0.909  16.359  0.2539 -0.1814  0.0286
12626TIP3    H159293   3.701   0.861  16.422  0.8400 -0.2856  0.4646
12626TIP3    H259294   3.707   0.989  16.341  0.3514  0.1139  1.0582
12627TIP3   OH259295   0.494   3.274  11.303  0.6216 -0.5160  0.0236
12627TIP3    H159296   0.479   3.354  11.354 -1.1244 -2.1195  2.1053
12627TIP3    H259297   0.540   3.305  11.224  0.7472  2.4133  1.1545
12628TIP3   OH259298   6.203   5.579  13.785 -0.1094  0.4809  0.1226
12628TIP3    H159299   6.112   5.572  13.812 -1.3099  1.4113 -3.4517
12628TIP3    H259300   6.220   5.674  13.784  0.4977  0.3702 -0.4277
12629TIP3   OH259301   4.662   0.188   4.597  0.6415 -0.6076  0.7269
12629TIP3    H159302   4.637   0.212   4.508  3.2156 -0.7264 -0.0713
12629TIP3    H259303   4.636   0.096   4.606  3.9100 -1.8100 -1.3321
12630TIP3   OH259304   0.290   0.561  12.048 -0.4888  0.1588  0.4432
12630TIP3    H159305   0.300   0.558  12.144 -0.1895 -0.7968  0.3876
12630TIP3    H259306   0.374   0.529  12.014 -0.3523  1.1461 -0.1472
12631TIP3   OH259307   2.882   0.722  16.707  0.0347 -0.3434  0.2746
12631TIP3    H159308   2.919   0.808  16.690 -0.3427 -0.4887 -1.2810
12631TIP3    H259309   2.837   0.731  16.791 -0.3490  1.0750 -0.0828
12632TIP3   OH259310   2.476   3.537  12.591  0.0960  0.1448  0.5232
12632TIP3    H159311   2.487   3.602  12.521 -1.0265  0.7088  0.8637
12632TIP3    H259312   2.542   3.561  12.656  0.5617  0.1442  0.0567
12633TIP3   OH259313   6.208   4.223  12.159 -0.1917 -0.2447  0.7046
12633TIP3    H159314   6.263   4.212  12.081  0.0619  3.7405  0.1946
12633TIP3    H259315   6.118   4.224  12.124 -0.0432  2.2497  0.2911
12634TIP3   OH259316   3.358   4.745   4.803 -0.1667  0.1562 -0.3197
12634TIP3    H159317   3.280   4.758   4.857 -0.7079 -0.3047 -0.9823
12634TIP3    H259318   3.386   4.656   4.821  0.8389  0.6637  0.7196
12635TIP3   OH259319   3.331   1.566   4.319 -0.1595 -0.6185  0.3183
12635TIP3    H159320   3.295   1.617   4.391  0.6159  0.1879  0.1561
12635TIP3    H259321   3.263   1.503   4.296 -2.5974  2.6927 -1.8566
12636TIP3   OH259322   2.984   5.316  11.564  0.2684  0.1844  0.3226
12636TIP3    H159323   2.920   5.245  11.575 -1.2699  1.7108  1.5523
12636TIP3    H259324   3.057   5.291  11.620  0.6261 -1.4273 -0.8462
12637TIP3   OH259325   3.148   3.567  11.306  0.2051  0.9067  0.1499
12637TIP3    H159326   3.055   3.565  11.325  0.4103  1.0524  1.1795
12637TIP3    H259327   3.153   3.571  11.210 -0.8093 -0.6919  0.0221
12638TIP3   OH259328   4.178   6.049   4.598 -0.4807 -0.3659 -0.2122
12638TIP3    H159329   4.219   6.026   4.682  0.9151  1.3366 -0.3942
12638TIP3    H259330   4.129   6.129   4.617  2.8283  2.1763 -1.7870
12639TIP3   OH259331   2.125   0.584   2.225 -0.5908  0.2985  0.5880
12639TIP3    H159332   2.089   0.497   2.212  0.1347 -0.0104  0.6301
12639TIP3    H259333   2.182   0.575   2.302  1.0076  0.3532 -0.5787
12640TIP3   OH259334   4.554   0.173   3.125  0.5310 -1.0018 -0.0693
12640TIP3    H159335   4.555   0.104   3.192 -2.4948 -0.7209  0.3625
12640TIP3    H259336   4.501   0.137   3.055 -0.7490  0.6967 -0.0126
12641TIP3   OH259337   0.099   2.440   1.479 -0.5916 -0.4655 -0.0878
12641TIP3    H159338   0.032   2.506   1.457  0.3819  0.9317  1.0151
12641TIP3    H259339   0.095   2.435   1.575  0.3776 -0.9102 -0.0763
12642TIP3   OH259340   3.516   4.235  11.396  0.0893 -0.2958  0.4904
12642TIP3    H159341   3.519   4.313  11.340 -0.2668 -0.1154  0.7195
12642TIP3    H259342   3.442   4.184  11.362  1.8611 -1.7724 -1.2664
12643TIP3   OH259343   4.457   6.273  14.866  0.4779 -0.4448 -0.0719
12643TIP3    H159344   4.412   6.220  14.800  0.8628  1.9232 -2.3327
12643TIP3    H259345   4.391   6.289  14.933 -0.2835 -1.8993 -0.4488
12644TIP3   OH259346   0.698   3.270  12.892  0.3243  0.1870 -0.3274
12644TIP3    H159347   0.758   3.292  12.821 -0.7439  1.2688 -0.8997
12644TIP3    H259348   0.744   3.297  12.972  1.2298 -0.3945 -0.6413
12645TIP3   OH259349   2.902   4.226  10.856 -0.0435 -0.0350  0.3548
12645TIP3    H159350   2.811   4.196  10.857  0.3990 -1.3937  1.3583
12645TIP3    H259351   2.949   4.158  10.807  0.8764 -0.7210  2.1606
12646TIP3   OH259352   5.187   6.111   3.579 -0.0970  0.0692 -0.4656
12646TIP3    H159353   5.241   6.036   3.555  0.7720  0.1575  1.2042
12646TIP3    H259354   5.247   6.173   3.620 -0.9943  1.2558 -0.8968
12647TIP3   OH259355   1.080   3.317   4.085  0.0470 -0.7778 -0.5986
12647TIP3    H159356   0.986   3.331   4.099  0.0321 -0.9488 -0.5169
12647TIP3    H259357   1.122   3.392   4.127 -0.1428  0.3543 -2.4050
12648TIP3   OH259358   1.876   0.301   2.474  0.0220 -0.1810 -0.0089
12648TIP3    H159359   1.889   0.327   2.565  1.2557 -0.9332  0.0505
12648TIP3    H259360   1.963   0.312   2.434 -0.2960 -0.7056 -0.8630
12649TIP3   OH259361   3.057   2.845  16.240  0.2053  0.2897  0.2197
12649TIP3    H159362   2.965   2.864  16.223 -0.2841 -2.8227 -0.9077
12649TIP3    H259363   3.104   2.892  16.170 -0.5886  0.9523  0.1239
12650TIP3   OH259364   5.495   6.493  14.638 -0.0740  0.1789 -0.0279
12650TIP3    H159365   5.504   6.589  14.641  1.0154  0.1581 -2.0025
12650TIP3    H259366   5.537   6.463  14.719  0.5323  1.3132  0.0939
12651TIP3   OH259367   6.007   5.771  13.520  0.4071 -0.4275  0.5081
12651TIP3    H159368   5.912   5.773  13.509  0.0562  0.9771  3.2119
12651TIP3    H259369   6.032   5.864  13.523  1.8409 -0.7853  0.0454
12652TIP3   OH259370   0.135   3.501  15.620  0.3269  0.3441  0.3086
12652TIP3    H159371   0.167   3.582  15.660 -1.8984  1.9027 -0.8851
12652TIP3    H259372   0.106   3.447  15.693 -0.7114  1.8168  1.0166
12653TIP3   OH259373   4.373   3.834   2.034 -0.1073  0.0584 -0.0527
12653TIP3    H159374   4.317   3.875   2.100  0.4859  0.0671  0.4585
12653TIP3    H259375   4.313   3.807   1.965 -0.7318  0.1262  0.4518
12654TIP3   OH259376   4.417   3.047  15.176 -0.0377 -0.5416 -0.3686
12654TIP3    H159377   4.448   3.011  15.259 -0.0139 -1.2517 -0.6838
12654TIP3    H259378   4.495   3.083  15.135  0.0136 -0.5066 -0.2399
12655TIP3   OH259379   0.441   6.322  12.404 -0.2461 -0.2266 -0.2479
12655TIP3    H159380   0.515   6.335  12.345 -0.1632  0.5927  0.0252
12655TIP3    H259381   0.463   6.243  12.453 -0.4414 -1.0836 -1.4933
12656TIP3   OH259382   2.252   1.231  14.817 -0.1599  0.5372 -0.3292
12656TIP3    H159383   2.248   1.287  14.895  1.2533 -1.1038  0.9466
12656TIP3    H259384   2.189   1.161  14.836 -1.6477  1.4446 -1.7640
12657TIP3   OH259385   2.250   4.795   4.723  0.5184 -0.1091  0.6517
12657TIP3    H159386   2.162   4.758   4.728  0.8039 -1.0680 -1.0199
12657TIP3    H259387   2.307   4.726   4.756  0.8733 -0.4450 -0.6489
12658TIP3   OH259388   1.556   3.857   5.656 -0.1888  0.0015 -0.2612
12658TIP3    H159389   1.637   3.817   5.624 -0.3215  2.0941 -3.4627
12658TIP3    H259390   1.489   3.829   5.593 -1.2156  1.2820  0.2503
12659TIP3   OH259391   1.675   2.902  13.001  0.5860 -0.4223  0.2967
12659TIP3    H159392   1.766   2.921  12.979  1.6728 -0.6653  4.1882
12659TIP3    H259393   1.679   2.825  13.058 -2.1835 -1.2531 -0.5328
12660TIP3   OH259394   4.802   3.651   1.991  0.4056 -0.1822 -0.1119
12660TIP3    H159395   4.802   3.741   2.026  1.5534 -1.2209  2.6758
12660TIP3    H259396   4.710   3.624   1.996 -0.0782  1.0632 -1.6870
12661TIP3   OH259397   1.126   0.839   3.520 -0.2713 -0.5139  0.0364
12661TIP3    H159398   1.150   0.868   3.608  0.8492  1.2847 -0.8092
12661TIP3    H259399   1.035   0.867   3.509  0.6536  2.4452 -0.5949
12662TIP3   OH259400   4.766   5.563   2.050 -0.4134  0.6483 -0.4861
12662TIP3    H159401   4.807   5.533   1.969 -1.1842  0.6709 -0.8929
12662TIP3    H259402   4.693   5.619   2.020 -1.0450  0.2009  0.2065
12663TIP3   OH259403   2.259   1.698  14.675 -0.0029 -0.1626 -0.3387
12663TIP3    H159404   2.312   1.731  14.747 -1.1865 -1.8019  1.3512
12663TIP3    H259405   2.322   1.659  14.614  0.8847 -0.4628  0.7512
12664TIP3   OH259406   6.540   1.667   5.812  0.0916  0.1506 -0.7912
12664TIP3    H159407   6.562   1.748   5.766 -2.8664  1.3356 -0.1796
12664TIP3    H259408   6.558   1.686   5.904 -2.2386  0.7234 -0.4347
12665TIP3   OH259409   0.171   4.602   4.720  0.3606  0.4705  0.0306
12665TIP3    H159410   0.122   4.682   4.740  0.7502  1.3813 -2.5056
12665TIP3    H259411   0.131   4.568   4.640 -0.3783 -2.3856  1.5568
12666TIP3   OH259412   5.853   2.749   6.800  0.8119 -0.0134  0.0474
12666TIP3    H159413   5.761   2.760   6.773  1.4154 -1.0496 -2.6211
12666TIP3    H259414   5.881   2.837   6.825  0.0096  0.9651 -2.3076
12667TIP3   OH259415   2.746   0.627  14.886  0.1052  0.1538 -0.0921
12667TIP3    H159416   2.736   0.632  14.791 -0.9412  0.8720  0.0594
12667TIP3    H259417   2.826   0.575  14.898  0.7087  0.7568 -1.3721
12668TIP3   OH259418   1.046   0.668  14.321  0.1303  0.6355 -1.0445
12668TIP3    H159419   0.984   0.714  14.263 -2.3905 -0.6889  0.4876
12668TIP3    H259420   1.099   0.615  14.262 -2.0044 -0.2595 -2.2477
12669TIP3   OH259421   4.794   5.122  16.613  0.1103 -0.7023  0.0873
12669TIP3    H159422   4.778   5.081  16.698 -0.9751  0.6245  0.5396
12669TIP3    H259423   4.720   5.095  16.559 -1.6786  2.2252  0.9877
12670TIP3   OH259424   4.915   6.496   1.014  0.1772  0.3122 -0.0731
12670TIP3    H159425   4.933   6.453   1.098 -0.8886 -0.6368 -0.3291
12670TIP3    H259426   4.948   6.586   1.026 -0.9560  0.5111  1.7365
12671TIP3   OH259427   5.899   2.470  16.661 -0.3275 -0.6556  0.2169
12671TIP3    H159428   5.882   2.506  16.747 -0.0816  0.9358 -0.3881
12671TIP3    H259429   5.995   2.462  16.657 -0.3066 -0.2369 -0.1048
12672TIP3   OH259430   2.748   3.552  11.240 -0.3303 -0.0467  0.1477
12672TIP3    H159431   2.797   3.566  11.159 -1.1695 -1.2647 -0.5837
12672TIP3    H259432   2.689   3.627  11.245  0.7741  0.8243  0.4365
12673TIP3   OH259433   2.191   6.041  10.211  0.3070 -0.1596  0.1556
12673TIP3    H159434   2.281   6.067  10.191  0.8563 -0.4325  2.1829
12673TIP3    H259435   2.194   5.945  10.213 -0.3605 -0.2233 -1.1666
12674TIP3   OH259436   4.126   3.735  12.833  0.0995 -0.7183 -0.2082
12674TIP3    H159437   4.083   3.667  12.781  0.5052 -0.1642 -1.2919
12674TIP3    H259438   4.062   3.806  12.837  0.5262 -0.2735 -1.0130
12675TIP3   OH259439   5.238   1.737  12.181  0.3352 -0.1844 -0.6168
12675TIP3    H159440   5.303   1.693  12.236  1.1706  0.0360 -1.4149
12675TIP3    H259441   5.270   1.725  12.092 -1.4686 -1.2818 -1.1366
12676TIP3   OH259442   3.235   2.541  15.867  0.2856 -0.4355 -0.1482
12676TIP3    H159443   3.301   2.587  15.918 -0.2187  0.3570 -0.2024
12676TIP3    H259444   3.169   2.607  15.848  0.0298 -0.9480 -1.0677
12677TIP3   OH259445   3.778   0.172  10.575  1.2685  0.0798 -0.4853
12677TIP3    H159446   3.828   0.103  10.532 -0.4536 -2.8382  1.9963
12677TIP3    H259447   3.832   0.196  10.651  1.3250  0.6045 -0.6941
12678TIP3   OH259448   2.330   6.448  16.921 -0.2707 -0.0199 -0.4900
12678TIP3    H159449   2.261   6.471  16.859 -0.4940  1.6947  0.3613
12678TIP3    H259450   2.294   6.376  16.972 -2.2571  2.1633  1.2840
12679TIP3   OH259451   3.427   5.990  14.745  0.1246 -0.0294  0.1373
12679TIP3    H159452   3.345   5.948  14.770 -0.2142  1.1464  1.0390
12679TIP3    H259453   3.495   5.927  14.768 -0.4734 -0.6904  0.0987
12680TIP3   OH259454   6.562   1.864   0.740  0.1184  0.1702 -0.7908
12680TIP3    H159455   6.510   1.903   0.669  0.0897  0.9261 -0.3581
12680TIP3    H259456   6.521   1.896   0.820  1.1798  0.6814 -0.4429
12681TIP3   OH259457   6.389   4.442  13.455  0.0440  0.4930 -0.1137
12681TIP3    H159458   6.423   4.353  13.458  0.8460  0.8172  4.8972
12681TIP3    H259459   6.429   4.480  13.377 -1.0254 -3.7133 -2.8728
12682TIP3   OH259460   0.506   6.126  13.628 -0.0533  0.0924  0.1845
12682TIP3    H159461   0.452   6.153  13.703  0.6172  1.7042  0.0994
12682TIP3    H259462   0.576   6.073  13.667 -0.3269  0.0059  0.5659
12683TIP3   OH259463   1.504   0.402   6.163 -0.2491 -0.1349  0.2822
12683TIP3    H159464   1.414   0.426   6.142 -0.1580  0.8576  0.9607
12683TIP3    H259465   1.501   0.307   6.179 -1.6437  0.2643  2.6143
12684TIP3   OH259466   2.037   0.879   3.768 -0.6088  0.3397 -0.0288
12684TIP3    H159467   2.050   0.901   3.861 -0.5883  0.9729 -0.1807
12684TIP3    H259468   1.942   0.880   3.757 -0.6322 -0.2224  0.1002
12685TIP3   OH259469   4.081   5.094   0.890 -0.0977  0.5071  0.0946
12685TIP3    H159470   4.063   5.159   0.958 -0.1957  0.3957  0.1762
12685TIP3    H259471   4.026   5.120   0.816 -2.7861 -1.4169  1.3064
12686TIP3   OH259472   6.285   6.403  16.873  0.5218  0.0191  0.0873
12686TIP3    H159473   6.316   6.334  16.933  2.3144  1.5219  0.9330
12686TIP3    H259474   6.318   6.484  16.911 -0.6170  1.2554 -1.5165
12687TIP3   OH259475   5.939   4.238   2.883  0.5663  0.2605 -0.3496
12687TIP3    H159476   5.924   4.172   2.816  0.1546  1.5567 -1.5798
12687TIP3    H259477   6.005   4.296   2.845  1.2291  0.3166  0.8785
12688TIP3   OH259478   5.331   6.180   4.762  0.2185  0.4771 -0.0966
12688TIP3    H159479   5.320   6.267   4.799  1.7011  0.6657 -0.0493
12688TIP3    H259480   5.343   6.195   4.668 -0.4655  0.2493 -0.2199
12689TIP3   OH259481   2.753   1.692   1.773  0.1285 -0.1612 -0.2556
12689TIP3    H159482   2.816   1.755   1.807 -1.9395  1.4595  0.6602
12689TIP3    H259483   2.724   1.729   1.690 -0.5993 -0.2344 -0.0372
12690TIP3   OH259484   6.139   2.650  13.451  0.1626 -0.4381 -0.0678
12690TIP3    H159485   6.139   2.731  13.502  0.7127 -0.9081  0.6936
12690TIP3    H259486   6.073   2.596  13.493  1.7854 -1.4695  1.2047
12691TIP3   OH259487   4.152   1.878  11.550 -0.1000  0.1720  0.0848
12691TIP3    H159488   4.133   1.848  11.638 -0.7425  0.5919  0.0960
12691TIP3    H259489   4.071   1.920  11.521 -0.4932 -1.5351 -1.3834
12692TIP3   OH259490   6.316   3.676   4.392 -0.2528 -0.0505  0.4393
12692TIP3    H159491   6.401   3.676   4.348 -0.6052  0.0106 -0.2410
12692TIP3    H259492   6.255   3.641   4.327 -0.7306 -0.2069  0.9650
12693TIP3   OH259493   1.184   3.592  15.665  0.4849 -0.0405 -0.2361
12693TIP3    H159494   1.151   3.581  15.755 -0.5509 -0.5738 -0.6717
12693TIP3    H259495   1.265   3.542  15.663  0.6731  0.2304  0.4984
12694TIP3   OH259496   5.647   0.552   4.885  0.2940  0.1468 -0.2623
12694TIP3    H159497   5.562   0.562   4.929  0.6411  1.2263  0.1787
12694TIP3    H259498   5.638   0.603   4.805  1.0056  1.4374  0.4685
12695TIP3   OH259499   0.139   0.800  12.959 -0.5377 -0.6421  0.4522
12695TIP3    H159500   0.116   0.708  12.953 -0.4492 -0.8291  2.6291
12695TIP3    H259501   0.186   0.818  12.877 -1.8226 -2.1239 -0.6592
12696TIP3   OH259502   2.438   2.476   2.000  0.1536 -0.1348 -0.0226
12696TIP3    H159503   2.451   2.423   1.922  0.4244  1.4831 -1.1072
12696TIP3    H259504   2.478   2.560   1.979 -1.6887  1.0590  1.0266
12697TIP3   OH259505   1.627   5.411   3.952  0.3069  0.1721 -0.3023
12697TIP3    H159506   1.566   5.435   4.022 -0.4857 -2.1190 -0.1536
12697TIP3    H259507   1.606   5.470   3.880 -0.1132  1.3332  0.7604
12698TIP3   OH259508   1.864   5.921   2.158 -0.3091  0.1927 -0.1225
12698TIP3    H159509   1.844   6.004   2.113  1.0412  0.1258 -0.8792
12698TIP3    H259510   1.943   5.941   2.210 -1.2540 -0.0236  1.4241
12699TIP3   OH259511   0.653   5.227   3.097 -0.0694 -0.1855 -0.1162
12699TIP3    H159512   0.589   5.294   3.121 -2.6730 -2.3870 -0.5947
12699TIP3    H259513   0.600   5.150   3.078  2.7712 -2.0866 -0.6043
12700TIP3   OH259514   4.003   3.037   0.001  0.4950  0.1290  0.3671
12700TIP3    H159515   3.926   3.077   0.041 -1.5088 -0.9254 -2.2443
12700TIP3    H259516   3.975   2.948  -0.021  2.4160 -0.2428 -0.7209
12701TIP3   OH259517   3.708   3.911   3.591  0.1999  0.4874 -0.5698
12701TIP3    H159518   3.792   3.952   3.613 -0.0530  0.5763  0.2546
12701TIP3    H259519   3.647   3.946   3.656 -0.4700  0.4012 -1.1524
12702TIP3   OH259520   4.524   6.474   1.207  0.0756 -0.0097  0.1323
12702TIP3    H159521   4.468   6.451   1.133 -0.1742  0.5924  0.1271
12702TIP3    H259522   4.593   6.407   1.207 -0.9917 -1.1232  0.5230
12703TIP3   OH259523   4.437   6.134  16.729 -0.1058  0.2488 -0.4432
12703TIP3    H159524   4.523   6.164  16.759  0.8323 -1.7484 -1.0940
12703TIP3    H259525   4.402   6.085  16.802 -0.9927  1.5867  0.0513
12704TIP3   OH259526   6.287   1.944  14.047  0.1133 -0.3481  0.4731
12704TIP3    H159527   6.378   1.917  14.035  0.4005  0.5782  0.5121
12704TIP3    H259528   6.289   2.039  14.037 -0.8343 -0.3134  0.5856
12705TIP3   OH259529   6.511   2.446  13.245  0.0310 -0.2029  0.8590
12705TIP3    H159530   6.493   2.482  13.331 -0.4261  0.7111  0.3869
12705TIP3    H259531   6.435   2.471  13.192  0.3436 -0.6859  0.1717
12706TIP3   OH259532   2.643   5.790  12.444 -0.7144  0.6483 -0.4105
12706TIP3    H159533   2.731   5.818  12.422 -0.7217  1.2932  0.3479
12706TIP3    H259534   2.652   5.745  12.528 -1.0146  0.1974 -0.6178
12707TIP3   OH259535   0.273   2.179  13.923 -0.2323  0.0865 -0.6010
12707TIP3    H159536   0.320   2.105  13.886 -1.4399 -0.3007 -1.3850
12707TIP3    H259537   0.328   2.208  13.996  0.2740 -1.5289 -0.3228
12708TIP3   OH259538   3.380   3.424  14.739  0.0860  0.1506  0.2912
12708TIP3    H159539   3.419   3.369  14.807  0.7402 -0.0911 -0.2698
12708TIP3    H259540   3.299   3.379  14.714  0.7843 -0.7298 -0.3929
12709TIP3   OH259541   1.092   4.424  11.108  0.4810  0.5293 -0.6019
12709TIP3    H159542   0.998   4.438  11.103  0.3562  0.3679  1.1274
12709TIP3    H259543   1.128   4.475  11.035 -0.7048  2.6457  0.2670
12710TIP3   OH259544   2.843   1.401   3.403 -0.7181 -0.2793 -0.0569
12710TIP3    H159545   2.870   1.482   3.446 -0.9234 -0.3917  0.2796
12710TIP3    H259546   2.887   1.404   3.317 -1.3342  0.5516 -0.3480
12711TIP3   OH259547   1.701   1.316  12.207 -0.1380  0.1831 -0.0412
12711TIP3    H159548   1.702   1.411  12.198  0.4767  0.2108  0.2753
12711TIP3    H259549   1.629   1.298  12.268 -0.2768  0.4394 -0.1294
12712TIP3   OH259550   6.320   5.189  16.749  0.2282 -0.0231 -0.2169
12712TIP3    H159551   6.279   5.264  16.706  0.1082 -0.9393 -1.7387
12712TIP3    H259552   6.295   5.114  16.695  1.8747 -0.9101  0.2230
12713TIP3   OH259553   6.478   4.877  13.994  0.2047 -0.1524  0.7701
12713TIP3    H159554   6.434   4.879  13.909  0.1391 -1.7180  0.7573
12713TIP3    H259555   6.469   4.966  14.027 -0.7341  0.1952 -0.3746
12714TIP3   OH259556   5.219   4.826  16.692  0.4072  0.1361 -0.2233
12714TIP3    H159557   5.186   4.779  16.769 -0.3504  2.2615  0.7921
12714TIP3    H259558   5.202   4.767  16.619 -0.3040 -1.2578  1.0392
12715TIP3   OH259559   6.494   1.429  17.131  0.4215  0.3657 -0.5513
12715TIP3    H159560   6.481   1.365  17.061 -0.3149  0.7288 -0.7545
12715TIP3    H259561   6.524   1.508  17.087  0.2326  0.5106 -0.4198
12716TIP3   OH259562   2.909   2.226   6.821 -0.6517  0.2418  0.0451
12716TIP3    H159563   2.976   2.243   6.755 -2.6099 -1.2424 -2.3977
12716TIP3    H259564   2.957   2.190   6.896  1.6100  2.0414 -0.4830
12717TIP3   OH259565   2.705   4.788  13.402 -0.0726  0.1692 -0.3116
12717TIP3    H159566   2.751   4.838  13.334  1.0813 -0.7147 -0.2075
12717TIP3    H259567   2.670   4.712  13.356 -0.0738  0.0327 -0.0850
12718TIP3   OH259568   6.185   4.172  12.578  0.0991 -0.7767 -0.6349
12718TIP3    H159569   6.229   4.256  12.596 -1.0430 -0.9519  3.3007
12718TIP3    H259570   6.107   4.196  12.529 -0.2659  0.5151  0.5462
12719TIP3   OH259571   3.150   0.332  11.076  0.5928  0.1284  0.3159
12719TIP3    H159572   3.224   0.272  11.082  0.6902  0.2389  0.2106
12719TIP3    H259573   3.166   0.397  11.144  0.7511  0.3267  0.0932
12720TIP3   OH259574   5.175   2.664  16.480 -0.2562 -0.7494 -0.7432
12720TIP3    H159575   5.207   2.583  16.521  2.7081  1.3590  1.3360
12720TIP3    H259576   5.084   2.670  16.507 -0.0159 -2.5071  0.5986
12721TIP3   OH259577   0.166   5.917  16.298 -0.2819 -0.1711 -0.3276
12721TIP3    H159578   0.188   5.999  16.342 -0.5288 -0.2068 -0.1346
12721TIP3    H259579   0.246   5.891  16.254  1.5631 -2.7930  4.2417
12722TIP3   OH259580   0.824   4.440   0.178 -0.2067  0.3309  0.1260
12722TIP3    H159581   0.780   4.457   0.262  0.9674  1.8890  0.4588
12722TIP3    H259582   0.835   4.526   0.139  0.5470 -0.2561 -0.9775
12723TIP3   OH259583   5.231   6.387  14.880  0.7826 -0.4181  0.4335
12723TIP3    H159584   5.174   6.435  14.820  1.9708 -0.4497 -0.7355
12723TIP3    H259585   5.248   6.304  14.837  1.9396 -0.3012  0.6273
12724TIP3   OH259586   6.146   2.997  10.534  0.5635 -0.1789  0.6516
12724TIP3    H159587   6.136   3.077  10.482  2.3743 -0.5227 -0.2730
12724TIP3    H259588   6.190   2.936  10.475  2.6177 -0.5890  2.5610
12725TIP3   OH259589   5.523   4.242   3.659 -0.2848 -0.5019  0.6538
12725TIP3    H159590   5.498   4.322   3.614  0.6577  0.0584  1.1248
12725TIP3    H259591   5.589   4.202   3.602 -1.0919 -1.1785  0.1901
12726TIP3   OH259592   1.596   6.393  15.168 -0.0655 -0.0919 -0.2271
12726TIP3    H159593   1.617   6.458  15.235 -0.8000 -1.8489  1.7642
12726TIP3    H259594   1.508   6.417  15.138 -0.5945 -0.4886  0.9509
12727TIP3   OH259595   1.153   5.990  16.438  0.2105 -0.0896  0.0525
12727TIP3    H159596   1.205   5.944  16.372  0.6116 -0.1293  0.3940
12727TIP3    H259597   1.094   6.046  16.388  1.1545  0.5793 -0.3206
12728TIP3   OH259598   4.661   6.405  11.880  0.0110  0.3430 -0.2886
12728TIP3    H159599   4.653   6.460  11.958 -0.3906  1.4695 -1.0991
12728TIP3    H259600   4.753   6.378  11.879  1.2448  4.2990 -2.0009
12729TIP3   OH259601   3.979   0.356  13.978  0.1531 -0.3424 -0.1609
12729TIP3    H159602   3.978   0.261  13.967 -1.9905 -0.2354 -1.0512
12729TIP3    H259603   3.916   0.373  14.048 -0.1100  0.4832 -0.5867
12730TIP3   OH259604   5.653   3.506   4.897 -0.0369  0.5064 -0.3006
12730TIP3    H159605   5.612   3.586   4.930  0.9394  1.2359 -0.8396
12730TIP3    H259606   5.595   3.475   4.828  0.0579  1.2697 -0.7295
12731TIP3   OH259607   5.795   5.538   2.822 -0.0299  0.1943 -0.5419
12731TIP3    H159608   5.874   5.497   2.857 -0.9071 -1.3338 -0.2527
12731TIP3    H259609   5.763   5.594   2.893  1.1845  1.3935 -0.9324
12732TIP3   OH259610   3.430   1.885  14.537  0.2467  0.5507  0.1340
12732TIP3    H159611   3.450   1.812  14.478  0.0539  0.6225 -0.0219
12732TIP3    H259612   3.346   1.918  14.506  0.6908  1.3259 -0.2740
12733TIP3   OH259613   3.146   0.886   3.853 -0.5234 -0.1345  0.3357
12733TIP3    H159614   3.125   0.965   3.903 -1.0944 -0.1741  0.1622
12733TIP3    H259615   3.121   0.907   3.763  0.5961 -0.0258  0.0417
12734TIP3   OH259616   3.250   2.758   5.858  0.5281 -0.2631 -0.0966
12734TIP3    H159617   3.227   2.743   5.949 -1.5818 -0.8954 -0.7064
12734TIP3    H259618   3.304   2.682   5.835  0.3097 -0.5663  0.3729
12735TIP3   OH259619   4.928   3.248  16.364  0.3380  0.2159 -0.7482
12735TIP3    H159620   5.003   3.304  16.382  0.2019  0.6006 -1.3468
12735TIP3    H259621   4.853   3.307  16.365  0.3195  0.2673 -2.4957
12736TIP3   OH259622   1.484   3.733  15.409 -0.1775 -0.6524 -0.2901
12736TIP3    H159623   1.449   3.804  15.356  1.3972 -0.7994 -1.5610
12736TIP3    H259624   1.423   3.661  15.396 -0.1342 -0.4904 -1.4514
12737TIP3   OH259625   1.513   0.972  15.898 -0.5372 -0.2496 -0.7239
12737TIP3    H159626   1.564   1.024  15.959 -0.0791 -0.9076 -0.5408
12737TIP3    H259627   1.438   0.942  15.949 -1.5655  1.4129 -1.2224
12738TIP3   OH259628   5.545   3.240   5.362  0.1772  0.2140  0.8932
12738TIP3    H159629   5.522   3.209   5.275  0.9655 -1.8173  1.3721
12738TIP3    H259630   5.527   3.334   5.360  1.5489  0.4551 -1.9038
12739TIP3   OH259631   4.320   3.257  11.841  0.2124  0.5591 -0.2957
12739TIP3    H159632   4.250   3.251  11.775 -0.3724 -1.6952  0.4728
12739TIP3    H259633   4.369   3.176  11.830  1.1737  0.9745  0.8891
12740TIP3   OH259634   3.506   1.220   2.632 -0.4917  0.1886 -0.6910
12740TIP3    H159635   3.433   1.282   2.634 -0.0758  0.6705 -0.4263
12740TIP3    H259636   3.564   1.250   2.702 -0.6333 -0.9149 -0.0861
12741TIP3   OH259637   0.934   4.676   1.459 -0.0658 -0.3394  0.0001
12741TIP3    H159638   0.993   4.601   1.450  0.1125 -0.0884 -0.9166
12741TIP3    H259639   0.958   4.715   1.543 -1.1655 -2.1796  1.2211
12742TIP3   OH259640   1.251   2.387   5.500 -0.3008  0.0518  0.0617
12742TIP3    H159641   1.252   2.483   5.497 -1.3412  0.1608  2.2626
12742TIP3    H259642   1.179   2.362   5.443 -0.6293  0.6282  0.2211
12743TIP3   OH259643   1.926   0.665  16.647 -0.2265 -0.6571 -0.0338
12743TIP3    H159644   1.836   0.657  16.616 -1.0045 -2.9767  2.5512
12743TIP3    H259645   1.978   0.613  16.585 -0.8331 -0.2256 -0.9048
12744TIP3   OH259646   0.368   2.679  13.621 -0.4497 -0.1683 -0.2347
12744TIP3    H159647   0.421   2.685  13.542  0.5659  1.7367  0.5542
12744TIP3    H259648   0.363   2.585  13.639  3.3336 -0.3965  0.0764
12745TIP3   OH259649   4.237   5.823   4.147 -0.2986 -0.2533 -0.1248
12745TIP3    H159650   4.239   5.730   4.124 -3.1000  0.0371 -1.7880
12745TIP3    H259651   4.166   5.830   4.211  0.8997  0.5376  1.1455
12746TIP3   OH259652   5.797   3.588  12.876 -0.3259 -0.5274 -0.2924
12746TIP3    H159653   5.840   3.531  12.812 -0.5556 -0.6205 -0.3651
12746TIP3    H259654   5.704   3.573  12.861 -0.4298  1.3103 -1.6281
12747TIP3   OH259655   4.445   4.715  15.863  0.2004 -0.5153  0.0284
12747TIP3    H159656   4.490   4.789  15.904 -0.6506 -0.7186  1.3670
12747TIP3    H259657   4.485   4.637  15.901  0.8391 -0.7497 -1.0962
12748TIP3   OH259658   0.127   1.673   1.529 -0.2771 -0.3579 -0.4484
12748TIP3    H159659   0.171   1.638   1.452  1.5912 -0.7076  0.7393
12748TIP3    H259660   0.145   1.767   1.527  1.2501 -0.6056  0.4462
12749TIP3   OH259661   3.778   2.870   0.251 -0.0695  0.1982  0.6213
12749TIP3    H159662   3.693   2.866   0.208 -0.5220  0.8668  1.4401
12749TIP3    H259663   3.817   2.951   0.219  0.3101 -0.1519  0.1767
12750TIP3   OH259664   6.467   0.491   1.220 -0.0058 -0.1417 -0.5092
12750TIP3    H159665   6.550   0.536   1.207  0.3711 -1.2861 -2.1543
12750TIP3    H259666   6.401   0.552   1.187  0.0871  1.0177  1.3423
12751TIP3   OH259667   0.379   4.874  14.191 -0.1144 -0.1757 -0.6237
12751TIP3    H159668   0.368   4.969  14.186 -0.2499 -0.2473 -1.8444
12751TIP3    H259669   0.291   4.840  14.207 -0.1378 -0.1168 -0.6293
12752TIP3   OH259670   5.576   3.145   5.788 -0.5353 -0.2270 -0.2854
12752TIP3    H159671   5.512   3.205   5.826 -0.8604 -1.2070  0.7402
12752TIP3    H259672   5.544   3.129   5.699 -2.0227 -1.1322  0.3941
12753TIP3   OH259673   5.517   3.811   1.240 -0.4839 -0.5540 -0.2797
12753TIP3    H159674   5.607   3.824   1.268 -0.4945 -0.8721 -0.1036
12753TIP3    H259675   5.467   3.876   1.289 -0.4411 -0.8085  0.1014
12754TIP3   OH259676   1.132   4.864   3.045 -0.0661 -0.1987  0.3365
12754TIP3    H159677   1.072   4.938   3.050 -1.0763 -0.9984  0.2052
12754TIP3    H259678   1.219   4.904   3.038 -0.6752  0.9686 -0.7223
12755TIP3   OH259679   6.772   5.487  16.489  0.2557  0.5083  0.1774
12755TIP3    H159680   6.867   5.481  16.489  0.2760  0.7708  0.8873
12755TIP3    H259681   6.751   5.534  16.408  0.6719 -0.3138 -0.4061
12756TIP3   OH259682   4.791   0.941  15.956 -0.1203 -0.4641 -0.5053
12756TIP3    H159683   4.696   0.942  15.946 -0.3339 -0.2981  1.3193
12756TIP3    H259684   4.805   0.901  16.042  1.3358  1.8499  0.3929
12757TIP3   OH259685   5.773   1.503   1.413 -0.6921  0.0576  0.3353
12757TIP3    H159686   5.791   1.550   1.494 -0.4009 -0.5545  0.6265
12757TIP3    H259687   5.744   1.571   1.352  0.3165  0.7134  0.5687
12758TIP3   OH259688   0.223   6.730  11.392 -0.1390 -0.5160 -0.7581
12758TIP3    H159689   0.214   6.728  11.297 -1.3105 -0.4817 -0.6474
12758TIP3    H259690   0.172   6.655  11.422 -0.6997  0.1411 -0.0783
12759TIP3   OH259691   1.752   0.484  11.653 -0.1845 -0.1659 -0.0260
12759TIP3    H159692   1.790   0.419  11.712  0.6735  1.6999  1.5419
12759TIP3    H259693   1.812   0.559  11.658 -1.5406  1.0326 -1.2013
12760TIP3   OH259694   4.030   2.618  16.400  0.0895 -0.0566  0.4902
12760TIP3    H159695   4.041   2.634  16.494  1.2550 -0.2492  0.3956
12760TIP3    H259696   4.068   2.696  16.358  1.9324 -1.1148  0.1296
12761TIP3   OH259697   4.194   4.583  16.338  0.0805 -0.5751 -0.2037
12761TIP3    H159698   4.218   4.675  16.333 -0.5948 -0.3474  0.6094
12761TIP3    H259699   4.260   4.544  16.395 -0.0342 -0.4500  0.0148
12762TIP3   OH259700   6.282   5.279  17.015  0.4021  0.3275  0.5670
12762TIP3    H159701   6.304   5.223  16.940 -2.7828  0.4141 -0.4829
12762TIP3    H259702   6.295   5.368  16.983 -1.2992  0.3741  0.0024
12763TIP3   OH259703   5.066   2.265   5.117 -0.6046  0.0563  0.6673
12763TIP3    H159704   5.098   2.244   5.029  0.2815  1.2693  0.6829
12763TIP3    H259705   4.971   2.277   5.105 -0.8118 -1.8163  0.2856
12764TIP3   OH259706   2.956   1.963  11.811  0.3184  0.0145  0.2276
12764TIP3    H159707   2.898   1.955  11.735  0.3049  0.8621  0.1453
12764TIP3    H259708   2.929   1.893  11.870 -0.3722  0.0179 -0.0894
12765TIP3   OH259709   0.305   1.184  14.160 -0.0217 -0.1500 -0.5153
12765TIP3    H159710   0.246   1.213  14.090  0.6332  0.2540 -0.9058
12765TIP3    H259711   0.263   1.105  14.195  1.0028 -1.9423 -3.2023
12766TIP3   OH259712   4.023   3.312  15.664  0.1559  0.1482  0.1616
12766TIP3    H159713   4.057   3.298  15.576 -3.5502  0.6783 -1.4416
12766TIP3    H259714   4.031   3.406  15.678 -1.0354  0.3388 -0.3998
12767TIP3   OH259715   1.594   4.839   6.398 -0.1299 -0.0745 -0.6610
12767TIP3    H159716   1.682   4.848   6.432  0.0384  1.0018 -1.3517
12767TIP3    H259717   1.556   4.927   6.405 -2.0904 -1.0568  2.1460
12768TIP3   OH259718   2.581   6.425   0.491  0.2534 -0.6394 -0.6385
12768TIP3    H159719   2.615   6.344   0.453  1.2633 -0.0964 -0.9115
12768TIP3    H259720   2.538   6.397   0.572 -0.2021 -1.5570 -1.1916
12769TIP3   OH259721   4.441   1.524   4.681  0.0128  0.1695 -0.4608
12769TIP3    H159722   4.495   1.445   4.689  1.8374  1.6116  1.7016
12769TIP3    H259723   4.353   1.496   4.709  0.7092 -1.0324  0.5467
12770TIP3   OH259724   4.530   0.812   0.243  0.6050 -0.2011  0.1686
12770TIP3    H159725   4.515   0.826   0.149 -1.2376 -1.6056  0.2367
12770TIP3    H259726   4.593   0.739   0.246 -0.6681 -1.3165  0.0402
12771TIP3   OH259727   1.258   6.460   1.395 -0.6518 -0.2257 -0.4215
12771TIP3    H159728   1.176   6.480   1.348 -0.1267  1.1063 -0.7987
12771TIP3    H259729   1.303   6.544   1.400  0.3301 -0.8072  0.5048
12772TIP3   OH259730   3.197   6.018   3.558  0.2174 -0.8364 -0.1351
12772TIP3    H159731   3.266   5.972   3.606  1.0103  0.1426 -0.3224
12772TIP3    H259732   3.122   6.017   3.617  1.1332  0.2018  1.0595
12773TIP3   OH259733   1.393   0.048   5.164 -0.4903  0.6741 -0.0170
12773TIP3    H159734   1.368   0.122   5.108  0.8714  1.0487 -0.1463
12773TIP3    H259735   1.431   0.088   5.242  1.6917  0.1145 -0.7663
12774TIP3   OH259736   2.333   3.619   5.840 -0.1681  0.7606 -0.2760
12774TIP3    H159737   2.419   3.650   5.866  0.2219  0.1398 -0.8082
12774TIP3    H259738   2.280   3.699   5.834  0.1894  1.0749  0.6932
12775TIP3   OH259739   1.607   6.292   4.887  0.7988 -0.0937 -0.1833
12775TIP3    H159740   1.560   6.233   4.946  1.2031  0.3904  0.6272
12775TIP3    H259741   1.540   6.353   4.855  0.4929 -0.6337 -0.5753
12776TIP3   OH259742   2.006   2.326   1.536  0.4591  0.4730 -0.3221
12776TIP3    H159743   1.987   2.355   1.447 -0.3714 -0.9621 -0.6239
12776TIP3    H259744   2.092   2.364   1.556  1.3305 -0.4068 -2.2826
12777TIP3   OH259745   3.507   3.392   4.734 -0.1406 -0.1929 -0.2289
12777TIP3    H159746   3.576   3.329   4.754 -2.0913 -2.3110 -0.0482
12777TIP3    H259747   3.513   3.404   4.639  0.9710  0.2376 -0.1098
12778TIP3   OH259748   0.019   5.030   2.393 -0.5388 -0.3692  0.5786
12778TIP3    H159749  -0.029   4.990   2.320  0.8380 -0.0371 -0.5304
12778TIP3    H259750   0.049   4.956   2.445 -0.1639 -0.6803 -0.0754
12779TIP3   OH259751   3.508   5.987  13.639  0.3924  0.2119  0.6100
12779TIP3    H159752   3.425   6.014  13.602  0.6840 -1.1305 -1.0814
12779TIP3    H259753   3.566   6.062  13.627 -0.8421  1.5507  2.7780
12780TIP3   OH259754   1.241   3.407  15.138  0.2581  0.1905  0.3107
12780TIP3    H159755   1.175   3.418  15.071 -2.4847 -0.6446  2.7670
12780TIP3    H259756   1.302   3.342  15.102 -0.4199  0.7228 -1.8332
12781TIP3   OH259757   4.303   6.370   2.690 -0.4201  0.1841  0.3795
12781TIP3    H159758   4.298   6.389   2.784 -3.7083  2.6565 -0.1707
12781TIP3    H259759   4.252   6.289   2.680  0.6189 -0.5400  0.7838
12782TIP3   OH259760   3.242   3.029  15.663 -0.1864  0.1331  0.2648
12782TIP3    H159761   3.240   3.055  15.755  0.5585  0.0789  0.2977
12782TIP3    H259762   3.151   3.011  15.642 -0.4421  0.7326  0.8237
12783TIP3   OH259763   3.008   4.643  16.223  0.6254  0.1810 -0.6522
12783TIP3    H159764   2.932   4.667  16.170  0.0305  0.0587  0.1297
12783TIP3    H259765   3.009   4.547  16.221 -2.0720 -0.0599  3.1580
12784TIP3   OH259766   0.688   1.803  14.227 -0.2395  0.5556  0.4732
12784TIP3    H159767   0.651   1.880  14.182 -2.2561 -0.7425 -0.1592
12784TIP3    H259768   0.661   1.814  14.318 -2.3154 -0.3977  0.0129
12785TIP3   OH259769   3.520   5.345  10.550 -0.0675  0.5758 -0.4271
12785TIP3    H159770   3.465   5.411  10.507 -0.5438  0.7885  0.5051
12785TIP3    H259771   3.519   5.369  10.642  1.6029  0.5758 -0.3954
12786TIP3   OH259772   6.486   0.751   4.779  0.0416  0.2278  0.4920
12786TIP3    H159773   6.473   0.736   4.873  0.2108  0.6750  0.5918
12786TIP3    H259774   6.574   0.789   4.773  1.1870 -2.4474 -0.1432
12787TIP3   OH259775   6.443   5.114  16.372 -0.4589  0.4082  0.4537
12787TIP3    H159776   6.422   5.207  16.368  0.8199  0.6527 -1.1837
12787TIP3    H259777   6.501   5.105  16.447  2.5999  1.6296 -1.6829
12788TIP3   OH259778   1.909   4.738  12.035  0.5408 -0.1368 -0.4893
12788TIP3    H159779   1.817   4.761  12.021  0.1945 -0.9695  0.3803
12788TIP3    H259780   1.947   4.814  12.079 -0.0920 -0.3985  0.5119
12789TIP3   OH259781   0.445   1.163   1.756 -0.4425 -0.0501 -0.7047
12789TIP3    H159782   0.413   1.214   1.831 -1.9210  1.2240 -2.1847
12789TIP3    H259783   0.539   1.153   1.772 -0.4161  1.8185  0.3762
12790TIP3   OH259784   3.668   1.163   1.818 -0.5253  0.5934 -0.3055
12790TIP3    H159785   3.573   1.169   1.827 -0.6522  0.1917 -1.2954
12790TIP3    H259786   3.702   1.223   1.884 -1.4628  0.7555  0.0447
12791TIP3   OH259787   5.694   3.082   4.896  0.2117  0.1980 -0.1201
12791TIP3    H159788   5.674   2.991   4.871  1.2638  0.0083 -0.2824
12791TIP3    H259789   5.787   3.081   4.917  0.6670  1.6275 -1.8804
12792TIP3   OH259790   5.235   0.755   2.830 -0.2404 -0.3836  0.2199
12792TIP3    H159791   5.282   0.736   2.911  1.7476 -2.0738 -1.2715
12792TIP3    H259792   5.166   0.816   2.856  0.3235 -0.9284  3.1747
12793TIP3   OH259793   6.469   2.760  12.076  0.3051  0.2686  0.1726
12793TIP3    H159794   6.454   2.804  12.160  1.3391  1.6788 -0.3479
12793TIP3    H259795   6.468   2.831  12.012  0.6883 -0.6458 -0.8653
12794TIP3   OH259796   6.635   5.510  16.242 -0.3603  0.4835  0.0028
12794TIP3    H159797   6.578   5.436  16.264  1.2600 -0.0429  2.5864
12794TIP3    H259798   6.710   5.469  16.198  0.2041  0.6578  0.7992
12795TIP3   OH259799   5.130   0.465  16.470  0.1716 -0.3403 -0.2412
12795TIP3    H159800   5.128   0.372  16.494  1.6951 -0.1118  0.9078
12795TIP3    H259801   5.046   0.500  16.498  0.2896 -1.0048  0.9722
12796TIP3   OH259802   2.593   5.502   6.342  0.2228 -0.9283  0.3237
12796TIP3    H159803   2.529   5.491   6.271 -0.7313 -0.3777  1.0772
12796TIP3    H259804   2.589   5.420   6.391  0.3473 -1.0293  0.1634
12797TIP3   OH259805   3.269   1.362  17.037 -0.1517 -0.1616  0.4452
12797TIP3    H159806   3.299   1.451  17.020 -0.6195  0.1161  1.0463
12797TIP3    H259807   3.261   1.358  17.132 -0.8748 -0.6027  0.3654
12798TIP3   OH259808   4.066   2.278   3.213 -0.0529 -0.2002 -0.0848
12798TIP3    H159809   4.157   2.269   3.185  0.4537 -1.4083  1.8567
12798TIP3    H259810   4.041   2.191   3.245 -1.4790  0.4238  0.5770
12799TIP3   OH259811   3.470   6.782  16.658  0.2010  0.0678 -0.3515
12799TIP3    H159812   3.490   6.808  16.568 -1.3993  0.3454 -0.6285
12799TIP3    H259813   3.412   6.707  16.650 -0.2090  0.2932  0.4530
12800TIP3   OH259814   2.630   4.483  11.521 -0.0893  0.3049 -0.5510
12800TIP3    H159815   2.711   4.531  11.507  0.1820  0.0679  0.1658
12800TIP3    H259816   2.654   4.415  11.584 -1.0144  0.6792  0.2064
12801TIP3   OH259817   3.386   2.934   3.719 -0.5007 -0.1120 -0.3533
12801TIP3    H159818   3.309   2.978   3.683  0.4157  2.2993  0.5574
12801TIP3    H259819   3.450   3.003   3.731  1.5949 -1.9764 -0.4308
12802TIP3   OH259820   3.315   1.419  14.892 -0.1160  0.1377 -0.3463
12802TIP3    H159821   3.230   1.447  14.860 -0.6012  0.9074  1.5785
12802TIP3    H259822   3.373   1.494  14.876 -0.6290  0.9704  1.6410
12803TIP3   OH259823   4.289   5.009  12.508 -0.3330 -0.0125 -0.7475
12803TIP3    H159824   4.234   4.950  12.457 -1.0958 -0.1722  0.2218
12803TIP3    H259825   4.343   5.054  12.444 -0.6393 -0.8501 -1.6038
12804TIP3   OH259826   2.058   4.095  11.122  0.1186  0.1440 -0.0748
12804TIP3    H159827   2.124   4.027  11.112 -0.2084 -0.6502  2.6304
12804TIP3    H259828   1.977   4.047  11.143 -0.4105  1.2781  0.5565
12805TIP3   OH259829   2.789   6.778  15.633 -0.4122 -0.3742  0.5759
12805TIP3    H159830   2.799   6.797  15.539 -2.3614  1.8059  0.7787
12805TIP3    H259831   2.744   6.693  15.635  1.6117 -1.4890 -0.4281
12806TIP3   OH259832   4.750   3.504   0.846 -0.3400 -0.0766 -0.0420
12806TIP3    H159833   4.841   3.522   0.872 -0.5984 -1.5289  1.9478
12806TIP3    H259834   4.759   3.451   0.766  0.5898 -0.5084  0.3278
12807TIP3   OH259835   5.750   6.432  12.658  0.3022 -0.0975 -0.0751
12807TIP3    H159836   5.666   6.447  12.615  0.5623 -1.9238 -1.2802
12807TIP3    H259837   5.728   6.418  12.750 -0.8498 -1.5857 -0.5502
12808TIP3   OH259838   1.963   3.445  13.636 -0.0366 -0.2563 -0.1620
12808TIP3    H159839   1.992   3.383  13.569 -0.5050 -0.8891  0.2234
12808TIP3    H259840   1.929   3.390  13.707 -0.1378  0.4301  0.3250
12809TIP3   OH259841   0.037   2.041   2.830  0.3755  0.1824 -0.0149
12809TIP3    H159842   0.002   1.952   2.830  0.4432  0.1466  1.2166
12809TIP3    H259843  -0.002   2.083   2.907 -0.7613  1.6804 -1.3581
12810TIP3   OH259844   3.124   0.832  16.059 -0.6043  0.1545 -0.1278
12810TIP3    H159845   3.139   0.741  16.084 -1.2963  0.5457  1.8111
12810TIP3    H259846   3.169   0.842  15.975  0.1007 -1.7701  0.0038
12811TIP3   OH259847   4.221   1.586   3.496 -0.5591  0.0955 -0.6483
12811TIP3    H159848   4.237   1.629   3.580 -0.2167 -0.4033 -0.4593
12811TIP3    H259849   4.126   1.585   3.487 -0.5984  0.1025 -0.2454
12812TIP3   OH259850   4.042   1.314  14.165  0.0790 -0.6105 -0.1736
12812TIP3    H159851   4.134   1.307  14.142  0.3573  0.2144  0.6754
12812TIP3    H259852   4.036   1.392  14.220 -1.3771  0.2565 -1.5119
12813TIP3   OH259853   1.829   2.848  15.025 -0.2410  0.1443  0.6706
12813TIP3    H159854   1.898   2.869  15.088 -0.2714  1.4921  0.2844
12813TIP3    H259855   1.765   2.798  15.076  0.4511 -0.0724  1.3315
12814TIP3   OH259856   2.630   5.771  13.910  0.1145 -0.0360 -0.3653
12814TIP3    H159857   2.606   5.863  13.914  0.0511 -0.0385 -0.6684
12814TIP3    H259858   2.674   5.761  13.825 -0.3813 -0.4005 -0.5831
12815TIP3   OH259859   2.763   3.570   0.924  0.2137  0.4339 -0.2839
12815TIP3    H159860   2.743   3.605   0.837  1.1694  0.6919 -0.4154
12815TIP3    H259861   2.855   3.541   0.917  0.2150  0.2236  0.5607
12816TIP3   OH259862   4.564   1.574   2.371  0.6085  0.2484  0.3267
12816TIP3    H159863   4.505   1.580   2.296  0.6961 -2.6871 -0.0463
12816TIP3    H259864   4.516   1.617   2.442 -1.6362 -1.2861 -0.1902
12817TIP3   OH259865   3.182   3.945   5.545 -0.0681  0.2323  0.0867
12817TIP3    H159866   3.232   3.913   5.620 -0.5321  1.0530  0.7602
12817TIP3    H259867   3.247   3.987   5.489  0.3984 -1.0560 -0.3533
12818TIP3   OH259868   3.326   4.275   0.358  0.1672  0.0042 -0.5515
12818TIP3    H159869   3.254   4.214   0.369  0.5766 -0.3872  0.0115
12818TIP3    H259870   3.319   4.306   0.268 -0.8757  0.1927 -0.4057
12819TIP3   OH259871   0.715   4.168   0.367  0.0642 -0.4340 -0.0789
12819TIP3    H159872   0.627   4.207   0.362  0.3610  0.2146 -0.3880
12819TIP3    H259873   0.705   4.080   0.333  0.0221  0.4868 -2.5601
12820TIP3   OH259874   5.734   6.198  11.244  0.7422  0.3774 -0.1094
12820TIP3    H159875   5.684   6.226  11.168 -0.3056 -0.9780  0.0780
12820TIP3    H259876   5.766   6.111  11.222  2.3700  0.8937  0.0997
12821TIP3   OH259877   2.809   4.105   4.154 -0.0108 -0.0272 -0.3847
12821TIP3    H159878   2.803   4.133   4.246  0.6077 -1.2832  0.0460
12821TIP3    H259879   2.721   4.119   4.119 -0.1841  0.7157  0.3267
12822TIP3   OH259880   4.653   2.025  12.527 -0.2021 -0.1205 -0.2364
12822TIP3    H159881   4.637   2.016  12.621 -0.7956 -1.3041 -0.4362
12822TIP3    H259882   4.653   2.119  12.512  0.4600  0.1031  1.0413
12823TIP3   OH259883   4.845   5.384  16.757 -0.1756 -0.6730 -0.0622
12823TIP3    H159884   4.790   5.333  16.698 -1.3146 -1.2849  1.4945
12823TIP3    H259885   4.852   5.470  16.714  1.0909 -1.8461 -2.2903
12824TIP3   OH259886   2.625   2.329  14.808 -0.0641  0.4308 -0.0357
12824TIP3    H159887   2.672   2.255  14.770  0.3093  0.1924  0.8758
12824TIP3    H259888   2.544   2.335  14.757  0.8004  0.6361 -1.3939
12825TIP3   OH259889   2.030   6.703   2.422  0.2327  0.3119 -0.0327
12825TIP3    H159890   2.124   6.695   2.408 -0.2418 -0.5119 -3.0917
12825TIP3    H259891   2.002   6.774   2.364 -1.1577 -0.0747  0.1300
12826TIP3   OH259892   4.329   0.734   2.229  0.3777  0.0213  0.0616
12826TIP3    H159893   4.352   0.787   2.306  0.3830 -0.9161  0.7170
12826TIP3    H259894   4.318   0.797   2.158 -1.3396  1.0724  1.2387
12827TIP3   OH259895   5.975   0.029   3.119  0.1862 -0.0917  0.1943
12827TIP3    H159896   5.996  -0.014   3.201  0.5926 -1.4094 -0.5847
12827TIP3    H259897   5.942   0.115   3.145  5.0534  1.5692  1.5963
12828TIP3   OH259898   3.327   0.800  13.331  0.5294 -0.2389  0.0350
12828TIP3    H159899   3.253   0.742  13.347  0.7355  0.2417  2.9383
12828TIP3    H259900   3.309   0.839  13.245 -2.7735  0.1421  0.8522
12829TIP3   OH259901   0.484   1.827  16.637  0.7206  0.4033 -0.2733
12829TIP3    H159902   0.403   1.853  16.682 -0.2183 -3.5479  0.5716
12829TIP3    H259903   0.554   1.854  16.696 -0.2448  0.0434  1.0703
12830TIP3   OH259904   0.719   2.226   4.911  0.1647  0.6270 -0.2317
12830TIP3    H159905   0.637   2.184   4.936  0.5500 -0.1456 -0.2422
12830TIP3    H259906   0.706   2.252   4.819  0.0509  0.2118 -0.3334
12831TIP3   OH259907   5.383   1.952  16.267  0.0986 -0.2392 -0.1290
12831TIP3    H159908   5.363   1.868  16.310  0.5078  0.4800  1.5184
12831TIP3    H259909   5.452   1.990  16.321 -0.8156  1.6383 -0.2623
12832TIP3   OH259910   2.765   1.507  16.636 -0.1351 -0.1149 -0.2989
12832TIP3    H159911   2.711   1.579  16.667  1.8231  1.4841 -0.4987
12832TIP3    H259912   2.732   1.488  16.548 -3.2204 -2.1328  1.2260
12833TIP3   OH259913   6.603   1.847  12.150 -0.2262 -0.8050  0.2666
12833TIP3    H159914   6.695   1.821  12.145  0.4121  1.4657 -0.7738
12833TIP3    H259915   6.597   1.896  12.232 -0.4298 -0.6772  0.1750
12834TIP3   OH259916   0.662   1.633   2.905  0.2587 -0.3650  0.3092
12834TIP3    H159917   0.636   1.542   2.917  0.8296 -0.2812  2.3980
12834TIP3    H259918   0.744   1.629   2.857  0.3123 -0.9474  0.4576
12835TIP3   OH259919   5.743   6.146   1.621  0.0515  0.0336 -0.5015
12835TIP3    H159920   5.828   6.190   1.618 -0.0678  0.2257 -1.0818
12835TIP3    H259921   5.690   6.200   1.680  0.9165 -1.1264  1.3477
12836TIP3   OH259922   4.873   3.256  12.303  0.8062  0.0625  0.3951
12836TIP3    H159923   4.904   3.216  12.221 -1.5624 -2.1083  0.5023
12836TIP3    H259924   4.814   3.326  12.275 -1.3388 -1.7824  0.2164
12837TIP3   OH259925   1.852   2.929  16.452 -0.0318  0.2895  0.5580
12837TIP3    H159926   1.928   2.886  16.415 -0.8141 -0.5623 -0.0898
12837TIP3    H259927   1.856   3.019  16.420  0.3607  0.0764  0.0158
12838TIP3   OH259928   3.955   3.063  16.165  0.3964  0.6059  0.2617
12838TIP3    H159929   4.009   3.140  16.181  1.8755 -0.5910  1.1120
12838TIP3    H259930   4.002   3.014  16.098 -1.4725  1.3253 -1.6592
12839TIP3   OH259931   1.685   3.403   1.939 -0.3695 -0.2023 -0.3089
12839TIP3    H159932   1.769   3.383   1.980 -0.2342  2.6641  0.8890
12839TIP3    H259933   1.632   3.324   1.956  1.8683 -1.8318 -0.6341
12840TIP3   OH259934   5.662   3.502  11.122  0.2176  0.4292  0.2465
12840TIP3    H159935   5.749   3.508  11.162  0.6461  1.5690 -0.7965
12840TIP3    H259936   5.672   3.440  11.050 -0.1938 -0.5229  1.0009
12841TIP3   OH259937   5.310   2.372   1.329  0.2278 -0.2372 -0.1658
12841TIP3    H159938   5.333   2.441   1.266  0.7597 -1.2829 -1.1483
12841TIP3    H259939   5.313   2.291   1.277 -0.9108 -0.9425  0.8458
12842TIP3   OH259940   3.409   1.935   5.644  0.4993  0.0148 -0.5546
12842TIP3    H159941   3.485   1.880   5.628  1.3687  0.5789  1.4140
12842TIP3    H259942   3.430   1.982   5.725 -2.1122 -0.1380  0.2636
12843TIP3   OH259943   2.116   5.559  16.792 -0.3974 -0.2683 -0.0369
12843TIP3    H159944   2.132   5.613  16.714 -0.3892 -0.7481 -0.3681
12843TIP3    H259945   2.028   5.585  16.821 -0.5029 -0.2748 -0.3537
12844TIP3   OH259946   0.927   0.226  11.053 -0.4034  0.0702 -0.3574
12844TIP3    H159947   0.845   0.234  11.102 -0.0012 -0.8332  0.4670
12844TIP3    H259948   0.953   0.317  11.035 -1.6013  0.3627 -0.6768
12845TIP3   OH259949   2.079   1.613  10.816 -0.2637 -0.5574  0.7769
12845TIP3    H159950   2.081   1.695  10.864  1.2725  0.2974 -0.6631
12845TIP3    H259951   2.010   1.625  10.750  0.3944 -0.1460  0.1487
12846TIP3   OH259952   5.822   2.734  15.477 -0.2727 -0.2854 -0.3250
12846TIP3    H159953   5.812   2.798  15.407  0.1332  1.1985  0.9466
12846TIP3    H259954   5.912   2.747  15.509 -0.7646 -0.2605  1.0982
12847TIP3   OH259955   6.493   4.959   1.699  0.2173 -0.3874 -0.3177
12847TIP3    H159956   6.400   4.953   1.678  0.3797  0.5634 -1.3471
12847TIP3    H259957   6.525   4.869   1.691 -0.1856 -0.4042 -2.0322
12848TIP3   OH259958   6.023   3.132   1.025 -0.1295 -0.9048  0.1826
12848TIP3    H159959   6.005   3.051   0.977 -4.2465 -0.9480  1.6198
12848TIP3    H259960   6.034   3.198   0.956 -0.4153 -2.0059 -0.9350
12849TIP3   OH259961   0.463   2.565  14.246  0.1229  0.4451 -0.5226
12849TIP3    H159962   0.497   2.651  14.272 -1.3510  1.1989 -0.9952
12849TIP3    H259963   0.417   2.533  14.324 -0.4579  0.6815 -0.7670
12850TIP3   OH259964   3.980   0.229  12.751  0.0333 -0.0665  0.5185
12850TIP3    H159965   4.020   0.212  12.836 -2.6061 -1.1957  1.5883
12850TIP3    H259966   3.976   0.143  12.709 -2.1491 -0.1747  0.8755
12851TIP3   OH259967   5.853   2.047  13.225 -0.6471 -0.3401  0.3937
12851TIP3    H159968   5.812   2.129  13.198 -1.5335 -0.4699  1.3515
12851TIP3    H259969   5.806   1.979  13.176 -0.3414 -0.3423  0.0950
12852TIP3   OH259970   1.278   5.931  15.252 -0.2894  0.0279  0.3078
12852TIP3    H159971   1.323   5.927  15.336  1.7234 -1.2437 -0.7914
12852TIP3    H259972   1.345   5.960  15.190 -0.8471 -2.3146 -1.4572
12853TIP3   OH259973   0.109   0.146   3.929  0.0155 -0.7760 -0.5253
12853TIP3    H159974   0.039   0.203   3.898  0.3511 -0.5915 -0.9520
12853TIP3    H259975   0.064   0.071   3.967 -0.4234 -0.3956 -0.2850
12854TIP3   OH259976   2.136   6.518  16.744 -0.9419  0.1079 -0.0862
12854TIP3    H159977   2.119   6.499  16.652 -0.6080 -0.1666 -0.0954
12854TIP3    H259978   2.182   6.601  16.744  0.7957 -0.8228 -0.3207
12855TIP3   OH259979   6.000   6.207   1.636 -0.5233  0.2089 -0.4954
12855TIP3    H159980   6.022   6.114   1.631 -0.2409  0.2297  0.2521
12855TIP3    H259981   6.022   6.242   1.550  2.3648  0.2268  0.2016
12856TIP3   OH259982   5.326   6.080   2.315  0.0651 -0.0023  0.1139
12856TIP3    H159983   5.389   6.012   2.336 -0.1586 -0.0798  0.5519
12856TIP3    H259984   5.283   6.050   2.235  1.7494  0.8552 -1.1401
12857TIP3   OH259985   3.836   0.329   2.164 -0.5157  0.1950 -0.0375
12857TIP3    H159986   3.892   0.269   2.113 -2.3571 -0.2590 -1.5687
12857TIP3    H259987   3.847   0.414   2.120 -1.0262  0.1063 -0.3337
12858TIP3   OH259988   3.100   6.314   4.694  0.1543  0.6411 -0.0844
12858TIP3    H159989   3.049   6.390   4.722 -0.8745 -0.7034  1.7827
12858TIP3    H259990   3.183   6.321   4.742 -0.7228 -0.4580  1.6174
12859TIP3   OH259991   2.299   4.186   2.795 -0.3121  0.2198  0.5626
12859TIP3    H159992   2.378   4.153   2.754  0.9643 -0.3459  3.3246
12859TIP3    H259993   2.271   4.258   2.739  0.5836 -1.3247 -1.9383
12860TIP3   OH259994   3.340   0.214  12.365 -0.2502  0.0515  0.2092
12860TIP3    H159995   3.380   0.271  12.430  1.1391  1.6772 -1.9836
12860TIP3    H259996   3.251   0.249  12.355  0.3478  1.4079 -0.5652
12861TIP3   OH259997   4.492   6.438  15.880 -0.2960  0.3526 -0.0202
12861TIP3    H159998   4.554   6.376  15.917  0.1717  0.2776 -0.9016
12861TIP3    H259999   4.522   6.523  15.913  0.5139  0.3587 -0.7453
12862TIP3   OH260000   3.959   2.272  11.854 -0.6357 -0.0496 -0.0943
12862TIP3    H160001   3.987   2.363  11.865 -2.3018  0.5566 -0.7184
12862TIP3    H260002   3.991   2.248  11.767  1.0303 -0.5280  0.6434
12863TIP3   OH260003   1.603   2.473   1.120 -0.0150 -0.2712  0.2214
12863TIP3    H160004   1.593   2.389   1.166 -0.1184 -0.5893 -0.3667
12863TIP3    H260005   1.601   2.449   1.027 -2.7452  0.6721  0.0081
12864TIP3   OH260006   2.874   6.743   5.666  0.1763 -0.0679  0.4225
12864TIP3    H160007   2.872   6.787   5.750  0.1568 -1.0444  0.9417
12864TIP3    H260008   2.822   6.798   5.608  0.2071  0.6176  1.0433
12865TIP3   OH260009   1.619   0.573   0.388 -0.1439 -0.0138 -0.1745
12865TIP3    H160010   1.712   0.561   0.369 -0.2921 -1.3298 -0.1511
12865TIP3    H260011   1.601   0.512   0.459 -0.6667  1.4418  0.9530
12866TIP3   OH260012   2.116   4.077   6.729 -0.9787 -0.3148  0.1073
12866TIP3    H160013   2.092   4.170   6.724  0.6142  0.3263  2.9682
12866TIP3    H260014   2.194   4.069   6.674 -0.3864  0.3408  0.8368
12867TIP3   OH260015   2.029   3.089  13.633  0.3443  0.3108  1.0087
12867TIP3    H160016   2.023   3.147  13.557  1.1366  0.4464  1.0456
12867TIP3    H260017   2.030   3.148  13.708  0.2793  0.2084  1.0909
12868TIP3   OH260018   1.186   1.172   3.225  0.1778  0.3828 -0.2458
12868TIP3    H160019   1.206   1.263   3.202  0.2365  0.9955  2.1048
12868TIP3    H260020   1.091   1.167   3.222  0.1985  0.3179 -1.0335
12869TIP3   OH260021   0.911   3.682  12.413  0.5864  0.5915  0.2959
12869TIP3    H160022   0.827   3.654  12.376  0.7694  0.6227 -0.1429
12869TIP3    H260023   0.888   3.721  12.497  0.2599 -0.2981  0.6282
12870TIP3   OH260024   1.561   6.011   5.749  0.3462  0.0013 -0.2701
12870TIP3    H160025   1.587   5.960   5.672  1.7601 -0.9543  0.8091
12870TIP3    H260026   1.536   5.944   5.813 -2.1093  0.8211 -0.3290
12871TIP3   OH260027   6.628   3.728   0.166  0.4202  0.1212  0.3271
12871TIP3    H160028   6.666   3.799   0.218 -0.5097  0.0119  1.1792
12871TIP3    H260029   6.649   3.649   0.216 -1.8506  0.1522  1.4161
12872TIP3   OH260030   0.464   1.836  15.924 -0.1249  0.5492 -0.1408
12872TIP3    H160031   0.538   1.821  15.983  1.7781 -0.7154 -2.7261
12872TIP3    H260032   0.460   1.931  15.915  0.9684  0.6394  0.2787
12873TIP3   OH260033   4.939   4.617   4.509 -0.0820  0.1339 -0.3577
12873TIP3    H160034   5.019   4.572   4.534 -0.0601  0.2699 -0.1792
12873TIP3    H260035   4.869   4.565   4.548 -0.0187  0.6526  0.4672
12874TIP3   OH260036   5.871   2.181   1.816  0.2529  0.0744 -0.3284
12874TIP3    H160037   5.966   2.176   1.821  0.3183 -0.1494 -1.6464
12874TIP3    H260038   5.851   2.274   1.829  0.7309  0.3150 -1.2793
12875TIP3   OH260039   4.421   3.157   6.107  0.1209 -0.2450 -0.4289
12875TIP3    H160040   4.416   3.206   6.189 -2.6040  0.3355 -0.8798
12875TIP3    H260041   4.473   3.212   6.049  1.3970 -0.2956  0.6365
12876TIP3   OH260042   1.442   4.932  11.605  0.4151 -0.0036  0.6035
12876TIP3    H160043   1.482   5.010  11.569 -1.2018  1.5820  2.1282
12876TIP3    H260044   1.432   4.951  11.699 -0.9750 -1.5893  0.8066
12877TIP3   OH260045   0.821   0.741   6.202 -0.5542  0.5196 -0.0194
12877TIP3    H160046   0.745   0.789   6.236 -1.2743 -1.3765  1.1299
12877TIP3    H260047   0.897   0.792   6.233 -1.3175  1.4607  0.3239
12878TIP3   OH260048   3.959   2.624  15.318 -0.0073  0.2469 -0.1158
12878TIP3    H160049   3.974   2.542  15.270 -2.2889  0.4207 -1.2094
12878TIP3    H260050   4.043   2.644  15.358  0.2782 -3.3056  1.2377
12879TIP3   OH260051   2.856   2.785   0.238 -0.2185 -0.6163  0.2132
12879TIP3    H160052   2.858   2.875   0.204 -3.7008 -0.4784  0.1905
12879TIP3    H260053   2.898   2.791   0.324 -1.4520  1.2992  0.7255
12880TIP3   OH260054   2.021   2.661   5.483 -0.0164  0.3573  0.2468
12880TIP3    H160055   2.085   2.594   5.460 -1.3713 -0.9069  0.0961
12880TIP3    H260056   2.069   2.743   5.474  1.1663 -0.4598 -1.3340
12881TIP3   OH260057   5.974   3.022  14.667  0.1228 -0.3074  0.0977
12881TIP3    H160058   6.011   2.937  14.643 -0.1458 -0.5838  0.6514
12881TIP3    H260059   6.037   3.086  14.634  0.5007 -0.7362 -0.0105
12882TIP3   OH260060   5.712   4.182  14.164  0.0038  0.6727 -0.3195
12882TIP3    H160061   5.710   4.274  14.188 -2.4418  0.6134 -0.1751
12882TIP3    H260062   5.683   4.136  14.243 -0.9555 -0.0474 -1.0776
12883TIP3   OH260063   4.164   1.373  11.115  0.0362  0.2294 -0.0201
12883TIP3    H160064   4.155   1.374  11.020  0.0592 -0.5788 -0.0371
12883TIP3    H260065   4.082   1.410  11.147 -0.4774 -0.6174 -0.3340
12884TIP3   OH260066   5.309   4.952  12.491 -0.5237  0.2567  0.3458
12884TIP3    H160067   5.382   4.908  12.534  0.0259  0.5157 -0.2974
12884TIP3    H260068   5.348   4.994  12.414 -0.9663  2.1973  1.1515
12885TIP3   OH260069   4.023   1.813   2.184  0.4742 -0.1323  0.6182
12885TIP3    H160070   4.072   1.797   2.265 -0.7468 -2.1186  1.0050
12885TIP3    H260071   3.963   1.884   2.206 -0.7910 -1.5658  1.8794
12886TIP3   OH260072   0.677   2.605   4.637 -0.0213 -0.3648  0.5203
12886TIP3    H160073   0.745   2.557   4.684  0.2795 -1.8955 -1.4315
12886TIP3    H260074   0.602   2.546   4.637 -0.1665 -0.1793 -0.5098
12887TIP3   OH260075   0.372   4.867   2.536 -0.7743  0.1124 -0.6798
12887TIP3    H160076   0.390   4.855   2.443  2.7020 -1.5493  0.1484
12887TIP3    H260077   0.324   4.788   2.561 -2.1268  0.7736 -1.1168
12888TIP3   OH260078   2.728   1.481  16.105  0.2863 -0.7502 -0.3944
12888TIP3    H160079   2.824   1.480  16.110  0.3704 -2.0220 -1.7179
12888TIP3    H260080   2.709   1.513  16.017 -0.4926 -0.8497 -0.2662
12889TIP3   OH260081   0.048   3.505   4.836  0.4490 -0.1425 -0.5118
12889TIP3    H160082  -0.040   3.519   4.871  0.4512  0.9296 -0.9355
12889TIP3    H260083   0.036   3.441   4.766 -0.0718  0.3830 -0.9094
12890TIP3   OH260084   2.419   6.756  14.121  0.0189 -0.2790 -0.3485
12890TIP3    H160085   2.482   6.724  14.056  0.6227  0.0466  0.0672
12890TIP3    H260086   2.390   6.677  14.167 -0.8297 -0.5712 -1.3791
12891TIP3   OH260087   6.034   5.449   3.223  0.1072 -0.8231 -1.0795
12891TIP3    H160088   6.052   5.513   3.154  0.8654  0.6562  0.4838
12891TIP3    H260089   6.068   5.367   3.187  1.5251  0.1456 -2.0307
12892TIP3   OH260090   4.365   2.343   4.498 -0.0564 -0.5379 -0.1251
12892TIP3    H160091   4.275   2.351   4.467 -0.5690  0.5505  1.5740
12892TIP3    H260092   4.418   2.348   4.418 -1.4874 -1.1540 -1.1336
12893TIP3   OH260093   3.627   5.440  13.041  0.2097 -0.0578  0.0209
12893TIP3    H160094   3.675   5.360  13.063  0.8863  0.6376  1.1740
12893TIP3    H260095   3.607   5.480  13.126 -0.1475  0.9861 -0.5392
12894TIP3   OH260096   1.884   4.432   5.744 -0.6124  0.0330  0.2428
12894TIP3    H160097   1.906   4.522   5.719 -1.1815  0.4988  1.3478
12894TIP3    H260098   1.920   4.423   5.832 -2.2274 -0.1738  0.8982
12895TIP3   OH260099   3.359   0.604   3.756  0.1074  0.5747  0.1565
12895TIP3    H160100   3.394   0.690   3.781 -1.7133  1.6039 -0.7219
12895TIP3    H260101   3.376   0.597   3.662 -2.4051  1.3245 -0.4064
12896TIP3   OH260102   2.070   4.122  13.846  0.6029  0.1637 -0.1919
12896TIP3    H160103   2.074   4.101  13.939 -2.4843  0.3583  0.0236
12896TIP3    H260104   2.046   4.039  13.804 -0.3633  0.6212 -0.5532
12897TIP3   OH260105   3.185   3.717   2.135  0.0114  0.0250  0.0744
12897TIP3    H160106   3.204   3.772   2.059 -0.0609 -0.8482 -0.5778
12897TIP3    H260107   3.265   3.721   2.188 -0.4488  1.7868  0.6847
12898TIP3   OH260108   6.382   4.373  16.061 -0.2637 -0.1107 -0.4024
12898TIP3    H160109   6.356   4.332  15.978 -0.3015 -0.7488 -0.0785
12898TIP3    H260110   6.407   4.300  16.117 -1.9304  0.1788  0.7556
12899TIP3   OH260111   2.231   6.583   0.245 -0.3507  0.1499  0.3849
12899TIP3    H160112   2.324   6.578   0.267  0.3303  1.0390 -2.1206
12899TIP3    H260113   2.211   6.677   0.249 -1.2766 -0.0835  1.4163
12900TIP3   OH260114   3.698   4.419  16.504 -0.1478  0.3821 -0.0613
12900TIP3    H160115   3.686   4.420  16.599  0.5798 -2.5333  0.1160
12900TIP3    H260116   3.645   4.345  16.474  2.7281 -1.2270 -1.4101
12901TIP3   OH260117   3.570   1.626  14.598 -0.1399 -0.9414  0.3853
12901TIP3    H160118   3.494   1.572  14.619 -0.1928 -1.0260 -0.0218
12901TIP3    H260119   3.555   1.707  14.647 -0.1928 -1.1916  0.7841
12902TIP3   OH260120   2.529   4.906   6.814  0.5819  0.1808 -0.1152
12902TIP3    H160121   2.584   4.828   6.802 -1.5893 -1.1460 -1.6782
12902TIP3    H260122   2.502   4.930   6.726  0.4967  2.2067  0.4385
12903TIP3   OH260123   5.316   4.209   2.374  0.2848  0.9952 -0.8225
12903TIP3    H160124   5.371   4.160   2.435 -1.4638 -0.1006 -0.1154
12903TIP3    H260125   5.349   4.299   2.380 -0.2032  1.0347  2.1888
12904TIP3   OH260126   4.471   3.681   5.723  0.1454 -0.1567  0.3249
12904TIP3    H160127   4.552   3.656   5.767 -0.0313 -3.8584 -1.2630
12904TIP3    H260128   4.406   3.617   5.753 -1.5892  1.2276 -0.3491
12905TIP3   OH260129   4.632   3.088  17.138  0.0005 -0.7495  0.0649
12905TIP3    H160130   4.594   3.064  17.222  0.9467  0.2251  0.7809
12905TIP3    H260131   4.565   3.143  17.096  0.4163  0.5675  1.1108
12906TIP3   OH260132   0.384   2.068  15.074  0.0221  0.0350 -0.5377
12906TIP3    H160133   0.307   2.057  15.129  1.4358  0.1222  1.4866
12906TIP3    H260134   0.447   2.003  15.106  2.2357  2.5589  0.4797
12907TIP3   OH260135   3.913   0.966  11.957  0.2290 -0.1452  0.3218
12907TIP3    H160136   3.842   1.029  11.943  0.8689  0.5348  0.0881
12907TIP3    H260137   3.884   0.912  12.031  0.4863  1.5896  1.7032
12908TIP3   OH260138   3.967   3.865  14.879  0.4132  0.3485  0.4616
12908TIP3    H160139   4.034   3.915  14.924  0.2586  0.4707  0.5579
12908TIP3    H260140   3.963   3.782  14.926  0.9216  0.1048  0.0790
12909TIP3   OH260141   4.279   3.726  11.436 -0.2682 -0.2265 -0.0749
12909TIP3    H160142   4.309   3.797  11.493  0.1453 -0.8698  0.5252
12909TIP3    H260143   4.346   3.719  11.368 -1.3528  1.3176 -1.3257
12910TIP3   OH260144   5.480   2.487  11.617 -0.0053  0.6064 -0.0702
12910TIP3    H160145   5.542   2.497  11.544  1.1734  0.9030  0.9606
12910TIP3    H260146   5.394   2.484  11.574  0.8175 -2.0835 -1.7183
12911TIP3   OH260147   5.408   4.212  13.245  0.2262  0.2838  0.1384
12911TIP3    H160148   5.401   4.159  13.325 -1.7803  0.5053  0.1559
12911TIP3    H260149   5.350   4.167  13.183  3.4016 -1.1024 -1.9150
12912TIP3   OH260150   4.653   3.085  13.423  0.0171  0.0615  0.4302
12912TIP3    H160151   4.565   3.091  13.386 -0.4704 -1.2487  1.3466
12912TIP3    H260152   4.686   3.000  13.392  0.3529 -0.1654  1.4080
12913TIP3   OH260153   6.045   4.978   3.395  0.5103 -0.0976  0.0147
12913TIP3    H160154   6.125   4.934   3.368  0.1627 -1.6477  1.4232
12913TIP3    H260155   5.994   4.988   3.314  1.5996 -0.1625 -0.6894
12914TIP3   OH260156   0.279   0.302  11.580 -0.5562  0.0122  0.1469
12914TIP3    H160157   0.213   0.233  11.580 -1.4340  0.8251  0.9797
12914TIP3    H260158   0.274   0.339  11.669  1.0371  0.0587  0.2178
12915TIP3   OH260159   0.375   5.332   5.895  0.0326 -0.1128 -0.0426
12915TIP3    H160160   0.321   5.278   5.953 -0.5842 -0.0844 -0.5920
12915TIP3    H260161   0.411   5.399   5.952  1.0666 -1.2936  0.7185
12916TIP3   OH260162   2.957   0.574  12.304 -0.0268 -0.6454 -0.0271
12916TIP3    H160163   2.916   0.591  12.389 -1.3451 -3.8091  0.0352
12916TIP3    H260164   2.899   0.615  12.240 -0.0078  0.1621  0.4710
12917TIP3   OH260165   1.006   0.736   3.982 -0.1509 -0.8052  0.2426
12917TIP3    H160166   1.065   0.755   4.055  0.0830 -0.8325  0.0612
12917TIP3    H260167   1.040   0.655   3.945 -0.6019 -1.0932  0.4486
12918TIP3   OH260168   3.504   3.682  13.024  0.0824 -0.6950 -0.1747
12918TIP3    H160169   3.561   3.692  13.100 -1.8710 -1.0653  1.3790
12918TIP3    H260170   3.528   3.756  12.967  1.6748 -0.4955  0.7001
12919TIP3   OH260171   6.595   6.163   4.544 -0.4642 -0.2162 -0.0518
12919TIP3    H160172   6.645   6.244   4.531 -0.8205 -0.0775 -0.5778
12919TIP3    H260173   6.508   6.193   4.572 -0.9659 -0.3654 -1.4060
12920TIP3   OH260174   4.926   3.944  11.242  0.3852 -0.1944 -0.1289
12920TIP3    H160175   5.007   3.995  11.245  0.4067 -0.1374 -1.4067
12920TIP3    H260176   4.896   3.952  11.151 -1.3500  0.2606  0.4723
12921TIP3   OH260177   3.530   0.751   3.169 -0.2565  0.3895 -0.0003
12921TIP3    H160178   3.563   0.663   3.186 -1.2565 -0.3268 -1.5886
12921TIP3    H260179   3.444   0.754   3.212  1.5446  2.0863  3.7202
12922TIP3   OH260180   1.734   1.344  11.925  0.2699  0.2668 -0.7398
12922TIP3    H160181   1.652   1.313  11.887 -0.7009  1.0675  0.6384
12922TIP3    H260182   1.717   1.346  12.019  2.6585 -1.7686 -0.2381
12923TIP3   OH260183   6.007   1.484  16.344  0.5883  0.2204 -0.2899
12923TIP3    H160184   5.971   1.396  16.357  1.0624  0.1953  0.8946
12923TIP3    H260185   6.041   1.482  16.254 -2.9325  0.4716 -1.6808
12924TIP3   OH260186   3.997   1.982   5.024 -0.1664 -0.0747  0.3178
12924TIP3    H160187   3.906   2.013   5.020 -0.5006 -0.7205  2.4092
12924TIP3    H260188   4.036   2.013   4.942 -2.3615 -0.0998 -0.7854
12925TIP3   OH260189   3.784   5.477  16.816  0.1412 -0.0102  0.2062
12925TIP3    H160190   3.819   5.552  16.865  0.5283  0.3699 -0.6425
12925TIP3    H260191   3.828   5.401  16.854  0.7177  0.3186  0.1950
12926TIP3   OH260192   3.202   3.628   4.558  0.0278 -0.3421 -0.1130
12926TIP3    H160193   3.144   3.690   4.602  0.1241  0.5176 -1.1746
12926TIP3    H260194   3.254   3.682   4.498 -0.5830 -1.5485 -1.7776
12927TIP3   OH260195   6.048   4.955   0.476  0.1361 -0.0737  0.1114
12927TIP3    H160196   6.087   4.971   0.390 -0.6750  0.0265 -0.2493
12927TIP3    H260197   6.033   4.860   0.478  1.3517 -0.2596  0.6718
12928TIP3   OH260198   3.323   1.848  14.255  0.1479 -0.0656  0.2105
12928TIP3    H160199   3.265   1.835  14.180  1.2286  1.9219 -1.0094
12928TIP3    H260200   3.277   1.909  14.311  0.2047 -0.0080  0.1946
12929TIP3   OH260201   0.931   3.637   6.006  0.1025 -0.1753 -0.0267
12929TIP3    H160202   0.935   3.657   6.100 -1.3033  0.5781 -0.1145
12929TIP3    H260203   0.838   3.635   5.986  0.3737 -1.3139 -1.2167
12930TIP3   OH260204   1.310   5.918   2.352 -0.2158 -0.2695 -0.2776
12930TIP3    H160205   1.348   5.924   2.440  0.7374 -2.6127 -0.4884
12930TIP3    H260206   1.372   5.964   2.296 -0.4959  0.6699  0.1773
12931TIP3   OH260207   3.181   0.719  17.057 -0.2240  1.1444  0.7091
12931TIP3    H160208   3.271   0.749  17.067  0.5322 -1.2349  1.2203
12931TIP3    H260209   3.153   0.756  16.973  1.6853  0.7423 -0.1186
12932TIP3   OH260210   3.511   4.588   2.788  0.2280 -0.3628  0.0908
12932TIP3    H160211   3.543   4.522   2.727 -0.3771 -1.7449  1.2541
12932TIP3    H260212   3.425   4.613   2.753  0.8654  0.5407 -0.8799
12933TIP3   OH260213   4.609   2.539  12.992 -0.0042  0.3052 -0.6043
12933TIP3    H160214   4.617   2.523  13.086 -1.8748 -2.4215 -0.8355
12933TIP3    H260215   4.601   2.451  12.954 -3.7884  1.4778 -2.8136
12934TIP3   OH260216   4.141   3.458   5.287 -0.4744  0.0494  0.4337
12934TIP3    H160217   4.119   3.398   5.216  0.8588  0.1329 -0.0785
12934TIP3    H260218   4.085   3.432   5.360 -1.7751 -0.1042 -0.6204
12935TIP3   OH260219   1.695   4.584   6.294 -1.2417  0.2478 -0.2086
12935TIP3    H160220   1.735   4.663   6.329 -0.0491  0.1108 -1.2236
12935TIP3    H260221   1.660   4.539   6.371  0.2139  0.5754  0.6700
12936TIP3   OH260222   2.360   4.564  16.665  0.4765 -0.6239  0.4940
12936TIP3    H160223   2.412   4.490  16.633  0.2247 -0.7877  0.4606
12936TIP3    H260224   2.402   4.641  16.627  1.3533 -0.6674  1.3509
12937TIP3   OH260225   0.428   3.501  11.435 -0.8541  0.2345  0.2792
12937TIP3    H160226   0.332   3.506  11.433 -0.8223  1.8088  1.2328
12937TIP3    H260227   0.456   3.593  11.441  0.5966 -0.3393  3.0673
12938TIP3   OH260228   6.510   0.327  15.978 -0.4294  0.1698  0.5859
12938TIP3    H160229   6.513   0.285  16.064  0.5061  0.0082  0.4840
12938TIP3    H260230   6.436   0.286  15.933  2.1827 -3.5810 -0.6207
12939TIP3   OH260231   1.363   2.917  13.722 -0.2850  0.1121  0.6057
12939TIP3    H160232   1.376   2.960  13.638  2.1021  0.7483  1.2710
12939TIP3    H260233   1.365   2.824  13.702 -0.7251  0.2604 -0.1627
12940TIP3   OH260234   0.149   1.055  11.404  0.6911  0.2419  0.6865
12940TIP3    H160235   0.212   1.023  11.468  1.5091  1.2377  0.4019
12940TIP3    H260236   0.172   1.147  11.392  0.2550  0.1884 -0.6865
12941TIP3   OH260237   0.395   4.298  15.805  0.1210  0.0625 -0.9104
12941TIP3    H160238   0.437   4.215  15.781  0.6163  0.7601 -2.5298
12941TIP3    H260239   0.331   4.314  15.735 -0.1215  0.9272 -0.4993
12942TIP3   OH260240   4.184   6.772   3.800 -0.0097 -0.7614  0.2918
12942TIP3    H160241   4.096   6.737   3.810 -0.2986 -0.8983 -2.4626
12942TIP3    H260242   4.197   6.781   3.706  1.7327  2.2973  0.7307
12943TIP3   OH260243   4.918   3.390   0.628 -0.5057  0.1495 -0.1327
12943TIP3    H160244   4.934   3.333   0.553  0.2980 -1.0807  0.9649
12943TIP3    H260245   4.945   3.339   0.704 -0.7736  1.5985  0.9622
12944TIP3   OH260246   0.808   1.700  10.862 -0.2976  0.8099  0.4639
12944TIP3    H160247   0.859   1.781  10.854  0.5311  0.1920 -0.5891
12944TIP3    H260248   0.760   1.695  10.779 -2.3303  1.5474  1.5652
12945TIP3   OH260249   6.583   4.644  17.134  0.0365 -0.4447 -0.2917
12945TIP3    H160250   6.553   4.704  17.202 -0.8666  0.9248 -1.8656
12945TIP3    H260251   6.676   4.666  17.121 -0.8513  2.1762 -2.4302
12946TIP3   OH260252   6.123   5.256   6.046  0.4055 -0.1146  0.1317
12946TIP3    H160253   6.173   5.330   6.011 -1.0787  0.9107  0.1168
12946TIP3    H260254   6.147   5.252   6.138 -0.4585  1.2170  0.4345
12947TIP3   OH260255   5.582   3.776  14.214  0.1022  0.2902 -0.3252
12947TIP3    H160256   5.644   3.807  14.280 -0.6996 -0.1962  0.6642
12947TIP3    H260257   5.535   3.855  14.186 -0.5876  0.2786  0.7776
12948TIP3   OH260258   1.483   6.406   0.245 -0.2188 -0.8506  0.6028
12948TIP3    H160259   1.409   6.438   0.296 -0.9898 -0.6462 -0.6246
12948TIP3    H260260   1.506   6.480   0.188  2.5481  0.0139  2.6858
12949TIP3   OH260261   6.148   1.818  11.317  0.0347  0.3598 -0.9233
12949TIP3    H160262   6.074   1.776  11.273  0.5348 -0.0303 -1.3955
12949TIP3    H260263   6.218   1.753  11.313  0.7682  1.1786 -1.5232
12950TIP3   OH260264   6.057   3.289  11.275  0.3720 -1.2014  0.3967
12950TIP3    H160265   6.055   3.375  11.317  1.3170 -1.0846  0.2231
12950TIP3    H260266   5.980   3.289  11.218  0.6037 -0.2930  0.0675
12951TIP3   OH260267   4.048   4.472  12.958 -0.2624  0.3176 -0.2658
12951TIP3    H160268   3.998   4.463  13.039  1.2228 -0.2463  0.6140
12951TIP3    H260269   4.116   4.405  12.965  0.8461  1.3281 -1.2601
12952TIP3   OH260270   6.547   1.782   6.060 -0.5276  0.3270  0.8164
12952TIP3    H160271   6.536   1.705   6.117  0.7086  0.9749  1.9653
12952TIP3    H260272   6.573   1.852   6.120  0.0918  1.2034 -0.4597
12953TIP3   OH260273   1.442   4.253  15.953  0.2229  0.1261  0.3776
12953TIP3    H160274   1.497   4.190  16.000 -0.6878 -1.1318 -0.2022
12953TIP3    H260275   1.470   4.338  15.985  1.5224 -0.5756  1.1420
12954TIP3   OH260276   2.744   1.173   0.754 -0.2514 -0.2542 -0.4946
12954TIP3    H160277   2.749   1.263   0.721 -2.2146 -0.2312 -0.7895
12954TIP3    H260278   2.835   1.147   0.766  0.3586  2.3043  1.0160
12955TIP3   OH260279   4.658   2.264  16.546  0.1832 -0.3707  0.2384
12955TIP3    H160280   4.737   2.301  16.586  1.0494  0.7452 -2.4077
12955TIP3    H260281   4.589   2.327  16.566  0.6513  0.2761 -0.1553
12956TIP3   OH260282   5.075   4.628   0.269 -0.0402  0.2606  0.2730
12956TIP3    H160283   5.023   4.549   0.283 -1.7628  1.2401 -0.4813
12956TIP3    H260284   5.146   4.621   0.333 -0.0393 -1.9896  0.0858
12957TIP3   OH260285   6.471   2.722   6.350  0.0381  0.0814  0.0881
12957TIP3    H160286   6.384   2.683   6.339 -0.1551  0.4782  0.2166
12957TIP3    H260287   6.522   2.654   6.395  0.0464 -0.4869 -0.7640
12958TIP3   OH260288   5.973   2.313  15.922  0.4184 -0.0921  0.5064
12958TIP3    H160289   5.963   2.282  16.012 -0.0771 -2.3937 -0.3137
12958TIP3    H260290   6.027   2.246  15.879  0.1976  0.7046 -1.0435
12959TIP3   OH260291   5.816   5.147   1.945 -0.2155  0.2409  0.7487
12959TIP3    H160292   5.789   5.060   1.976 -1.6190  0.5131  0.2856
12959TIP3    H260293   5.906   5.133   1.913 -0.3957 -1.0170  0.7446
12960TIP3   OH260294   4.804   5.652  14.225 -0.1013  0.1014  0.2924
12960TIP3    H160295   4.774   5.661  14.134 -0.9126  1.5140  0.6804
12960TIP3    H260296   4.881   5.708  14.231 -0.3538  0.4218  0.6031
12961TIP3   OH260297   0.265   4.529  14.940  0.1227  0.0273  0.2664
12961TIP3    H160298   0.195   4.520  15.005  0.8730 -2.6992  0.7712
12961TIP3    H260299   0.222   4.567  14.864 -1.6721 -0.5788  0.9438
12962TIP3   OH260300   0.731   2.489   1.294 -0.0133  0.3752 -0.1946
12962TIP3    H160301   0.694   2.492   1.382 -1.3640  1.3057 -0.7833
12962TIP3    H260302   0.706   2.402   1.261  0.5211  0.0138  0.3343
12963TIP3   OH260303   1.412   2.659  13.683 -0.2197 -0.5009  0.2476
12963TIP3    H160304   1.490   2.604  13.685  0.2972  0.1882 -0.5400
12963TIP3    H260305   1.365   2.630  13.605 -0.0814 -0.0264 -0.0161
12964TIP3   OH260306   2.849   2.439  13.445  0.2472  0.7159 -0.3773
12964TIP3    H160307   2.820   2.348  13.434  0.1174  0.5387  1.2441
12964TIP3    H260308   2.891   2.461  13.362  0.3681 -0.8673 -0.7591
12965TIP3   OH260309   6.493   5.965   0.008  0.6642  0.6743 -0.5278
12965TIP3    H160310   6.521   5.936  -0.079  0.5863 -1.8859  0.2380
12965TIP3    H260311   6.409   6.008  -0.007 -0.2111 -1.3286 -1.5418
12966TIP3   OH260312   1.190   2.882   4.230  0.9255  0.3300  0.1290
12966TIP3    H160313   1.165   2.965   4.271 -2.1255 -0.7255  0.4907
12966TIP3    H260314   1.202   2.821   4.303  2.2461  0.1755 -0.1960
12967TIP3   OH260315   4.239   3.124  11.280 -0.2948 -0.2442 -0.3381
12967TIP3    H160316   4.228   3.069  11.203 -1.2019 -1.2312  0.4828
12967TIP3    H260317   4.299   3.075  11.337 -0.0812  0.2145 -0.1602
12968TIP3   OH260318   1.096   5.261  11.762  0.2339  0.1895  0.1035
12968TIP3    H160319   1.130   5.192  11.818 -0.2113 -0.4131 -0.3639
12968TIP3    H260320   1.166   5.280  11.700  0.1442 -0.2491 -0.1319
12969TIP3   OH260321   1.706   0.926   5.910 -0.1517 -0.2313 -0.1541
12969TIP3    H160322   1.779   0.981   5.938 -0.3496  0.4201 -0.9094
12969TIP3    H260323   1.735   0.888   5.827 -0.4557 -0.4010 -0.1831
12970TIP3   OH260324   1.301   2.956   6.350  0.1584 -0.3604  0.2114
12970TIP3    H160325   1.341   3.033   6.312 -0.9301  0.4306  0.6324
12970TIP3    H260326   1.207   2.974   6.349 -0.2917 -2.5479 -1.6386
12971TIP3   OH260327   0.698   0.409  14.400  0.2214  0.7055  0.6333
12971TIP3    H160328   0.686   0.475  14.468  2.1087  0.4696  1.2199
12971TIP3    H260329   0.789   0.418  14.373 -0.2411  0.1175 -1.1600
12972TIP3   OH260330   0.972   1.207   5.904  0.0932 -0.4721  0.2083
12972TIP3    H160331   0.895   1.255   5.873  0.1950  0.5675  1.5300
12972TIP3    H260332   0.938   1.120   5.926 -0.1086 -1.0032 -2.1051
12973TIP3   OH260333   2.605   5.736  14.211  0.0401 -0.5338 -0.1016
12973TIP3    H160334   2.604   5.789  14.131 -1.2714  1.7554  1.3617
12973TIP3    H260335   2.696   5.738  14.239  0.9540 -3.2230 -2.6856
12974TIP3   OH260336   3.541   0.963  11.046 -0.3018 -0.2321 -1.1896
12974TIP3    H160337   3.635   0.943  11.055 -0.2063 -1.0088 -3.4558
12974TIP3    H260338   3.498   0.901  11.105  0.6876  1.4293  1.3464
12975TIP3   OH260339   2.748   1.252   5.563 -0.0348 -0.5132 -0.0586
12975TIP3    H160340   2.829   1.283   5.603 -0.1214  0.6365 -0.7616
12975TIP3    H260341   2.765   1.160   5.541  1.2313 -0.1428 -0.6229
12976TIP3   OH260342   6.385   4.639   5.422  0.2730  0.2612  0.5020
12976TIP3    H160343   6.451   4.599   5.479  0.0626  0.1989  0.7017
12976TIP3    H260344   6.393   4.591   5.340 -1.1977 -1.4370  1.2940
12977TIP3   OH260345   1.703   2.290  12.048  0.1189 -0.1631  0.0411
12977TIP3    H160346   1.644   2.215  12.037  1.3136 -1.2030  0.6311
12977TIP3    H260347   1.771   2.277  11.982  1.5094 -0.7557  1.5676
12978TIP3   OH260348   4.907   4.881  12.483 -0.1356 -0.0730 -0.4026
12978TIP3    H160349   4.916   4.875  12.578 -2.6841  0.7991 -0.0762
12978TIP3    H260350   4.813   4.889  12.468  0.2752  0.3290 -2.9787
12979TIP3   OH260351   5.382   6.222  16.245 -0.1368  0.2657  0.3352
12979TIP3    H160352   5.331   6.220  16.164  0.0002  2.2786  0.1802
12979TIP3    H260353   5.455   6.161  16.229 -0.6434 -0.0838 -0.6823
12980TIP3   OH260354   3.319   0.157  11.241 -0.4393  0.1883 -0.5296
12980TIP3    H160355   3.406   0.127  11.213 -0.2271  0.8926 -0.6379
12980TIP3    H260356   3.308   0.120  11.328 -0.8627 -1.5404 -1.2930
12981TIP3   OH260357   4.769   1.494  13.207 -0.0323 -0.5423  0.0719
12981TIP3    H160358   4.854   1.452  13.222  0.7250  1.3654  1.4036
12981TIP3    H260359   4.790   1.574  13.159 -1.3142 -1.0448 -1.3476
12982TIP3   OH260360   5.299   3.765  13.548 -0.4318 -0.1956 -0.2135
12982TIP3    H160361   5.249   3.806  13.618 -0.6631  0.8584 -0.9809
12982TIP3    H260362   5.278   3.672  13.553 -0.1366 -0.1824  1.3625
12983TIP3   OH260363   1.217   2.771   2.864  0.1807 -0.8700 -0.0200
12983TIP3    H160364   1.284   2.716   2.825  0.5964  0.7614 -1.7127
12983TIP3    H260365   1.164   2.801   2.790  1.6160  3.1488  0.4506
12984TIP3   OH260366   0.767   3.083   4.749 -0.0842  0.3869  0.4648
12984TIP3    H160367   0.755   3.109   4.840  1.0293  2.6100  0.0267
12984TIP3    H260368   0.861   3.070   4.740 -0.1935  0.1395 -0.3516
12985TIP3   OH260369   0.032   5.686   1.152  0.6871 -0.5216 -0.2944
12985TIP3    H160370   0.008   5.769   1.193  1.5279  0.4465 -1.7606
12985TIP3    H260371   0.084   5.641   1.218  2.4142  1.2263 -0.4397
12986TIP3   OH260372   4.315   2.218   3.098  0.5922  0.3574  0.6941
12986TIP3    H160373   4.341   2.253   3.013 -0.3644 -1.9236 -0.5757
12986TIP3    H260374   4.383   2.155   3.120 -0.2100 -0.5521  0.6226
12987TIP3   OH260375   3.856   3.808   1.787  0.5687  0.0394  0.2818
12987TIP3    H160376   3.929   3.839   1.841  1.3015 -0.2870 -0.5191
12987TIP3    H260377   3.778   3.825   1.841  1.1697  0.9757  0.8803
12988TIP3   OH260378   3.412   3.958  14.298  0.2176  0.4348 -0.3427
12988TIP3    H160379   3.380   4.048  14.302 -1.6436 -0.2538  1.1207
12988TIP3    H260380   3.440   3.938  14.387  0.7048 -0.3937 -0.6709
12989TIP3   OH260381   4.211   5.389  13.913  0.2953 -0.4156  0.0520
12989TIP3    H160382   4.122   5.416  13.889  0.3446  0.1792  0.5484
12989TIP3    H260383   4.213   5.295  13.894  0.2917  0.0008 -2.1804
12990TIP3   OH260384   4.600   0.689   1.806 -0.4070 -0.1698  0.4264
12990TIP3    H160385   4.657   0.746   1.755 -0.4470 -1.4253 -1.0298
12990TIP3    H260386   4.659   0.638   1.861 -0.2658  0.0873  0.5126
12991TIP3   OH260387   3.781   1.835   2.678  0.3946  0.1809 -0.0474
12991TIP3    H160388   3.697   1.859   2.715  0.0676 -2.3275  0.8966
12991TIP3    H260389   3.845   1.878   2.735 -0.2057  2.0694 -0.7534
12992TIP3   OH260390   3.631   2.477  15.976  0.3493 -0.3774 -0.3756
12992TIP3    H160391   3.700   2.475  15.910 -1.3725  0.0016 -2.2140
12992TIP3    H260392   3.593   2.389  15.973  0.4690 -0.4595  0.3469
12993TIP3   OH260393   2.749   6.293  15.892 -0.3173 -0.5073  0.1049
12993TIP3    H160394   2.779   6.210  15.930  1.6883  0.4476  0.6836
12993TIP3    H260395   2.758   6.356  15.963 -1.7186  0.2582 -0.3710
12994TIP3   OH260396   2.703   5.601  15.167  0.0298  0.3172  0.0095
12994TIP3    H160397   2.715   5.543  15.242 -1.2023  0.8972  0.6644
12994TIP3    H260398   2.647   5.552  15.107  0.9113 -0.0958 -0.4861
12995TIP3   OH260399   4.286   3.241   1.370  0.1215 -0.0990  0.2083
12995TIP3    H160400   4.241   3.324   1.383  1.1674  0.5733 -0.4292
12995TIP3    H260401   4.377   3.259   1.393  0.5643 -0.7736 -0.9510
12996TIP3   OH260402   4.969   2.951   1.427  0.1999  0.9400  0.3154
12996TIP3    H160403   5.029   2.999   1.484  0.1876  0.6897  0.5424
12996TIP3    H260404   4.888   3.003   1.429  1.1603  2.5929 -1.9319
12997TIP3   OH260405   5.882   1.449  14.376  0.2188  0.7848 -0.1646
12997TIP3    H160406   5.944   1.477  14.444  0.6839  0.9810 -0.6708
12997TIP3    H260407   5.933   1.392  14.318 -0.3785 -0.0070  0.0783
12998TIP3   OH260408   1.126   5.609  11.542  0.3289  0.0531  0.2365
12998TIP3    H160409   1.168   5.561  11.613  1.1866  0.2169 -0.1563
12998TIP3    H260410   1.051   5.651  11.583 -0.0840 -1.1187  0.7219
12999TIP3   OH260411   6.568   2.623  11.676 -0.2266 -0.3123  0.1291
12999TIP3    H160412   6.490   2.578  11.709 -0.5279 -0.3211 -0.5994
12999TIP3    H260413   6.589   2.578  11.594 -0.6996  1.0583 -0.7552
13000TIP3   OH260414   5.494   0.708  15.922 -0.8568  0.1927 -0.1194
13000TIP3    H160415   5.458   0.796  15.932 -1.4430 -0.0731  0.1186
13000TIP3    H260416   5.529   0.687  16.008 -3.0771 -0.8435  0.5599
13001TIP3   OH260417   4.615   3.867  14.049  0.3380 -0.2343  0.3121
13001TIP3    H160418   4.612   3.863  13.953 -1.1671  3.0598  0.1754
13001TIP3    H260419   4.703   3.898  14.068  0.4537 -0.3515 -0.0081
13002TIP3   OH260420   2.185   3.878  12.949  0.0492  0.1769  0.4249
13002TIP3    H160421   2.161   3.790  12.921  0.2440 -0.3492  1.8697
13002TIP3    H260422   2.230   3.865  13.033  0.6334  1.5982  0.3434
13003TIP3   OH260423   6.627   5.174  13.831  0.1248  0.6148 -0.3448
13003TIP3    H160424   6.571   5.250  13.844 -0.7692 -0.1202  0.1761
13003TIP3    H260425   6.611   5.147  13.740 -1.8508 -0.7394  0.3642
13004TIP3   OH260426   2.313   3.146  11.139 -0.3550  0.1582  0.3676
13004TIP3    H160427   2.266   3.154  11.056  0.7694  1.7900 -0.1335
13004TIP3    H260428   2.382   3.083  11.121 -0.8088 -0.3424  0.3815
13005TIP3   OH260429   5.631   2.205   1.432 -0.3500  0.4913 -0.3624
13005TIP3    H160430   5.641   2.185   1.525  1.0763 -1.3058 -0.8541
13005TIP3    H260431   5.553   2.157   1.405 -0.4025  0.4973 -0.2191
13006TIP3   OH260432   6.018   2.127   2.334  0.5702 -0.0453 -0.0975
13006TIP3    H160433   6.048   2.126   2.243  0.5065 -0.7652 -0.1152
13006TIP3    H260434   6.063   2.202   2.374  2.1602 -0.9296 -0.2016
13007TIP3   OH260435   1.546   4.801   0.100 -0.6530 -1.1166 -0.6125
13007TIP3    H160436   1.584   4.736   0.159  1.2151  1.1419  0.7414
13007TIP3    H260437   1.622   4.844   0.061 -1.8653  0.7137 -0.9766
13008TIP3   OH260438   3.514   2.800  13.924 -0.0436 -0.3383 -0.1679
13008TIP3    H160439   3.587   2.738  13.924  1.0840  0.9868 -0.6513
13008TIP3    H260440   3.451   2.762  13.862 -0.1586 -1.9058  0.8668
13009TIP3   OH260441   1.440   6.270   1.380  0.2525  0.3464 -0.4597
13009TIP3    H160442   1.362   6.320   1.356 -1.5453 -2.1174  0.1405
13009TIP3    H260443   1.442   6.273   1.476  1.3300  1.0189 -0.4936
13010TIP3   OH260444   0.822   2.889   2.693 -0.1254  0.1458 -0.2091
13010TIP3    H160445   0.880   2.854   2.760 -0.7928  0.4694  0.5461
13010TIP3    H260446   0.866   2.969   2.661  0.8012 -0.6899 -1.0662
13011TIP3   OH260447   6.559   5.462   0.479 -0.3660  0.6576  0.2840
13011TIP3    H160448   6.517   5.544   0.451 -1.1039  0.3536  0.4805
13011TIP3    H260449   6.496   5.423   0.539 -0.6469 -0.7642 -0.9276
13012TIP3   OH260450   4.280   1.580  15.406 -0.6532  0.5961 -0.1045
13012TIP3    H160451   4.322   1.614  15.327 -1.7151 -0.2233 -1.0507
13012TIP3    H260452   4.293   1.647  15.472  2.6934  0.0964 -0.1829
13013TIP3   OH260453   6.214   2.103  16.613 -0.3381  0.3480  0.4963
13013TIP3    H160454   6.132   2.137  16.651 -0.5566 -1.0501  1.2972
13013TIP3    H260455   6.195   2.095  16.520 -0.4616  1.8833  0.3708
13014TIP3   OH260456   1.508   2.697   4.368  0.3510  0.0673  0.6251
13014TIP3    H160457   1.587   2.694   4.314  0.6900  0.1871  1.1088
13014TIP3    H260458   1.448   2.634   4.327  0.2338  0.8591 -0.4557
13015TIP3   OH260459   2.672   1.355   2.147 -0.3195  0.4366  0.7360
13015TIP3    H160460   2.721   1.274   2.150 -1.1634 -0.1040  0.1901
13015TIP3    H260461   2.736   1.422   2.121  0.8110  0.3019  3.1206
13016TIP3   OH260462   2.580   3.519  14.335 -0.3723 -0.1373  0.2001
13016TIP3    H160463   2.652   3.577  14.359 -0.8549 -0.4401  2.5332
13016TIP3    H260464   2.590   3.444  14.393 -2.5793 -0.1487  0.6147
13017TIP3   OH260465   2.993   6.294   0.231 -0.0004  0.0153 -0.2454
13017TIP3    H160466   2.925   6.271   0.168  1.0008  0.7923 -1.6251
13017TIP3    H260467   2.971   6.383   0.259  1.2082  0.7899 -1.7272
13018TIP3   OH260468   5.103   1.112   0.777  0.0216 -0.1104 -0.2041
13018TIP3    H160469   5.158   1.147   0.707 -0.9972 -0.9384 -1.4548
13018TIP3    H260470   5.152   1.036   0.810  0.7952  0.6489  0.4318
13019TIP3   OH260471   6.520   1.159  14.587 -0.2026  0.6694 -0.3621
13019TIP3    H160472   6.576   1.129  14.515 -0.2764  3.2932 -1.5413
13019TIP3    H260473   6.489   1.245  14.560 -2.0406  0.7495  1.8381
13020TIP3   OH260474   5.215   4.288   2.892  0.0174 -0.1483  0.2457
13020TIP3    H160475   5.307   4.278   2.914  0.0309  0.5187  0.4879
13020TIP3    H260476   5.200   4.382   2.890 -0.6004 -0.2447 -0.0429
13021TIP3   OH260477   2.184   2.764   3.524 -0.2333  0.0155 -0.3307
13021TIP3    H160478   2.267   2.810   3.535  0.4462 -0.6368 -2.5365
13021TIP3    H260479   2.187   2.694   3.590 -0.2785  1.6945  1.4883
13022TIP3   OH260480   6.578   3.862   3.088 -0.4895 -0.0249  0.3241
13022TIP3    H160481   6.554   3.809   3.164 -2.2108 -0.2579 -0.3657
13022TIP3    H260482   6.547   3.812   3.012  1.0920  0.2669 -0.5474
13023TIP3   OH260483   5.317   4.174  14.124 -0.6766 -0.5551 -0.0421
13023TIP3    H160484   5.283   4.231  14.055 -1.6634 -1.0113  0.0640
13023TIP3    H260485   5.320   4.230  14.202  0.7185  0.0428 -0.5121
13024TIP3   OH260486   0.211   1.515  15.565 -0.5805  0.1216  0.7621
13024TIP3    H160487   0.253   1.575  15.627  0.5118 -1.2821  1.4083
13024TIP3    H260488   0.223   1.556  15.480  2.2479 -0.3205  0.9247
13025TIP3   OH260489   1.717   4.792   2.959 -0.0573  0.1688 -0.0255
13025TIP3    H160490   1.790   4.823   3.013  0.7875  1.0494 -1.6484
13025TIP3    H260491   1.672   4.872   2.931 -0.5981 -0.2919 -0.4817
13026TIP3   OH260492   0.662   1.910  11.331 -0.4398  0.0141  0.3006
13026TIP3    H160493   0.596   1.938  11.268  1.4375  1.0710 -1.2521
13026TIP3    H260494   0.661   1.814  11.325  0.6620  0.1189 -2.4172
13027TIP3   OH260495   3.864   0.491  12.207  0.5918 -0.4095 -0.2687
13027TIP3    H160496   3.838   0.405  12.240 -0.4632  0.1014  0.2229
13027TIP3    H260497   3.932   0.472  12.143  0.6256 -1.5912  0.1112
13028TIP3   OH260498   2.756   2.613  16.924 -0.0280  0.0372 -0.5037
13028TIP3    H160499   2.806   2.689  16.953 -1.0565  0.8273 -0.7469
13028TIP3    H260500   2.794   2.590  16.839  1.9023 -1.2631  0.6779
13029TIP3   OH260501   0.833   4.125  13.008  0.3155 -0.4195 -0.3715
13029TIP3    H160502   0.751   4.145  13.052 -0.5767 -2.1448 -1.1869
13029TIP3    H260503   0.829   4.031  12.991  1.6677 -0.2166 -2.0037
13030TIP3   OH260504   2.530   4.842  11.063  0.2315  0.9086 -0.5727
13030TIP3    H160505   2.488   4.899  10.998  0.5316  1.2101 -0.5044
13030TIP3    H260506   2.517   4.754  11.029  0.6026  1.0795 -1.1691
13031TIP3   OH260507   3.781   4.462   1.727 -0.3518 -0.3255 -0.1027
13031TIP3    H160508   3.801   4.446   1.635  1.9168 -0.0570  0.2995
13031TIP3    H260509   3.724   4.539   1.727 -0.7189 -0.6013 -1.3152
13032TIP3   OH260510   5.172   3.457   4.170  0.0577 -0.0597 -0.2215
13032TIP3    H160511   5.193   3.401   4.245  0.6504 -1.5891 -1.5172
13032TIP3    H260512   5.085   3.428   4.142  0.4689 -0.4902 -1.0453
13033TIP3   OH260513   3.390   2.304  12.038 -0.1373  0.3297  0.2124
13033TIP3    H160514   3.431   2.249  11.971  0.8990  0.5373  0.6739
13033TIP3    H260515   3.296   2.285  12.030  0.1555 -1.0609 -0.0295
13034TIP3   OH260516   6.770   0.219  16.489 -0.3033 -0.3692  0.1818
13034TIP3    H160517   6.823   0.298  16.496 -2.2848  1.1460 -1.2861
13034TIP3    H260518   6.787   0.186  16.401  1.2708 -2.1778  1.1231
13035TIP3   OH260519   4.431   2.245   0.921  0.1452  0.1485 -0.1374
13035TIP3    H160520   4.357   2.284   0.968 -1.1407 -0.8391 -1.2850
13035TIP3    H260521   4.492   2.217   0.989 -1.0249  0.0288  0.8631
13036TIP3   OH260522   1.264   5.447   1.191  0.9252 -0.1967  0.4610
13036TIP3    H160523   1.240   5.366   1.235 -1.6138  0.3439  0.1798
13036TIP3    H260524   1.249   5.429   1.098  1.4451  0.2176  0.2998
13037TIP3   OH260525   4.566   3.353  12.922  0.0630 -0.0385  0.1680
13037TIP3    H160526   4.511   3.416  12.875  1.8349  1.6067  0.2661
13037TIP3    H260527   4.514   3.330  12.999 -1.4851 -0.3027 -0.9392
13038TIP3   OH260528   0.553   4.025   5.109  0.2701  0.1573  0.3218
13038TIP3    H160529   0.563   3.958   5.177 -0.6351  0.2384  0.5450
13038TIP3    H260530   0.470   4.069   5.131  0.6156  1.0326 -0.0938
13039TIP3   OH260531   4.538   1.623   0.374 -0.3958 -0.6379 -0.1656
13039TIP3    H160532   4.595   1.550   0.350  0.6952  0.3223 -0.5404
13039TIP3    H260533   4.552   1.634   0.468  0.1945 -0.2879 -0.2888
13040TIP3   OH260534   0.769   3.634  11.737  0.0177  0.6726 -0.0524
13040TIP3    H160535   0.857   3.670  11.733 -0.3962  1.8417  1.2124
13040TIP3    H260536   0.774   3.564  11.803  0.0917  0.4495 -0.2909
13041TIP3   OH260537   0.302   6.624   0.833 -0.1746  0.4633 -0.3265
13041TIP3    H160538   0.330   6.646   0.744 -0.7761 -3.7774 -1.6885
13041TIP3    H260539   0.373   6.570   0.868 -0.7479  0.6218  1.1340
13042TIP3   OH260540   2.868   6.551   3.412 -0.2284 -0.1532  0.1510
13042TIP3    H160541   2.838   6.469   3.373 -0.9304 -0.0346  0.4507
13042TIP3    H260542   2.960   6.535   3.432 -0.1345 -0.5780 -0.5776
13043TIP3   OH260543   4.890   2.014  13.976  0.4025 -0.0250  0.1355
13043TIP3    H160544   4.898   2.091  14.033  1.6679  0.4532 -0.6932
13043TIP3    H260545   4.977   1.975  13.975 -0.2424 -1.5377  0.6132
13044TIP3   OH260546   5.938   4.244  11.670 -0.1252  0.0439  0.2760
13044TIP3    H160547   5.957   4.150  11.668  1.7925  0.4136 -1.1580
13044TIP3    H260548   5.867   4.255  11.607 -0.3279 -0.4418  0.4149
13045TIP3   OH260549   2.517   1.783   5.908  0.6528 -0.6921  0.3542
13045TIP3    H160550   2.598   1.780   5.959  1.5542  0.9104 -0.9494
13045TIP3    H260551   2.543   1.759   5.819 -0.1968  0.2785 -0.1739
13046TIP3   OH260552   3.859   3.969  16.897 -0.1094 -0.5203 -0.2607
13046TIP3    H160553   3.766   3.955  16.916  0.0517  0.5684  1.4699
13046TIP3    H260554   3.905   3.931  16.972  0.7733  0.1617 -0.4477
13047TIP3   OH260555   6.604   0.175  13.983  0.0154 -0.0822  0.2640
13047TIP3    H160556   6.673   0.129  14.031 -0.3951 -0.3987  0.5534
13047TIP3    H260557   6.524   0.154  14.031 -0.1824  0.8833  0.3606
13048TIP3   OH260558   4.417   5.970  17.142 -0.5015 -0.0648  0.5859
13048TIP3    H160559   4.408   5.913  17.066 -1.2724 -2.4451  2.3843
13048TIP3    H260560   4.509   5.960  17.169  0.0388  1.5543 -0.5808
13049TIP3   OH260561   0.805   4.635   6.526  0.2903 -0.4932 -0.1681
13049TIP3    H160562   0.853   4.695   6.469 -0.2904 -1.7845 -2.0643
13049TIP3    H260563   0.740   4.690   6.570  0.0017  0.3291 -1.5976
13050TIP3   OH260564   2.164   0.988   0.078 -0.1828  0.1105  0.1691
13050TIP3    H160565   2.097   0.947   0.134 -0.5904 -1.1178 -1.1885
13050TIP3    H260566   2.226   0.917   0.060  0.9744  0.9995  0.6312
13051TIP3   OH260567   4.729   4.184  14.263  0.1254  0.1092  0.0974
13051TIP3    H160568   4.791   4.165  14.333 -0.1415 -0.4881  0.1712
13051TIP3    H260569   4.650   4.136  14.287  0.0818 -0.2191 -0.6871
13052TIP3   OH260570   3.182   1.216   2.781  0.2144  0.2159 -0.0386
13052TIP3    H160571   3.105   1.174   2.818 -0.1446  1.1693  0.3315
13052TIP3    H260572   3.254   1.158   2.803 -0.4251 -0.8108 -0.6016
13053TIP3   OH260573   1.250   3.767   4.900  0.2117  0.4657 -1.0437
13053TIP3    H160574   1.296   3.846   4.872  2.7142 -0.4757  0.2280
13053TIP3    H260575   1.172   3.799   4.945  1.0513  2.1919 -0.7724
13054TIP3   OH260576   3.179   6.382   1.536  0.5567 -0.0165  0.3982
13054TIP3    H160577   3.169   6.390   1.441 -1.1662  1.3608  0.6578
13054TIP3    H260578   3.211   6.468   1.564  0.0940 -0.0796  1.1572
13055TIP3   OH260579   4.931   1.617  11.899 -1.0964  0.2584  0.8173
13055TIP3    H160580   4.883   1.535  11.900 -2.6928  1.1609  0.3818
13055TIP3    H260581   4.938   1.643  11.991  1.3283 -1.4178  1.1566
13056TIP3   OH260582   3.288   4.337  16.078  0.2635 -0.1952 -0.9914
13056TIP3    H160583   3.300   4.339  15.983  4.2911 -2.2275 -0.6242
13056TIP3    H260584   3.318   4.422  16.108 -1.0860  0.4773 -1.5150
13057TIP3   OH260585   0.739   6.034   1.600  0.1613  0.2312  0.1267
13057TIP3    H160586   0.823   6.002   1.632  0.2462 -0.6809 -0.9733
13057TIP3    H260587   0.759   6.073   1.515 -0.3426  1.0917  0.3920
13058TIP3   OH260588   6.277   1.463  13.000  0.0361  0.3191 -0.2407
13058TIP3    H160589   6.215   1.394  13.025  0.1625  0.3535  0.1687
13058TIP3    H260590   6.342   1.418  12.946  0.7326 -0.1148  0.9336
13059TIP3   OH260591   1.920   1.398   1.922 -0.2430  0.1919 -0.0804
13059TIP3    H160592   1.962   1.484   1.914  1.0040 -0.3721  0.2484
13059TIP3    H260593   1.841   1.405   1.869 -0.0775  1.4936 -0.1828
13060TIP3   OH260594   4.879   3.167  13.281  0.4043  0.1874 -0.1470
13060TIP3    H160595   4.804   3.183  13.337  1.0175 -0.2718  0.8232
13060TIP3    H260596   4.925   3.093  13.322  0.1505 -1.0205 -1.9804
13061TIP3   OH260597   0.618   2.239  15.169 -0.4246 -0.8973 -0.1270
13061TIP3    H160598   0.535   2.199  15.143 -2.0352  0.4407  2.7280
13061TIP3    H260599   0.672   2.235  15.090 -1.9083 -5.0062 -1.0808
13062TIP3   OH260600   1.523   3.859   1.469 -0.0631  0.1219  0.1637
13062TIP3    H160601   1.442   3.809   1.481 -0.3921  0.7762  0.7014
13062TIP3    H260602   1.576   3.838   1.547 -0.0364  0.3101  0.1954
13063TIP3   OH260603   0.136   3.837  12.906 -0.2285 -0.2617  0.1114
13063TIP3    H160604   0.194   3.867  12.976 -0.1238  0.1710 -0.1599
13063TIP3    H260605   0.084   3.913  12.883 -1.0303 -0.6930  0.4679
13064TIP3   OH260606   1.886   3.676  14.878  0.1775 -0.0666 -0.4046
13064TIP3    H160607   1.944   3.733  14.826  0.4843  0.5145  0.5702
13064TIP3    H260608   1.827   3.638  14.813 -1.8582  3.5205 -0.7628
13065TIP3   OH260609   2.903   1.690   2.760  0.3061  0.0145 -0.0382
13065TIP3    H160610   2.977   1.707   2.818  0.8271 -1.8537 -0.1430
13065TIP3    H260611   2.831   1.741   2.798  0.9653 -0.2185  1.5370
13066TIP3   OH260612   0.096   6.715  15.222  0.1735  0.0649  0.1874
13066TIP3    H160613   0.055   6.801  15.229  1.9851  0.9023  0.7279
13066TIP3    H260614   0.127   6.711  15.131  0.7343  0.2908  0.3648
13067TIP3   OH260615   6.305   0.868  14.303  0.0762 -0.6673 -0.8139
13067TIP3    H160616   6.266   0.882  14.216  0.6858  0.6173 -0.8918
13067TIP3    H260617   6.385   0.921  14.302  0.8558 -1.8093  0.0111
13068TIP3   OH260618   1.908   4.640  15.943 -0.1924  0.4663  0.1476
13068TIP3    H160619   1.942   4.577  15.880 -2.3425 -0.9099  0.3184
13068TIP3    H260620   1.868   4.708  15.889  2.2777  1.8235 -0.0425
13069TIP3   OH260621   1.296   4.781   0.970 -0.0113  0.0302 -0.4427
13069TIP3    H160622   1.355   4.823   1.033  0.2307  0.1922 -0.7802
13069TIP3    H260623   1.344   4.703   0.940  0.3856  0.6160 -1.3513
13070TIP3   OH260624   0.550   1.740  15.562  0.2831  0.1819 -0.3331
13070TIP3    H160625   0.617   1.771  15.624 -0.3058 -0.1903  0.4934
13070TIP3    H260626   0.598   1.682  15.503  0.8794  0.6466 -0.3154
13071TIP3   OH260627   3.281   0.191   5.665 -0.0252 -0.7382 -0.0101
13071TIP3    H160628   3.294   0.108   5.619 -2.1353 -1.6288  0.9731
13071TIP3    H260629   3.187   0.200   5.674  0.2341  1.0349  1.2781
13072TIP3   OH260630   5.588   5.455   4.535  0.1499  0.1942 -0.9029
13072TIP3    H160631   5.638   5.488   4.610 -0.1416 -0.4729 -0.4097
13072TIP3    H260632   5.651   5.403   4.485 -0.9830 -4.3787  2.0462
13073TIP3   OH260633   4.027   2.299  13.044 -0.3104  0.2382 -0.2152
13073TIP3    H160634   3.940   2.268  13.016 -0.6403 -0.1066  1.1773
13073TIP3    H260635   4.015   2.393  13.059 -0.4138  0.2097 -0.1188
13074TIP3   OH260636   6.544   3.409   5.988  0.4342 -0.4029 -0.0130
13074TIP3    H160637   6.547   3.331   5.933  1.5331  0.3676 -1.0773
13074TIP3    H260638   6.466   3.455   5.959  1.0672  0.0577 -1.0442
13075TIP3   OH260639   6.296   5.751  15.955  0.0251 -0.1930  0.7530
13075TIP3    H160640   6.217   5.756  16.009 -0.1658  2.1692  0.3212
13075TIP3    H260641   6.268   5.706  15.876  0.6896 -5.1983  3.1679
13076TIP3   OH260642   6.638   6.594   2.781 -0.1029  0.4759  0.2451
13076TIP3    H160643   6.729   6.584   2.807 -0.3816  1.2907  1.5521
13076TIP3    H260644   6.588   6.582   2.861 -1.0389  1.7775 -0.1202
13077TIP3   OH260645   0.615   5.937  16.673 -0.1726 -0.3250 -0.0122
13077TIP3    H160646   0.669   6.009  16.708  1.2739 -0.7731 -1.2670
13077TIP3    H260647   0.557   5.914  16.746 -0.5014  1.9550  0.4817
13078TIP3   OH260648   2.473   1.968   3.812  0.3334  0.3585 -0.4664
13078TIP3    H160649   2.425   1.965   3.895  0.5848  0.4877 -0.3157
13078TIP3    H260650   2.515   2.054   3.811 -0.7245  0.8782 -1.3230
13079TIP3   OH260651   4.218   1.498  12.271  0.1028  0.2444  0.6312
13079TIP3    H160652   4.287   1.444  12.235 -0.0396  0.6480 -0.2700
13079TIP3    H260653   4.152   1.436  12.302 -0.0909 -0.1109 -0.4559
13080TIP3   OH260654   5.650   2.480   3.082 -0.1248 -0.1937  0.0629
13080TIP3    H160655   5.727   2.467   3.027  1.3053  2.1433  1.4751
13080TIP3    H260656   5.602   2.551   3.040 -1.1210 -1.1158 -0.3754
13081TIP3   OH260657   5.610   5.845  12.587 -0.3618 -0.5553  0.2256
13081TIP3    H160658   5.670   5.909  12.626 -0.9048  0.0660  0.0511
13081TIP3    H260659   5.637   5.838  12.496 -0.0423 -0.8907  0.3406
13082TIP3   OH260660   6.184   2.737   6.074 -0.1451  0.2795 -0.0313
13082TIP3    H160661   6.253   2.802   6.068  0.6223 -0.4594  0.6177
13082TIP3    H260662   6.217   2.672   6.137 -0.9047 -0.7106 -0.6367
13083TIP3   OH260663   1.232   5.611   5.369  0.0346 -0.1353  0.3618
13083TIP3    H160664   1.224   5.526   5.326 -0.4356  0.2379 -0.2924
13083TIP3    H260665   1.147   5.626   5.409 -0.5923  0.9961 -1.3393
13084TIP3   OH260666   1.989   6.579  15.371 -0.1256  0.2656  0.6445
13084TIP3    H160667   1.907   6.604  15.415 -1.8594  0.0051 -2.3085
13084TIP3    H260668   2.037   6.661  15.362 -0.6116  0.6302  1.3318
13085TIP3   OH260669   6.766   1.315  15.798 -0.3457 -0.3339  0.0127
13085TIP3    H160670   6.768   1.397  15.748  2.2003 -0.7296 -0.5706
13085TIP3    H260671   6.745   1.342  15.887 -3.3390  0.5373 -0.8765
13086TIP3   OH260672   6.384   0.672  17.052  0.6270 -0.0930  0.2755
13086TIP3    H160673   6.402   0.765  17.036 -0.3383 -0.2451 -1.9773
13086TIP3    H260674   6.470   0.630  17.045  0.8912  0.4785 -0.0016
13087TIP3   OH260675   4.051   1.211   0.940 -0.3553 -0.6738 -0.2852
13087TIP3    H160676   4.096   1.241   0.861 -0.7730 -2.2975 -1.1612
13087TIP3    H260677   4.117   1.161   0.988 -0.0161  0.5631  0.5643
13088TIP3   OH260678   4.875   2.427  13.802 -0.3695  0.1276  0.0438
13088TIP3    H160679   4.923   2.455  13.724  1.5462 -1.0707  0.7546
13088TIP3    H260680   4.783   2.428  13.776  0.3198 -1.5778 -2.6709
13089TIP3   OH260681   5.646   2.476   2.631  0.0430  0.5254 -0.3246
13089TIP3    H160682   5.670   2.565   2.605 -1.0779  0.2264 -2.4908
13089TIP3    H260683   5.554   2.468   2.606  0.4796 -1.6692 -1.3425
13090TIP3   OH260684   1.400   1.677   3.038  0.3289  0.1586 -0.4112
13090TIP3    H160685   1.472   1.688   3.100  0.5879 -0.7829 -0.5335
13090TIP3    H260686   1.442   1.678   2.952  0.4287 -2.0491 -0.4197
13091TIP3   OH260687   6.519   1.927  11.772  0.0525 -0.0215 -0.0858
13091TIP3    H160688   6.484   1.956  11.856 -0.3665  0.3897 -0.4016
13091TIP3    H260689   6.579   1.856  11.794  0.7106  0.7580  0.6453
13092TIP3   OH260690   1.075   5.026   3.449  0.7337  0.2963 -0.1269
13092TIP3    H160691   0.983   5.052   3.440  0.2281 -0.8330  1.6247
13092TIP3    H260692   1.115   5.050   3.365 -0.5731  3.1006  0.0017
13093TIP3   OH260693   0.965   3.365   2.001  0.0848 -0.1641  0.7120
13093TIP3    H160694   0.888   3.414   1.973 -0.5693 -1.1498  0.7935
13093TIP3    H260695   0.930   3.286   2.043  1.0943  0.0625  2.0234
13094TIP3   OH260696   3.541   1.664   5.688  0.1715  0.1798  0.0133
13094TIP3    H160697   3.545   1.691   5.779 -0.4546 -0.8840  0.3612
13094TIP3    H260698   3.448   1.648   5.672  0.5332 -1.8234 -0.1600
13095TIP3   OH260699   4.082   5.783   4.551 -0.0758  0.1444 -0.0520
13095TIP3    H160700   4.099   5.877   4.561 -2.0124  0.3793  1.3935
13095TIP3    H260701   4.154   5.741   4.598  1.0420  0.8731 -1.0630
13096TIP3   OH260702   1.289   1.166  12.810  0.5288  0.0965 -0.0266
13096TIP3    H160703   1.266   1.182  12.901 -0.5219 -0.8615 -0.1162
13096TIP3    H260704   1.213   1.121  12.773  0.0845  2.2498 -1.9182
13097TIP3   OH260705   5.192   4.192   2.043 -0.9244  0.0123 -0.0299
13097TIP3    H160706   5.218   4.138   2.117  1.4382 -0.1126 -0.9122
13097TIP3    H260707   5.219   4.280   2.067  0.6050 -0.1604 -1.0809
13098TIP3   OH260708   2.205   2.176  14.335 -0.2259  0.2379  0.4197
13098TIP3    H160709   2.167   2.090  14.314 -1.3797  1.0808 -0.9685
13098TIP3    H260710   2.297   2.167  14.314 -0.5100 -0.3895 -0.5669
13099TIP3   OH260711   4.559   5.330  10.749 -0.2240  0.1434 -0.1574
13099TIP3    H160712   4.564   5.357  10.841  1.5819  1.1605 -0.5356
13099TIP3    H260713   4.606   5.398  10.702 -1.2172 -0.3321 -1.8598
13100TIP3   OH260714   6.082   1.912   1.374  0.2465  0.1805 -0.8849
13100TIP3    H160715   6.145   1.978   1.402 -1.1289  0.0165  2.8400
13100TIP3    H260716   5.997   1.957   1.376 -0.2243 -0.5963 -2.3146
13101TIP3   OH260717   0.291   5.338  15.074  0.7907  0.2560  0.2318
13101TIP3    H160718   0.231   5.371  15.006 -0.0071  1.7566  1.6312
13101TIP3    H260719   0.330   5.259  15.035 -1.0405  0.0383 -1.2525
13102TIP3   OH260720   2.158   0.685   1.162 -0.0198 -0.4271  0.5548
13102TIP3    H160721   2.220   0.747   1.199  1.3785 -0.3154 -1.8610
13102TIP3    H260722   2.192   0.599   1.189  1.4787 -0.3903 -1.0515
13103TIP3   OH260723   4.665   0.906  17.095  0.1362  0.1556  0.8290
13103TIP3    H160724   4.587   0.922  17.149  0.3149  1.2176  0.7842
13103TIP3    H260725   4.633   0.913  17.005  0.3571  0.9884  0.8108
13104TIP3   OH260726   3.736   2.546  16.797 -0.4316 -0.5070 -0.3500
13104TIP3    H160727   3.745   2.591  16.713  1.6554 -0.4782 -0.1393
13104TIP3    H260728   3.732   2.617  16.861 -3.7048 -0.4684 -0.5064
13105TIP3   OH260729   6.120   2.932   5.031 -0.0445 -0.6155  0.1038
13105TIP3    H160730   6.061   2.963   5.099 -0.6203  0.9936 -1.0952
13105TIP3    H260731   6.108   2.837   5.029 -3.0515 -0.2550 -0.5234
13106TIP3   OH260732   1.557   5.501  12.033 -0.0172  0.4655  1.0938
13106TIP3    H160733   1.611   5.580  12.040  0.9638 -0.0248 -0.6157
13106TIP3    H260734   1.512   5.511  11.948 -1.2060 -0.0031  1.6635
13107TIP3   OH260735   6.255   1.587   2.364 -0.1330  0.0447  0.6665
13107TIP3    H160736   6.232   1.494   2.362  0.9284 -0.2436  1.2671
13107TIP3    H260737   6.269   1.606   2.457  0.2723  0.6463  0.4853
13108TIP3   OH260738   5.921   5.907  15.307 -0.3205  0.4495 -0.1132
13108TIP3    H160739   5.939   5.949  15.391  0.5755  1.0943 -0.6086
13108TIP3    H260740   5.845   5.953  15.272 -0.9546 -0.1023  0.5308
13109TIP3   OH260741   6.638   5.741   5.033  0.6467  0.5526  0.3375
13109TIP3    H160742   6.596   5.793   4.964  0.2027  0.5320  0.5941
13109TIP3    H260743   6.642   5.799   5.109  1.5562  0.7300  0.1645
13110TIP3   OH260744   3.741   0.426   5.965  0.2284 -0.3135 -0.2934
13110TIP3    H160745   3.662   0.431   6.020  0.2096  0.8107 -0.3951
13110TIP3    H260746   3.737   0.341   5.924 -2.2307  0.6832 -2.2120
13111TIP3   OH260747   1.580   3.346  15.321  0.3761 -0.6493  0.2177
13111TIP3    H160748   1.627   3.423  15.353  0.6749 -1.0492  0.7577
13111TIP3    H260749   1.518   3.324  15.391 -0.1424 -0.5304 -0.2026
13112TIP3   OH260750   2.251   2.719  13.533  0.4423  0.0489 -0.2167
13112TIP3    H160751   2.179   2.773  13.564  0.9939  0.5345  0.2189
13112TIP3    H260752   2.213   2.632  13.524 -0.6591  0.6569 -1.6901
13113TIP3   OH260753   0.457   0.281   1.146 -0.1012 -0.2283 -0.0578
13113TIP3    H160754   0.544   0.243   1.157  0.0438  0.2142  0.3194
13113TIP3    H260755   0.470   0.375   1.162 -0.8803 -0.3334  1.1693
13114TIP3   OH260756   3.019   2.848   5.699 -1.2104 -0.3018 -0.6684
13114TIP3    H160757   2.939   2.809   5.733 -0.4258 -0.8408  0.5837
13114TIP3    H260758   3.087   2.781   5.712 -0.0731  1.0414  0.4987
13115TIP3   OH260759   5.487   2.707  16.917 -0.2548  0.2816  0.1617
13115TIP3    H160760   5.541   2.672  16.846 -0.3165 -0.1515  0.3316
13115TIP3    H260761   5.546   2.712  16.992 -1.1028 -2.7407  1.1002
13116TIP3   OH260762   5.406   5.232  11.062 -0.5743 -0.5943  0.3946
13116TIP3    H160763   5.487   5.189  11.036 -0.6722 -1.1488  0.9921
13116TIP3    H260764   5.382   5.287  10.987 -0.9342 -2.2651 -0.7503
13117TIP3   OH260765   4.565   3.885   3.482  0.0663  0.4937 -0.0739
13117TIP3    H160766   4.643   3.829   3.488  0.0805  0.5365  0.1701
13117TIP3    H260767   4.492   3.824   3.487  0.0858  0.3423 -1.5006
13118TIP3   OH260768   2.661   6.118   2.820  0.3518  0.1245 -0.4148
13118TIP3    H160769   2.626   6.197   2.779 -0.8603 -0.8429 -1.2682
13118TIP3    H260770   2.591   6.088   2.878  0.7954 -0.3402 -0.1180
13119TIP3   OH260771   2.149   6.487  14.381  0.2839  0.2259  0.0372
13119TIP3    H160772   2.213   6.556  14.361  1.2586 -0.5241  0.4926
13119TIP3    H260773   2.065   6.532  14.386  0.7101  1.1567 -1.0634
13120TIP3   OH260774   6.713   5.071  11.725  0.3471 -0.1665  0.3804
13120TIP3    H160775   6.621   5.058  11.748  0.5017 -0.8167  0.6386
13120TIP3    H260776   6.753   4.985  11.737  0.5110 -0.4725 -1.9740
13121TIP3   OH260777   5.544   1.110   5.978  0.4123 -0.2453 -0.0265
13121TIP3    H160778   5.522   1.165   6.053  0.6435  1.3087 -1.0741
13121TIP3    H260779   5.541   1.020   6.012 -0.9593  0.3474  1.4544
13122TIP3   OH260780   3.286   0.674  16.481  0.3208 -0.8570 -0.2739
13122TIP3    H160781   3.354   0.663  16.414 -0.4595 -1.1958 -1.0166
13122TIP3    H260782   3.250   0.587  16.494  1.1706 -0.9762  1.3588
13123TIP3   OH260783   6.480   2.392   0.476 -0.2125 -0.3019  0.4369
13123TIP3    H160784   6.493   2.364   0.567  1.2499 -0.3297  0.2358
13123TIP3    H260785   6.547   2.344   0.427  0.1693  1.0628 -0.3966
13124TIP3   OH260786   2.752   5.577  15.908 -0.1493 -0.0760  0.3011
13124TIP3    H160787   2.669   5.558  15.865  0.5921 -0.7479 -0.8395
13124TIP3    H260788   2.814   5.516  15.870  0.8938  0.4597  1.1111
13125TIP3   OH260789   0.816   3.125  15.572  0.4657 -0.1204 -0.3966
13125TIP3    H160790   0.892   3.170  15.534  1.2297 -1.8284 -0.9481
13125TIP3    H260791   0.809   3.161  15.660  1.6456  0.3832 -0.4985
13126TIP3   OH260792   1.680   2.546  11.154  0.3374 -0.0859 -0.6987
13126TIP3    H160793   1.642   2.621  11.108  0.8194 -0.0586 -1.0537
13126TIP3    H260794   1.722   2.585  11.232 -0.8502 -0.1824 -0.0027
13127TIP3   OH260795   0.789   3.445   2.875  0.5296 -0.4672 -0.2201
13127TIP3    H160796   0.852   3.506   2.914 -0.1996 -0.4973  1.0461
13127TIP3    H260797   0.765   3.486   2.792  3.4642 -1.2821 -1.5366
13128TIP3   OH260798   3.349   6.225  16.417 -0.4036  0.0221 -0.2094
13128TIP3    H160799   3.318   6.308  16.452 -1.3421  0.1733 -1.3595
13128TIP3    H260800   3.322   6.227  16.325  0.9885 -0.8540 -0.6505
13129TIP3   OH260801   2.060   0.176   2.713  0.1521  0.0026  0.1471
13129TIP3    H160802   2.139   0.197   2.763  0.2235  2.3446 -0.8629
13129TIP3    H260803   2.091   0.163   2.623 -0.4817  0.0101 -0.0753
13130TIP3   OH260804   6.390   1.013   3.689  0.1248 -0.1052 -0.3589
13130TIP3    H160805   6.328   1.045   3.755  0.5898  0.2750 -0.1037
13130TIP3    H260806   6.474   1.052   3.714 -0.3450  3.0943 -3.2500
13131TIP3   OH260807   2.091   6.320   5.775  0.2024 -0.1605 -0.4149
13131TIP3    H160808   2.108   6.255   5.707  1.7640  0.2896 -0.4784
13131TIP3    H260809   2.083   6.403   5.728 -1.4280 -0.2460 -0.2998
13132TIP3   OH260810   5.592   3.955  15.350 -0.2338 -0.6856  0.4649
13132TIP3    H160811   5.565   4.038  15.390  1.1881  0.1383 -0.2558
13132TIP3    H260812   5.674   3.976  15.304  0.2659 -2.5333  0.4763
13133TIP3   OH260813   0.287   2.904  14.113  0.1638 -0.1395  0.3147
13133TIP3    H160814   0.267   2.834  14.050  0.9053 -0.7747  0.7769
13133TIP3    H260815   0.259   2.984  14.069 -1.6538 -0.8138  0.2011
13134TIP3   OH260816   1.663   4.600  11.036 -0.2863  0.1069  0.2416
13134TIP3    H160817   1.604   4.613  10.961  0.7915  0.3089 -0.5910
13134TIP3    H260818   1.692   4.509  11.028  0.0811  0.2249  0.2306
13135TIP3   OH260819   5.011   2.053  15.290  0.3737  0.2475 -0.4647
13135TIP3    H160820   5.050   2.045  15.203  2.5331 -1.7829  0.6385
13135TIP3    H260821   5.025   1.967  15.330 -0.4069  1.2201  1.9671
13136TIP3   OH260822   0.185   6.052   1.434  0.1435 -0.0577 -0.6068
13136TIP3    H160823   0.103   6.093   1.409 -1.0612 -1.5170  0.8292
13136TIP3    H260824   0.245   6.125   1.450 -1.6395  1.1173  0.8498
13137TIP3   OH260825   5.085   2.538  13.659  0.9722  0.0267 -0.3959
13137TIP3    H160826   5.135   2.583  13.727  0.1282  1.4437 -0.6887
13137TIP3    H260827   5.034   2.607  13.617 -1.4741 -1.3944  0.1030
13138TIP3   OH260828   3.818   4.713  12.116  0.3171  0.3327 -0.0647
13138TIP3    H160829   3.733   4.686  12.080 -0.5524  1.2740  1.2766
13138TIP3    H260830   3.877   4.641  12.093 -0.7558 -0.1681 -1.3161
13139TIP3   OH260831   0.159   0.277  13.118 -0.0686 -0.0923  0.3293
13139TIP3    H160832   0.073   0.307  13.089  0.3861  1.5149  0.6193
13139TIP3    H260833   0.147   0.256  13.211  0.2733  1.8348  0.8215
13140TIP3   OH260834   6.388   1.383   4.470 -0.3154 -0.2083  0.3188
13140TIP3    H160835   6.308   1.410   4.425  0.7960  0.0626 -1.5220
13140TIP3    H260836   6.403   1.453   4.534 -1.1331  0.1313  0.1555
13141TIP3   OH260837   0.723   4.544   1.955 -0.0877 -0.1346  0.6275
13141TIP3    H160838   0.707   4.517   2.046  1.3337  1.2811  1.3342
13141TIP3    H260839   0.766   4.469   1.915 -0.0916 -0.5192  1.3286
13142TIP3   OH260840   3.016   2.999   2.946 -0.6688 -0.3789  0.0567
13142TIP3    H160841   3.026   3.077   2.892 -0.5920  0.1700  0.8483
13142TIP3    H260842   3.105   2.965   2.956 -0.7221 -0.6705 -0.4262
13143TIP3   OH260843   1.392   2.973   0.192 -0.5174  0.2797  0.0707
13143TIP3    H160844   1.321   3.027   0.155 -0.9301  0.6928  1.4274
13143TIP3    H260845   1.436   3.032   0.254  0.2746 -0.3406  0.0938
13144TIP3   OH260846   6.703   5.116  12.979  0.0431  0.2837 -0.0140
13144TIP3    H160847   6.784   5.100  12.931 -0.8775 -0.8282 -1.2203
13144TIP3    H260848   6.671   5.028  13.002 -0.5182  0.7342  0.9641
13145TIP3   OH260849   5.904   1.718   0.924 -0.6497  1.0221  0.1052
13145TIP3    H160850   5.894   1.647   0.862  1.3589 -0.3026  1.2473
13145TIP3    H260851   5.932   1.793   0.871  0.8353 -0.0350 -0.6234
13146TIP3   OH260852   4.133   4.676   4.961  0.0460 -0.4126 -0.3959
13146TIP3    H160853   4.152   4.758   5.007  2.1196 -0.6278 -0.8222
13146TIP3    H260854   4.083   4.702   4.884 -0.1052  0.3629 -0.0346
13147TIP3   OH260855   3.940   2.368   2.555  0.0063 -0.2866  0.2448
13147TIP3    H160856   3.982   2.329   2.478  0.6196 -1.3524  1.1100
13147TIP3    H260857   3.969   2.314   2.628 -3.1785 -1.3282  0.8172
13148TIP3   OH260858   3.973   0.797   0.984  0.5819  0.3802  0.2995
13148TIP3    H160859   3.998   0.761   1.069  0.6687 -1.1355 -0.3606
13148TIP3    H260860   4.054   0.795   0.932  0.2505  0.1887 -0.2101
13149TIP3   OH260861   1.058   5.693   0.201  0.5817 -0.4990  0.6261
13149TIP3    H160862   1.090   5.756   0.136  0.6084 -0.0954  1.0253
13149TIP3    H260863   1.070   5.607   0.160  0.5034 -0.2381  0.0607
13150TIP3   OH260864   2.265   3.224   2.436 -0.8219 -0.3281  0.5773
13150TIP3    H160865   2.218   3.228   2.352 -1.2433 -2.2234  0.6951
13150TIP3    H260866   2.285   3.131   2.447  3.5454  0.4988  0.2449
13151TIP3   OH260867   3.513   1.848   1.638 -0.2296 -0.2783  1.2631
13151TIP3    H160868   3.565   1.859   1.718  2.2376 -0.6509 -0.2159
13151TIP3    H260869   3.537   1.761   1.607  0.1114  0.5110 -0.7467
13152TIP3   OH260870   6.411   4.965  15.587 -0.5416 -0.2373  0.3635
13152TIP3    H160871   6.408   5.036  15.651  0.6876 -0.8322  1.1073
13152TIP3    H260872   6.424   4.886  15.640  0.8411 -0.6981 -0.6312
13153TIP3   OH260873   0.434   1.420  16.069 -0.0799 -0.0211  0.0782
13153TIP3    H160874   0.458   1.491  16.009  1.3315 -1.2084 -0.7902
13153TIP3    H260875   0.385   1.358  16.014  0.4073 -0.6709  0.3747
13154TIP3   OH260876   0.605   1.954   5.246  0.1108 -0.2684 -0.5968
13154TIP3    H160877   0.698   1.962   5.266 -0.3233  2.1925  0.7194
13154TIP3    H260878   0.562   2.008   5.312 -2.1652 -0.4059 -1.9180
13155TIP3   OH260879   4.528   0.976   3.650 -0.5741 -0.3603 -0.0646
13155TIP3    H160880   4.471   0.979   3.727 -0.4552  1.0847 -0.0242
13155TIP3    H260881   4.606   0.929   3.681 -0.9466 -0.6813  0.4046
13156TIP3   OH260882   1.445   4.913   4.484  0.4490 -0.3187  0.1515
13156TIP3    H160883   1.506   4.941   4.552 -1.9710  1.3590  1.7171
13156TIP3    H260884   1.472   4.961   4.406  2.4701 -1.3049  0.2025
13157TIP3   OH260885   1.133   0.109   1.537  0.1107  0.0942 -0.0485
13157TIP3    H160886   1.189   0.148   1.470  1.0938  0.8638  1.2155
13157TIP3    H260887   1.167   0.020   1.547  1.0444  0.5300  0.6500
13158TIP3   OH260888   5.137   2.840   3.134  0.7538 -0.4075 -0.8031
13158TIP3    H160889   5.120   2.839   3.040  0.5294 -0.3629 -0.7647
13158TIP3    H260890   5.078   2.907   3.168  1.3411  0.0689 -0.7266
13159TIP3   OH260891   6.224   3.821  11.478 -0.6445  0.0564  0.0568
13159TIP3    H160892   6.272   3.799  11.397 -0.7717 -2.2348  0.5575
13159TIP3    H260893   6.290   3.859  11.535 -0.7074  2.4416 -1.3668
13160TIP3   OH260894   5.723   0.926  11.551  0.1864 -0.3797  0.4179
13160TIP3    H160895   5.719   1.020  11.565  1.4442 -0.1166 -0.8232
13160TIP3    H260896   5.638   0.893  11.580  0.8493  0.6958  3.7928
13161TIP3   OH260897   2.911   4.304   2.391  0.5279  0.3938 -0.1122
13161TIP3    H160898   2.817   4.287   2.399  0.5617 -0.6469 -1.5663
13161TIP3    H260899   2.948   4.277   2.475 -0.6777  2.5064  1.1438
13162TIP3   OH260900   6.056   3.603   0.647  0.1428 -0.2813  0.3405
13162TIP3    H160901   6.130   3.655   0.679  0.3946 -0.8319  0.6818
13162TIP3    H260902   5.995   3.666   0.611  1.4856  0.0619 -1.3832
13163TIP3   OH260903   4.210   5.331  11.989 -0.0278 -0.0453 -0.0276
13163TIP3    H160904   4.168   5.267  12.046 -1.9131  1.7066  0.6317
13163TIP3    H260905   4.140   5.360  11.930  1.7825 -1.5448 -3.0623
13164TIP3   OH260906   0.665   6.608  15.258 -0.2873  0.0051  0.0764
13164TIP3    H160907   0.666   6.540  15.325 -0.7640 -0.5097 -0.4387
13164TIP3    H260908   0.708   6.569  15.182 -0.2619  0.3933 -0.1123
13165TIP3   OH260909   2.820   1.846   4.568 -0.4083 -0.5757  0.2633
13165TIP3    H160910   2.736   1.802   4.552  0.2415 -0.8663 -2.4321
13165TIP3    H260911   2.795   1.934   4.598 -1.6769 -1.2390  1.1986
13166TIP3   OH260912   0.128   1.577   3.597 -0.4310  0.7692  0.1776
13166TIP3    H160913   0.089   1.507   3.649  0.4401  0.2329  0.1174
13166TIP3    H260914   0.179   1.628   3.659  0.7239  0.0460 -0.1474
13167TIP3   OH260915   5.308   6.671   2.779 -0.4449 -0.2492  0.2092
13167TIP3    H160916   5.263   6.609   2.835  0.1025  0.0069  0.9386
13167TIP3    H260917   5.272   6.756   2.803  1.2797  0.0902  1.6438
13168TIP3   OH260918   5.447   4.751  15.259 -0.2502  0.3959 -0.0290
13168TIP3    H160919   5.440   4.661  15.292  2.6169  0.7572  1.7777
13168TIP3    H260920   5.503   4.745  15.182  0.7422  0.7181  0.6502
13169TIP3   OH260921   5.147   1.040   2.076 -0.2238  0.2330  0.5085
13169TIP3    H160922   5.106   1.083   2.151  2.6029 -0.7018  2.6543
13169TIP3    H260923   5.225   1.092   2.059  0.2736 -0.8220 -0.4417
13170TIP3   OH260924   1.892   5.174   4.865 -0.5120  0.0202 -0.0619
13170TIP3    H160925   1.853   5.171   4.778  0.0549 -1.4359 -0.2663
13170TIP3    H260926   1.922   5.085   4.882 -1.3792  0.0791  1.9725
13171TIP3   OH260927   1.294   3.750  14.075 -0.0972  0.2046 -0.1681
13171TIP3    H160928   1.328   3.702  13.998 -0.9906 -0.2950 -0.2604
13171TIP3    H260929   1.222   3.695  14.106 -0.5278  1.0371  0.2891
13172TIP3   OH260930   2.586   4.454   3.406 -0.2214  0.2496  0.0521
13172TIP3    H160931   2.515   4.442   3.342 -1.0487 -1.9632  1.3344
13172TIP3    H260932   2.577   4.544   3.436 -1.9434  0.2576 -0.4527
13173TIP3   OH260933   4.409   0.234  15.450  0.2019  0.2429 -1.0243
13173TIP3    H160934   4.318   0.222  15.424 -0.1162 -0.0720  0.1897
13173TIP3    H260935   4.459   0.180  15.389 -0.4181  0.4521 -1.7221
13174TIP3   OH260936   4.257   3.289  13.985  0.1585 -0.2156 -0.0216
13174TIP3    H160937   4.333   3.338  14.015  0.2165  0.1367 -0.7465
13174TIP3    H260938   4.286   3.198  13.982  0.3495 -0.1669  0.3409
13175TIP3   OH260939   3.140   5.828  11.174  0.1625 -0.3709  0.3034
13175TIP3    H160940   3.134   5.758  11.109 -2.3640 -1.3968  1.5663
13175TIP3    H260941   3.207   5.799  11.236  0.3560 -0.8451 -0.1329
13176TIP3   OH260942   3.438   4.010   3.018 -0.2707 -1.0085  0.3986
13176TIP3    H160943   3.435   4.101   3.048  0.2645 -0.4343 -1.2750
13176TIP3    H260944   3.509   4.007   2.954  0.1613 -2.7585  0.9091
13177TIP3   OH260945   5.678   4.299   5.966 -0.1481 -0.1060  0.5953
13177TIP3    H160946   5.727   4.336   6.040  0.5607  0.3391 -0.0887
13177TIP3    H260947   5.605   4.359   5.953  0.8605  0.9392 -0.3529
13178TIP3   OH260948   5.922   4.720  15.370  0.3934  0.3050  0.2291
13178TIP3    H160949   5.934   4.630  15.340 -0.1780  1.2238 -2.9244
13178TIP3    H260950   5.909   4.712  15.464 -0.5787 -2.9956 -0.1206
13179TIP3   OH260951   0.195   1.969  15.728 -0.8294 -0.3161  0.3875
13179TIP3    H160952   0.185   2.059  15.757  1.5009 -0.1323  0.6844
13179TIP3    H260953   0.124   1.956  15.665 -0.6790  1.9592 -0.2817
13180TIP3   OH260954   5.907   4.319  16.301 -0.1231  0.2392 -0.1421
13180TIP3    H160955   5.910   4.224  16.291 -1.5359 -0.1284  2.6733
13180TIP3    H260956   5.988   4.342  16.346 -0.2629  0.2602  0.0967
13181TIP3   OH260957   5.415   4.195   5.290  0.0162 -0.1409 -0.2037
13181TIP3    H160958   5.483   4.190   5.223  1.3856 -1.0000  1.2277
13181TIP3    H260959   5.398   4.289   5.299  2.0363  0.1854  0.4275
13182TIP3   OH260960   0.708   2.003  15.358  0.1102  0.1355 -0.5205
13182TIP3    H160961   0.700   2.049  15.442 -0.5308  0.8693 -0.9742
13182TIP3    H260962   0.719   2.073  15.293 -2.3101 -0.2555 -1.3924
13183TIP3   OH260963   4.133   4.328   4.991 -0.0909 -0.4538  0.1155
13183TIP3    H160964   4.180   4.383   4.928  0.6370 -0.7561  0.3753
13183TIP3    H260965   4.126   4.243   4.947 -1.2410 -0.1535 -0.2992
13184TIP3   OH260966   5.611   2.464   1.317 -0.0752  0.3215  0.2667
13184TIP3    H160967   5.610   2.378   1.359 -0.9374 -0.2650 -0.9074
13184TIP3    H260968   5.523   2.499   1.333  0.7697  1.7153  2.1419
13185TIP3   OH260969   4.540   3.069   6.405 -0.2656  0.5090  0.2944
13185TIP3    H160970   4.510   2.983   6.375 -1.1880  1.1545 -0.6664
13185TIP3    H260971   4.472   3.130   6.377  1.6906  1.9421 -1.5414
13186TIP3   OH260972   4.873   6.473  15.144 -0.3253 -0.0596  0.1083
13186TIP3    H160973   4.810   6.448  15.076  1.4025  0.6626 -1.7959
13186TIP3    H260974   4.858   6.411  15.215 -2.7004 -0.3377 -0.5990
13187TIP3   OH260975   3.040   2.731  14.269  0.7436  0.7684 -0.0596
13187TIP3    H160976   3.132   2.706  14.256  0.6534  0.4179 -0.0260
13187TIP3    H260977   3.044   2.818  14.308  1.0391  1.4304 -1.5491
13188TIP3   OH260978   2.075   2.687   4.959 -0.3218 -0.3360  0.5139
13188TIP3    H160979   2.160   2.719   4.989  0.0551 -1.3969  0.6222
13188TIP3    H260980   2.078   2.592   4.976 -1.0690 -0.5629 -0.5628
13189TIP3   OH260981   4.264   1.088   1.111 -0.0897  0.0454 -0.4930
13189TIP3    H160982   4.263   0.999   1.076 -1.6373 -0.6537  1.2385
13189TIP3    H260983   4.251   1.077   1.205 -1.6192  2.1674 -0.4224
13190TIP3   OH260984   1.511   4.642  14.521  0.1596  0.0836 -0.1310
13190TIP3    H160985   1.462   4.712  14.477  1.5663  2.8291  2.5136
13190TIP3    H260986   1.587   4.628  14.465 -1.8408 -1.8471 -2.4944
13191TIP3   OH260987   2.511   6.464   2.000  0.1521 -0.3953  0.4314
13191TIP3    H160988   2.523   6.428   1.912  1.2115  0.7717  0.0754
13191TIP3    H260989   2.588   6.519   2.014 -0.2640 -0.1572  1.8938
13192TIP3   OH260990   5.352   1.741  15.469  0.1626 -0.7477  0.4562
13192TIP3    H160991   5.401   1.766  15.390  0.7377  1.3070  1.4329
13192TIP3    H260992   5.285   1.809  15.477 -2.8516 -3.4308 -0.7916
13193TIP3   OH260993   2.189   4.213  11.813 -0.2400 -0.0835  0.0488
13193TIP3    H160994   2.202   4.302  11.845 -2.2946  0.2877 -0.0809
13193TIP3    H260995   2.139   4.224  11.733 -1.1528 -1.3840  0.4301
13194TIP3   OH260996   1.389   6.271  12.900 -0.2614  0.0580  0.0260
13194TIP3    H160997   1.401   6.206  12.969 -0.5160  0.2731  0.2722
13194TIP3    H260998   1.323   6.233  12.842  0.8856 -0.6993 -0.8050
13195TIP3   OH260999   4.593   3.935   0.941  0.1156 -0.0394  0.2341
13195TIP3    H161000   4.671   3.985   0.964  0.1467 -0.0498  0.1473
13195TIP3    H261001   4.626   3.859   0.894 -0.1004  1.1100 -1.8429
13196TIP3   OH261002   6.688   0.998   1.093 -0.3012 -0.1891 -0.0651
13196TIP3    H161003   6.724   1.085   1.074 -0.1425 -0.4417 -0.9515
13196TIP3    H261004   6.647   1.007   1.179  0.1109  0.6439  0.0482
13197TIP3   OH261005   2.642   0.316   1.877 -0.1446  0.4190 -0.0779
13197TIP3    H161006   2.590   0.395   1.867  1.0649  1.3299  0.6026
13197TIP3    H261007   2.702   0.317   1.802  1.3462  1.3301  1.0922
13198TIP3   OH261008   4.960   4.355  12.592  0.7591 -0.2043  0.0291
13198TIP3    H161009   5.018   4.311  12.529  0.8901 -0.5348  0.3816
13198TIP3    H261010   5.009   4.432  12.620  0.7986 -0.1850 -0.0918
13199TIP3   OH261011   5.551   3.643  15.823  0.0647 -0.3516 -0.2671
13199TIP3    H161012   5.566   3.550  15.840 -1.6599 -0.6174 -0.1494
13199TIP3    H261013   5.558   3.651  15.728  1.1593 -0.4229 -0.1978
13200TIP3   OH261014   1.281   4.097  12.372  0.1376 -0.1716  0.4695
13200TIP3    H161015   1.215   4.156  12.335  0.8041  0.3851  0.1430
13200TIP3    H261016   1.264   4.013  12.329 -0.3795 -0.0437  0.4141
13201TIP3   OH261017   3.147   5.404   0.035 -0.4459 -0.0193 -0.3102
13201TIP3    H161018   3.232   5.395   0.077 -0.9301 -1.0093  0.4651
13201TIP3    H261019   3.168   5.434  -0.054  0.5802  2.0653  0.5974
13202TIP3   OH261020   0.388   5.428  12.446 -0.1237 -0.8245 -0.0866
13202TIP3    H161021   0.422   5.415  12.535  2.5201  0.3563 -0.8653
13202TIP3    H261022   0.337   5.349  12.428  1.1658 -2.0996  1.6676
13203TIP3   OH261023   5.282   0.109   4.016 -0.0419  0.2510 -0.0526
13203TIP3    H161024   5.320   0.027   4.047 -1.1924 -1.0622 -2.0704
13203TIP3    H261025   5.225   0.137   4.088 -0.9111 -1.5603 -0.0180
13204TIP3   OH261026   0.761   1.509  15.770 -0.7433 -0.0341  0.2593
13204TIP3    H161027   0.775   1.557  15.688 -0.1402  0.1265  0.4517
13204TIP3    H261028   0.668   1.522  15.789 -0.8011  0.2611 -0.1930
13205TIP3   OH261029   5.018   0.652   1.109 -0.0772 -0.3785  0.2464
13205TIP3    H161030   5.102   0.630   1.069 -0.6999  0.0668 -1.3648
13205TIP3    H261031   4.970   0.569   1.109  0.1607 -0.5153  0.6487
13206TIP3   OH261032   2.401   0.810   3.860 -0.4066  0.0064  0.5919
13206TIP3    H161033   2.407   0.793   3.954 -1.5155  3.1564  1.2860
13206TIP3    H261034   2.408   0.905   3.851  1.5905 -0.3462 -2.7041
13207TIP3   OH261035   3.317   1.654   0.652  0.0502  0.1404 -0.0251
13207TIP3    H161036   3.370   1.722   0.610 -0.1074  0.2640 -0.0290
13207TIP3    H261037   3.272   1.700   0.723 -0.7429  0.2508 -0.5771
13208TIP3   OH261038   2.401   5.589  16.291 -0.1564  0.1308 -0.1432
13208TIP3    H161039   2.473   5.644  16.260 -0.2208 -0.0126 -0.5471
13208TIP3    H261040   2.401   5.602  16.386  0.5950 -0.1055 -0.1062
13209TIP3   OH261041   3.858   2.745  12.527  0.6070  0.0503  0.2246
13209TIP3    H161042   3.908   2.737  12.446 -0.4876 -0.1508 -0.4417
13209TIP3    H261043   3.769   2.718  12.503 -0.0592  1.3978  1.1538
13210TIP3   OH261044   1.673   4.535   0.557 -0.0857 -0.5269  0.7302
13210TIP3    H161045   1.618   4.551   0.480 -0.1991  0.9215  1.0972
13210TIP3    H261046   1.761   4.559   0.529 -0.0396 -0.5122  0.8877
13211TIP3   OH261047   4.490   6.642   0.500 -0.8409 -0.1998  0.1501
13211TIP3    H161048   4.508   6.735   0.488  0.0970 -0.1650  1.6639
13211TIP3    H261049   4.503   6.603   0.414  1.0876  0.7088 -0.0012
13212TIP3   OH261050   0.212   0.827  16.287 -0.0222 -0.9879 -0.1908
13212TIP3    H161051   0.143   0.805  16.225 -0.7113 -0.1584  0.2711
13212TIP3    H261052   0.248   0.910  16.255 -1.4339  0.2669  1.3578
13213TIP3   OH261053   4.407   5.986   3.313 -0.0415  0.7927 -0.1947
13213TIP3    H161054   4.433   6.039   3.237 -1.7037 -1.0136 -2.0921
13213TIP3    H261055   4.461   5.907   3.306  0.0916  0.7983  0.7599
13214TIP3   OH261056   5.284   0.644   3.329  0.5824  0.2756  0.0670
13214TIP3    H161057   5.237   0.694   3.396 -0.0354 -0.0334 -0.1299
13214TIP3    H261058   5.333   0.578   3.378  0.9473  0.7007  0.2854
13215TIP3   OH261059   4.636   4.352   5.839  0.0665 -0.6159 -0.6353
13215TIP3    H161060   4.611   4.361   5.931 -0.4697 -0.4087 -0.8036
13215TIP3    H261061   4.669   4.438   5.814 -2.3254  0.1014 -1.4080
13216TIP3   OH261062   2.216   4.749   1.639  0.4136  1.0787  0.3918
13216TIP3    H161063   2.169   4.668   1.657  0.8539  0.0670 -2.7034
13216TIP3    H261064   2.292   4.747   1.698 -0.0945 -0.2809  1.0183
13217TIP3   OH261065   5.840   2.013  15.748  0.1053 -0.3794  0.1554
13217TIP3    H161066   5.757   2.061  15.756  0.4071  0.0940  0.4732
13217TIP3    H261067   5.907   2.081  15.747  0.4646 -0.7413 -0.5740
13218TIP3   OH261068   2.529   2.545   4.716  0.6272 -0.0405  0.1610
13218TIP3    H161069   2.612   2.593   4.708  1.0489 -0.5491  1.3132
13218TIP3    H261070   2.542   2.465   4.665  0.8441 -0.1093  0.3221
13219TIP3   OH261071   4.802   5.633  14.896 -0.1762 -0.1343 -0.3879
13219TIP3    H161072   4.714   5.599  14.914 -0.9019  1.5600 -0.6623
13219TIP3    H261073   4.843   5.639  14.982 -0.9393  0.6911 -0.0714
13220TIP3   OH261074   2.428   6.134   0.472  0.1067 -0.0358  0.1308
13220TIP3    H161075   2.357   6.197   0.454  1.2749  1.2397 -0.0858
13220TIP3    H261076   2.453   6.101   0.385  1.3938  1.3291 -0.0462
13221TIP3   OH261077   5.849   4.389   1.356  0.1048 -0.1685 -0.6521
13221TIP3    H161078   5.782   4.342   1.306  0.5731 -1.4591 -0.0997
13221TIP3    H261079   5.931   4.348   1.330  0.4291 -0.3430  0.5847
13222TIP3   OH261080   5.721   0.343   6.267  0.3808  0.0779  0.0593
13222TIP3    H161081   5.626   0.353   6.268  0.2128 -1.3858  0.2380
13222TIP3    H261082   5.749   0.371   6.354 -0.1450 -1.5640  0.7931
13223TIP3   OH261083   1.834   2.284   2.706  0.1862  0.2174 -0.1186
13223TIP3    H161084   1.885   2.295   2.786  0.5011  2.8867 -0.6381
13223TIP3    H261085   1.900   2.275   2.636 -0.0852 -0.6839 -0.2674
13224TIP3   OH261086   0.405   4.827  12.223 -0.1653  0.2412  0.1505
13224TIP3    H161087   0.314   4.845  12.200 -0.1663 -0.3927 -0.3639
13224TIP3    H261088   0.405   4.826  12.319 -0.8341 -0.3739  0.1586
13225TIP3   OH261089   1.193   4.772  15.265 -0.2276 -0.6305 -0.1157
13225TIP3    H161090   1.120   4.792  15.207 -0.8058  0.8643  1.0843
13225TIP3    H261091   1.153   4.725  15.338 -0.0332  0.3465  0.6303
13226TIP3   OH261092   1.069   3.413  12.878 -0.5355 -0.3114 -0.3749
13226TIP3    H161093   1.017   3.493  12.892  0.9448  0.5245  0.4651
13226TIP3    H261094   1.126   3.408  12.955 -0.2564 -1.9202 -0.6719
13227TIP3   OH261095   5.103   0.259   4.173  0.2763 -0.1658  0.6855
13227TIP3    H161096   5.041   0.281   4.242  0.6242  1.3030  0.5450
13227TIP3    H261097   5.066   0.299   4.094  1.5668  1.0252  0.6721
13228TIP3   OH261098   4.760   3.944   2.298  0.1290  0.5477 -0.0364
13228TIP3    H161099   4.750   3.975   2.208 -1.0530 -1.5697 -0.6629
13228TIP3    H261100   4.713   3.861   2.300  0.2049  0.5301  2.5242
13229TIP3   OH261101   6.357   6.492  12.152  0.1812 -0.2601  0.1961
13229TIP3    H161102   6.278   6.458  12.194  0.9835 -2.8111 -0.2947
13229TIP3    H261103   6.385   6.564  12.208 -0.9310 -1.1421  1.9037
13230TIP3   OH261104   1.317   4.995   5.532  0.3103  0.1909  0.6198
13230TIP3    H161105   1.359   5.065   5.582  2.6874 -1.3186  0.8145
13230TIP3    H261106   1.282   4.936   5.598  0.6007 -0.1367  0.4835
13231TIP3   OH261107   1.254   5.321  13.107  0.2863 -0.0052 -0.6169
13231TIP3    H161108   1.280   5.413  13.115 -1.9594  0.5341  1.0503
13231TIP3    H261109   1.261   5.288  13.197  1.0179 -1.4551 -1.2076
13232TIP3   OH261110   5.840   2.680  14.731  0.3522  0.4101 -0.3190
13232TIP3    H161111   5.790   2.629  14.667 -0.6935 -0.1211  0.9043
13232TIP3    H261112   5.899   2.733  14.678 -1.7605  1.3347 -1.8324
13233TIP3   OH261113   0.299   1.274   4.925  0.4196  0.1457 -0.8172
13233TIP3    H161114   0.245   1.279   4.846  1.8872 -1.7440 -1.9824
13233TIP3    H261115   0.247   1.222   4.986 -0.7229  1.6129 -0.5179
13234TIP3   OH261116   5.931   5.107  14.874 -0.4276  0.2407  0.0830
13234TIP3    H161117   5.881   5.177  14.917 -0.9608  0.6587 -1.1926
13234TIP3    H261118   5.868   5.064  14.817 -0.0679 -1.2426  0.7733
13235TIP3   OH261119   1.612   0.658   3.618 -0.2931 -0.8626  0.1010
13235TIP3    H161120   1.673   0.604   3.669  0.6745  1.2810  1.2551
13235TIP3    H261121   1.540   0.676   3.679 -0.4925 -0.6317 -0.2054
13236TIP3   OH261122   3.583   5.161  13.124 -0.1522  0.3050 -0.2132
13236TIP3    H161123   3.489   5.148  13.131  0.2662 -1.7813  2.1661
13236TIP3    H261124   3.615   5.086  13.074  0.3694  0.4583 -0.1189
13237TIP3   OH261125   5.131   6.208   5.330 -0.3200 -0.2550  0.3862
13237TIP3    H161126   5.176   6.229   5.412 -2.7636  2.1002  1.1950
13237TIP3    H261127   5.039   6.231   5.347 -1.2529 -1.8729 -2.2768
13238TIP3   OH261128   0.047   4.491  14.046  0.2934  0.1016 -0.6377
13238TIP3    H161129   0.005   4.557  13.990 -0.2735  0.2461 -0.0407
13238TIP3    H261130  -0.021   4.426  14.061  0.0124  0.7409  1.0023
13239TIP3   OH261131   0.147   4.624  15.551  0.0076  0.0640 -0.1169
13239TIP3    H161132   0.127   4.566  15.624  0.7133  2.0403  1.7091
13239TIP3    H261133   0.214   4.578  15.501 -1.5164 -1.9496 -0.3791
13240TIP3   OH261134   2.977   1.530   1.775  0.1388  0.1569  0.4908
13240TIP3    H161135   2.892   1.574   1.787  0.5134  1.6630 -1.9190
13240TIP3    H261136   2.960   1.463   1.708  0.6240 -0.1806  0.7053
13241TIP3   OH261137   1.786   1.437   1.424  0.9672  0.1055  0.3122
13241TIP3    H161138   1.875   1.426   1.459  1.8641  2.5928 -1.0737
13241TIP3    H261139   1.760   1.524   1.454 -0.6717 -0.2424 -0.0721
13242TIP3   OH261140   3.529   0.720   1.339 -0.2214  0.0812 -0.7439
13242TIP3    H161141   3.487   0.763   1.414 -1.7018 -1.0047 -0.9147
13242TIP3    H261142   3.620   0.746   1.344 -0.4321  0.5298  1.0930
13243TIP3   OH261143   5.985   3.082  16.577  0.6302 -0.2132  0.3854
13243TIP3    H161144   6.075   3.112  16.589  1.2071 -0.5109 -2.9420
13243TIP3    H261145   5.985   2.993  16.612  1.8569 -0.5063 -0.3197
13244TIP3   OH261146   6.407   5.835   3.664 -0.0250 -0.1532  0.4080
13244TIP3    H161147   6.401   5.894   3.739 -0.0633 -1.5823  1.5557
13244TIP3    H261148   6.330   5.779   3.671  0.9098 -1.4811  0.3399
13245TIP3   OH261149   4.692   6.693  11.370 -0.7528  0.3354  0.6867
13245TIP3    H161150   4.751   6.629  11.328 -1.1763  0.3067  0.1344
13245TIP3    H261151   4.730   6.778  11.349 -0.4717  0.2888  0.9944
13246TIP3   OH261152   4.937   1.149  11.946  0.1165 -0.0532  0.0187
13246TIP3    H161153   4.946   1.229  11.998  0.3433  0.2982 -0.5595
13246TIP3    H261154   5.019   1.101  11.961 -0.0996 -0.2637  0.5149
13247TIP3   OH261155   2.653   4.941   5.048 -0.1611 -0.5777 -0.0290
13247TIP3    H161156   2.567   4.916   5.014  0.5579 -5.2619  1.3035
13247TIP3    H261157   2.714   4.916   4.979  0.4558 -1.0521  0.6793
13248TIP3   OH261158   3.831   3.203  13.803 -0.5448  0.1911 -1.2612
13248TIP3    H161159   3.837   3.146  13.727  0.9328 -0.7209 -0.4769
13248TIP3    H261160   3.770   3.158  13.862  1.4530 -1.1502 -0.1792
13249TIP3   OH261161   3.942   0.871  13.897 -0.4967  0.1845  0.0657
13249TIP3    H161162   3.894   0.814  13.956 -0.4021  0.6808  0.6318
13249TIP3    H261163   3.921   0.960  13.928 -0.4597  0.4433 -0.6533
13250TIP3   OH261164   1.484   4.881   1.141 -0.1529 -0.0107 -0.6482
13250TIP3    H161165   1.517   4.869   1.230 -0.9814  1.6228 -0.0945
13250TIP3    H261166   1.562   4.903   1.089  0.3251 -0.9365 -0.3287
13251TIP3   OH261167   6.230   3.349  14.284 -0.0726 -0.0289 -0.0325
13251TIP3    H161168   6.210   3.373  14.194  0.9045 -2.4333 -0.9235
13251TIP3    H261169   6.148   3.361  14.331 -1.4451 -1.8087 -1.9005
13252TIP3   OH261170   2.185   4.048   5.201 -0.1010  0.5698 -0.1503
13252TIP3    H161171   2.208   3.972   5.255 -1.6700  1.6245  2.0850
13252TIP3    H261172   2.191   4.016   5.111  1.4310 -1.5763  0.6613
13253TIP3   OH261173   1.650   5.398   6.405 -0.4967 -0.0991 -0.0587
13253TIP3    H161174   1.711   5.343   6.455 -1.2430 -1.6550 -0.8240
13253TIP3    H261175   1.674   5.487   6.429  1.7305 -0.6927  0.0628
13254TIP3   OH261176   2.476   4.139   3.690 -0.5395 -0.1643 -0.3932
13254TIP3    H161177   2.382   4.147   3.674 -0.4973 -1.0585 -1.0875
13254TIP3    H261178   2.500   4.055   3.651 -0.0307 -1.3953  2.4411
13255TIP3   OH261179   2.972   3.192  11.599  0.9462  0.2800 -0.0556
13255TIP3    H161180   2.918   3.240  11.662 -1.2365 -3.7411  1.3710
13255TIP3    H261181   3.061   3.223  11.615 -0.1513  2.5519  1.9364
13256TIP3   OH261182   5.094   5.228  16.673  0.0808  0.1898  0.3317
13256TIP3    H161183   5.008   5.191  16.691 -0.4128  0.5323 -1.2375
13256TIP3    H261184   5.078   5.322  16.660  1.0809  0.7095  2.6149
13257TIP3   OH261185   1.814   1.981  15.976  0.2253 -0.6779 -0.3185
13257TIP3    H161186   1.743   1.919  15.960  1.1301 -1.3219 -2.0096
13257TIP3    H261187   1.802   2.049  15.909  0.5288 -0.1732  0.1291
13258TIP3   OH261188   6.208   2.722   2.831  0.1318 -0.3578 -0.7168
13258TIP3    H161189   6.275   2.771   2.783 -0.9808  1.2459 -0.6654
13258TIP3    H261190   6.247   2.707   2.918  1.3347 -1.4832 -1.4362
13259TIP3   OH261191   3.653   5.698  15.676  0.2679  0.0907 -0.6227
13259TIP3    H161192   3.731   5.642  15.670 -0.6613 -1.3489  0.5144
13259TIP3    H261193   3.598   5.656  15.742 -0.8860  1.8365 -0.4420
13260TIP3   OH261194   4.493   1.294   5.209  0.8601  0.1191 -0.3718
13260TIP3    H161195   4.543   1.277   5.289  0.9067 -0.5379 -0.5461
13260TIP3    H261196   4.503   1.389   5.196 -0.0149  0.4169  0.9768
13261TIP3   OH261197   4.784   1.608   6.790 -0.1570  0.0568  0.6196
13261TIP3    H161198   4.740   1.594   6.706  2.1051  0.7830 -0.7194
13261TIP3    H261199   4.723   1.661   6.840 -0.1343  2.4886 -1.8365
13262TIP3   OH261200   6.101   0.078   3.705  0.1707 -0.4036  0.2009
13262TIP3    H161201   6.019   0.121   3.729  0.2405 -0.4250  0.4845
13262TIP3    H261202   6.167   0.119   3.761  0.4105 -0.1526 -0.2599
13263TIP3   OH261203   3.950   0.814  16.959 -0.2512  0.0951  0.2728
13263TIP3    H161204   3.859   0.844  16.957  0.4657  2.5874  1.6250
13263TIP3    H261205   3.956   0.759  17.037 -0.5861 -0.0018  0.2288
13264TIP3   OH261206   3.714   1.060  11.491  0.0786 -0.9248 -0.3383
13264TIP3    H161207   3.680   1.082  11.577  0.4834 -1.5328 -0.0229
13264TIP3    H261208   3.709   0.964  11.486  1.2217 -0.9777 -0.5041
13265TIP3   OH261209   4.861   3.991   1.554  0.1873  0.1872 -0.0922
13265TIP3    H161210   4.950   3.989   1.589 -0.0043 -0.8560  0.3500
13265TIP3    H261211   4.812   4.047   1.614  0.6099  1.0565 -0.5329
13266TIP3   OH261212   0.334   3.299  16.000 -0.2053 -0.3091 -0.2567
13266TIP3    H161213   0.264   3.361  15.981 -1.5581 -2.0420 -1.0808
13266TIP3    H261214   0.368   3.275  15.914 -0.4935 -1.5814 -0.0370
13267TIP3   OH261215   6.277   0.803  10.519 -0.1519 -0.0697 -0.2956
13267TIP3    H161216   6.270   0.899  10.517  1.2051  0.0181 -2.8410
13267TIP3    H261217   6.331   0.785  10.596 -1.0031  1.1384  0.6141
13268TIP3   OH261218   0.718   4.331   3.993  0.0675 -0.2460 -0.0675
13268TIP3    H161219   0.630   4.310   4.024 -1.0175  2.5173 -1.1220
13268TIP3    H261220   0.709   4.344   3.899  1.0641  2.4749  0.1634
13269TIP3   OH261221   3.808   3.187   3.743  0.0628  0.2045  0.0801
13269TIP3    H161222   3.856   3.142   3.673  1.1919  0.7206  0.5100
13269TIP3    H261223   3.781   3.270   3.704  0.9920  0.6405  0.3596
13270TIP3   OH261224   5.771   6.648  11.997  0.6099 -0.8354  0.1052
13270TIP3    H161225   5.824   6.642  12.076  1.9455  0.8873 -0.6357
13270TIP3    H261226   5.763   6.742  11.980 -2.1132 -1.0724 -0.1902
13271TIP3   OH261227   2.383   6.739  13.018 -0.0805  0.0074  0.3750
13271TIP3    H161228   2.432   6.718  12.939 -2.3096 -0.3258 -0.9651
13271TIP3    H261229   2.368   6.655  13.061  1.5864  0.2444  1.4519
13272TIP3   OH261230   5.732   1.216   1.061 -0.0553 -0.5147 -0.3716
13272TIP3    H161231   5.704   1.253   1.145 -1.1909  1.2685 -1.5006
13272TIP3    H261232   5.772   1.290   1.016 -0.8219 -1.0936 -2.0125
13273TIP3   OH261233   3.918   6.081   6.320 -0.0200 -0.5999 -0.0717
13273TIP3    H161234   3.943   6.004   6.371  0.1890 -0.0888  0.6090
13273TIP3    H261235   3.850   6.124   6.372 -1.0131 -0.9892 -1.0403
13274TIP3   OH261236   2.868   2.842  15.122  0.5264  0.2142  0.2233
13274TIP3    H161237   2.951   2.816  15.081 -0.0495 -1.2648  0.0008
13274TIP3    H261238   2.891   2.921  15.171  1.5064  1.3430 -1.9432
13275TIP3   OH261239   4.702   0.374  13.355 -0.2574 -0.2661 -0.4273
13275TIP3    H161240   4.781   0.420  13.328  0.2494 -0.9377 -0.1026
13275TIP3    H261241   4.635   0.442  13.362  0.9093  0.6831  1.7577
13276TIP3   OH261242   2.909   5.699   2.139  0.7718  0.2272 -0.6267
13276TIP3    H161243   2.911   5.611   2.177 -0.7256 -0.5166 -2.1818
13276TIP3    H261244   3.001   5.723   2.130  1.1880 -0.5017  1.2884
13277TIP3   OH261245   5.961   5.358   2.411 -0.1912 -0.4078  0.0549
13277TIP3    H161246   5.897   5.349   2.481 -1.6422 -1.1672 -1.3640
13277TIP3    H261247   5.999   5.445   2.425  1.5074 -1.6227  3.4004
13278TIP3   OH261248   2.028   3.241   5.611  0.3918  0.5440  0.5763
13278TIP3    H161249   1.969   3.316   5.621  0.5300  0.7665 -0.2566
13278TIP3    H261250   2.051   3.241   5.518  0.8358 -0.1994  0.6842
13279TIP3   OH261251   0.266   5.996   5.859 -0.5026  0.3971  0.3825
13279TIP3    H161252   0.194   6.007   5.922 -0.3876  3.1370  0.0676
13279TIP3    H261253   0.230   5.937   5.793 -1.7409  0.0740  1.3087
13280TIP3   OH261254   2.769   6.348  11.679 -0.0461 -0.7125 -0.5630
13280TIP3    H161255   2.714   6.289  11.731  0.5995 -0.5345  0.3414
13280TIP3    H261256   2.768   6.311  11.591 -1.5307 -0.7757 -0.5420
13281TIP3   OH261257   5.557   5.408  13.491 -0.2968  0.0925  0.1569
13281TIP3    H161258   5.566   5.331  13.435 -0.9381  0.3874 -0.3610
13281TIP3    H261259   5.564   5.374  13.580  0.6876 -0.3893 -0.0968
13282TIP3   OH261260   3.197   5.738   2.786 -0.1836 -0.1858 -0.4476
13282TIP3    H161261   3.219   5.717   2.877  0.1543 -0.3618 -0.5693
13282TIP3    H261262   3.282   5.740   2.741 -0.3052  0.4048 -0.6520
13283TIP3   OH261263   0.979   1.868  15.354 -0.0255 -0.7141  0.1507
13283TIP3    H161264   0.890   1.901  15.359 -0.5978 -2.3340  0.9919
13283TIP3    H261265   1.027   1.917  15.421 -0.1895  0.4112 -0.5464
13284TIP3   OH261266   4.735   4.751  13.042 -0.6794  0.2498  0.0538
13284TIP3    H161267   4.792   4.786  13.111 -1.3934  0.0913  0.7371
13284TIP3    H261268   4.779   4.671  13.013  0.6689  1.3778 -1.1058
13285TIP3   OH261269   1.523   5.062  16.219 -0.1257  0.1661 -0.2249
13285TIP3    H161270   1.537   5.109  16.136  0.8906  0.7312  0.2521
13285TIP3    H261271   1.468   4.988  16.195  1.9594 -0.9193 -1.8280
13286TIP3   OH261272   0.526   5.605   3.359  0.3838  0.0165 -0.2950
13286TIP3    H161273   0.549   5.638   3.446 -3.4345  2.7545 -0.2013
13286TIP3    H261274   0.563   5.669   3.298 -1.0399  0.7123 -0.4412
13287TIP3   OH261275   4.354   0.449   5.263 -0.1843  0.3643 -0.2484
13287TIP3    H161276   4.378   0.357   5.253  0.2070  0.5477 -1.0583
13287TIP3    H261277   4.367   0.487   5.176 -1.4034  0.9407 -0.1937
13288TIP3   OH261278   4.234   5.665   1.522  0.2099  0.5424  0.4556
13288TIP3    H161279   4.182   5.686   1.599 -0.7437 -0.4964  0.1173
13288TIP3    H261280   4.302   5.606   1.554  0.7349  1.2966  0.7589
13289TIP3   OH261281   2.462   4.922  15.646  0.2599 -0.1414  0.1674
13289TIP3    H161282   2.374   4.923  15.610 -0.0066 -0.7641  0.7880
13289TIP3    H261283   2.450   4.906  15.740  1.0376 -0.4847  0.2163
13290TIP3   OH261284   6.356   2.593  16.833  0.2206 -0.0447 -0.8537
13290TIP3    H161285   6.380   2.686  16.828 -2.6472  0.7522 -0.5080
13290TIP3    H261286   6.352   2.575  16.927  0.7345 -0.5048 -0.9215
13291TIP3   OH261287   2.826   3.820   4.514  0.0000  0.1711 -0.0418
13291TIP3    H161288   2.861   3.907   4.535 -1.6119  0.8974 -0.2585
13291TIP3    H261289   2.739   3.838   4.478 -0.3303 -1.5423 -0.1188
13292TIP3   OH261290   1.379   2.025   5.513  0.0660  0.1043 -0.0273
13292TIP3    H161291   1.470   2.037   5.541  0.0775 -1.8695  0.8919
13292TIP3    H261292   1.327   2.046   5.590 -0.1738 -0.0708 -0.1404
13293TIP3   OH261293   1.468   1.233   4.061 -0.4666 -0.2863 -0.2767
13293TIP3    H161294   1.517   1.245   4.142 -0.6751 -1.7263  0.0801
13293TIP3    H261295   1.411   1.310   4.055 -0.3016 -0.0786  0.8286
13294TIP3   OH261296   6.556   4.908   1.182 -0.7438  0.0629  0.0532
13294TIP3    H161297   6.473   4.890   1.226 -0.7342 -0.2994 -0.0753
13294TIP3    H261298   6.618   4.926   1.253 -1.1869  1.4255  0.1086
13295TIP3   OH261299   2.676   1.865  15.285 -0.1227 -0.6389 -0.4483
13295TIP3    H161300   2.715   1.868  15.372  0.1109  2.5285 -0.5904
13295TIP3    H261301   2.747   1.891  15.226 -0.9822 -0.1967 -1.3039
13296TIP3   OH261302   2.639   1.469  16.373 -0.4954  0.2752 -0.4082
13296TIP3    H161303   2.575   1.399  16.388  1.2192 -0.8120  2.1629
13296TIP3    H261304   2.671   1.453  16.284 -1.8323 -0.7864 -0.7192
13297TIP3   OH261305   2.116   1.729  15.229  0.2019  0.1986 -0.0579
13297TIP3    H161306   2.188   1.753  15.171 -0.2931  0.5516 -0.5329
13297TIP3    H261307   2.090   1.811  15.271 -0.4101  0.2072 -0.4490
13298TIP3   OH261308   1.227   3.946  11.723  0.3175  0.2762  0.2385
13298TIP3    H161309   1.191   4.035  11.726 -2.1701 -0.5610 -2.4877
13298TIP3    H261310   1.288   3.947  11.650  0.4404 -0.2049  0.3315
13299TIP3   OH261311   0.776   2.613   1.060 -0.7118  0.3849 -0.2762
13299TIP3    H161312   0.779   2.585   1.151 -1.0557 -1.3413 -0.7670
13299TIP3    H261313   0.694   2.662   1.052 -0.1692  1.4360  0.5757
13300TIP3   OH261314   2.799   1.062   3.708 -0.7341  0.6130 -0.0344
13300TIP3    H161315   2.842   0.977   3.705 -0.9661  0.4992 -0.1522
13300TIP3    H261316   2.767   1.077   3.619 -1.5710  0.3657  0.2209
13301TIP3   OH261317   0.159   2.112  15.394 -0.0674 -0.0504 -0.5258
13301TIP3    H161318   0.252   2.100  15.413 -0.1449  0.3245  0.1020
13301TIP3    H261319   0.137   2.196  15.434 -1.0014 -0.7730  0.5155
13302TIP3   OH261320   6.434   1.182  12.680  0.2522  0.1143  0.5932
13302TIP3    H161321   6.447   1.095  12.642  0.3871 -0.1801  1.3219
13302TIP3    H261322   6.473   1.242  12.615  2.0864 -0.5236  1.0896
13303TIP3   OH261323   1.049   3.186   2.908 -0.3402 -0.0441 -0.1381
13303TIP3    H161324   1.077   3.276   2.890 -0.2173  0.2618  1.4614
13303TIP3    H261325   1.127   3.133   2.892  0.3785  0.4708  1.5358
13304TIP3   OH261326   2.329   4.184   4.665  0.3731  0.2168  0.1942
13304TIP3    H161327   2.357   4.114   4.724  1.4820  0.8921  0.5041
13304TIP3    H261328   2.295   4.139   4.588 -2.6279 -0.7229  1.9884
13305TIP3   OH261329   0.682   5.935   2.071 -0.3507  0.0907 -0.0394
13305TIP3    H161330   0.612   5.998   2.054 -0.2704 -0.0537 -0.9266
13305TIP3    H261331   0.706   5.902   1.985  0.2136 -0.5076  0.3416
13306TIP3   OH261332   6.334   3.729   3.688 -0.1522  0.3762 -0.1727
13306TIP3    H161333   6.318   3.821   3.709  2.2676  1.2773 -1.9661
13306TIP3    H261334   6.258   3.682   3.722 -1.2142  2.9839  1.1561
13307TIP3   OH261335   3.913   4.439   1.243  0.0974 -0.1836  0.2767
13307TIP3    H161336   3.885   4.454   1.153  1.6839 -0.1171 -0.2200
13307TIP3    H261337   3.908   4.344   1.254  1.0038 -0.3062 -0.2728
13308TIP3   OH261338   2.951   3.266  15.099 -0.1340 -0.0075 -0.0336
13308TIP3    H161339   2.874   3.213  15.081 -0.1600  0.2023 -0.5520
13308TIP3    H261340   2.919   3.338  15.153  0.1702 -1.3212  1.9603
13309TIP3   OH261341   1.682   6.367   0.515  0.4637 -0.6658  0.4549
13309TIP3    H161342   1.694   6.276   0.542  2.0857 -0.5688  0.0865
13309TIP3    H261343   1.634   6.361   0.433  1.4968 -1.2472 -0.1237
13310TIP3   OH261344   0.366   2.444  13.436  0.4453 -0.1641 -0.5110
13310TIP3    H161345   0.282   2.437  13.482  1.6045  1.3930  1.9720
13310TIP3    H261346   0.346   2.498  13.359 -1.0801 -0.8315 -0.5950
13311TIP3   OH261347   1.994   2.001  11.376  0.3449  0.0144 -0.7471
13311TIP3    H161348   2.015   1.991  11.283 -0.3929 -1.1822 -0.8040
13311TIP3    H261349   1.918   2.060  11.378  0.9861  0.8430 -0.8329
13312TIP3   OH261350   6.122   2.168  12.245  0.5913  0.2597 -0.0831
13312TIP3    H161351   6.141   2.078  12.272 -0.6085  0.2001  0.5620
13312TIP3    H261352   6.084   2.160  12.157  0.3372  0.1339  0.0420
13313TIP3   OH261353   2.486   3.953  12.890 -0.3911 -0.0556 -0.3154
13313TIP3    H161354   2.435   3.954  12.809 -0.8654 -1.3673 -0.0466
13313TIP3    H261355   2.493   3.861  12.913  0.0970  0.2777  0.9236
13314TIP3   OH261356   3.439   2.933   6.128  0.4757 -0.0636 -0.4916
13314TIP3    H161357   3.452   2.995   6.056  1.8704  0.3304  0.0704
13314TIP3    H261358   3.472   2.850   6.094  2.0363  0.3379  0.0082
13315TIP3   OH261359   4.077   5.490  12.833 -0.2935  0.5865 -0.1858
13315TIP3    H161360   4.074   5.475  12.928 -1.5082 -0.1670 -0.3326
13315TIP3    H261361   4.071   5.403  12.795  0.8768  0.8351 -0.9612
13316TIP3   OH261362   1.461   3.803   2.720  0.1889  0.3147  0.2972
13316TIP3    H161363   1.530   3.843   2.667  1.0506 -0.9108  0.4834
13316TIP3    H261364   1.431   3.728   2.668  1.1627 -1.0056  1.6059
13317TIP3   OH261365   2.648   0.179  13.791 -0.3938 -0.3987  0.7976
13317TIP3    H161366   2.638   0.171  13.885 -0.8898  1.1437  0.8831
13317TIP3    H261367   2.631   0.090  13.758  0.8997 -1.1906  2.2302
13318TIP3   OH261368   6.488   4.076   4.172  0.0218  0.2726 -0.4239
13318TIP3    H161369   6.516   4.077   4.263  1.3992  1.6891 -0.8412
13318TIP3    H261370   6.413   4.016   4.170  0.4455 -0.3407  1.4874
13319TIP3   OH261371   6.110   1.732  10.628  0.0028 -0.0678  0.6005
13319TIP3    H161372   6.028   1.752  10.672 -0.5433  0.2256 -0.5277
13319TIP3    H261373   6.156   1.817  10.624 -0.0514 -0.0467  0.4039
13320TIP3   OH261374   2.386   6.339   4.827  0.8017  0.0780 -0.0138
13320TIP3    H161375   2.399   6.422   4.873  0.8521  0.0592  0.0062
13320TIP3    H261376   2.456   6.282   4.861 -0.0890 -0.4152  1.0225
13321TIP3   OH261377   4.392   6.722  15.717 -0.1908  0.0651 -0.0792
13321TIP3    H161378   4.481   6.757  15.710 -0.1326 -0.2397 -0.8707
13321TIP3    H261379   4.370   6.695  15.628 -1.4969  1.1789 -0.1152
13322TIP3   OH261380   0.556   6.287   2.815 -0.0711  0.3706  0.1070
13322TIP3    H161381   0.651   6.297   2.802 -0.1161  0.6822  0.0014
13322TIP3    H261382   0.534   6.352   2.882  0.0280 -0.7074  1.2067
13323TIP3   OH261383   0.178   2.555   0.532  0.3526  0.4345  0.2196
13323TIP3    H161384   0.179   2.651   0.540  0.4212  0.3132  1.7722
13323TIP3    H261385   0.109   2.537   0.468  1.4299  1.5956 -1.3148
13324TIP3   OH261386   3.846   6.108   3.429  0.1241  0.0781 -0.1705
13324TIP3    H161387   3.786   6.182   3.421  0.0121  0.1429  1.1695
13324TIP3    H261388   3.865   6.082   3.338 -2.3259 -0.2517 -0.6264
13325TIP3   OH261389   4.966   2.901   3.827 -0.9132  0.5817  0.2139
13325TIP3    H161390   4.995   2.968   3.889 -2.5516  2.3476 -0.8572
13325TIP3    H261391   5.020   2.916   3.749 -1.4866  0.8778 -0.1338
13326TIP3   OH261392   4.087   3.306  13.039  0.0980 -0.5586 -0.0419
13326TIP3    H161393   3.992   3.314  13.041  0.1574  0.0939  0.1071
13326TIP3    H261394   4.109   3.296  12.946 -0.0581 -0.0625 -0.1296
13327TIP3   OH261395   0.224   2.381   0.315  0.4421  0.1541  0.6273
13327TIP3    H161396   0.168   2.454   0.291  0.1001 -0.3047 -0.0034
13327TIP3    H261397   0.245   2.338   0.232 -0.2506 -1.1003  1.0814
13328TIP3   OH261398   0.483   4.769   5.857  0.7211  0.1302 -0.4002
13328TIP3    H161399   0.548   4.797   5.922 -1.0437  0.4028  1.3129
13328TIP3    H261400   0.479   4.674   5.866 -0.8108  0.3137  1.2210
13329TIP3   OH261401   5.116   1.809   4.520  0.1297  0.5001 -0.7008
13329TIP3    H161402   5.207   1.822   4.494  0.9072 -1.0208  1.2014
13329TIP3    H261403   5.109   1.715   4.536 -0.7434  1.1461  2.9409
13330TIP3   OH261404   4.354   3.702   3.565 -0.3761 -0.4251 -0.5074
13330TIP3    H161405   4.429   3.654   3.598 -0.0577  0.7287  0.4938
13330TIP3    H261406   4.314   3.643   3.501 -0.5348 -2.3826  1.3428
13331TIP3   OH261407   3.304   6.102  10.597  0.0877 -0.0968  0.4756
13331TIP3    H161408   3.400   6.106  10.591  0.1508 -1.2490  0.5904
13331TIP3    H261409   3.274   6.168  10.534  0.9497 -0.1607 -0.0188
13332TIP3   OH261410   6.638   2.181   5.425 -0.0835 -0.5753 -0.2960
13332TIP3    H161411   6.728   2.157   5.451 -0.3149  0.3504  1.4844
13332TIP3    H261412   6.611   2.245   5.491 -2.3847 -1.4961 -0.3003
13333TIP3   OH261413   0.041   0.819  13.214  0.1546  0.0865  0.4040
13333TIP3    H161414   0.065   0.824  13.121  0.7493  0.0817  0.5581
13333TIP3    H261415   0.101   0.755  13.251  0.6595  0.9206  1.0338
13334TIP3   OH261416   3.389   1.398  14.592 -0.1134  0.0771 -0.2015
13334TIP3    H161417   3.334   1.329  14.630  0.3612  0.8476  1.9686
13334TIP3    H261418   3.327   1.465  14.565 -0.5150 -0.8060 -1.5342
13335TIP3   OH261419   3.586   4.816   0.519  0.0128 -0.1511  0.8642
13335TIP3    H161420   3.566   4.798   0.611  1.0416  0.3837  1.2043
13335TIP3    H261421   3.540   4.898   0.499  2.7031  1.7146  1.9838
13336TIP3   OH261422   2.239   0.942   3.298 -0.2524 -0.2993 -0.2809
13336TIP3    H161423   2.231   1.027   3.254 -1.5773  0.4142  1.3102
13336TIP3    H261424   2.152   0.904   3.294  0.2342 -1.4150 -0.5802
13337TIP3   OH261425   5.340   1.762  11.945  0.0490  0.0737 -0.0723
13337TIP3    H161426   5.375   1.844  11.910 -1.7380  1.5682  1.5465
13337TIP3    H261427   5.302   1.718  11.869 -0.1097  1.3448 -0.7407
13338TIP3   OH261428   4.407   3.640  14.748 -0.1593  0.4179 -0.0231
13338TIP3    H161429   4.496   3.669  14.725  0.0822 -0.7345 -0.5880
13338TIP3    H261430   4.352   3.717  14.732  0.2393  0.1304 -2.9881
13339TIP3   OH261431   2.442   2.024  14.735  0.8007 -0.0813  0.7220
13339TIP3    H161432   2.474   2.097  14.681 -0.1505 -0.2431 -0.0788
13339TIP3    H261433   2.391   1.970  14.674 -0.2517 -0.2875  1.7708
13340TIP3   OH261434   5.675   4.471   2.304 -0.2763 -0.2716  0.5778
13340TIP3    H161435   5.626   4.525   2.366  1.0041 -0.0040  1.3772
13340TIP3    H261436   5.645   4.499   2.218  0.7300  2.1022  0.9656
13341TIP3   OH261437   4.837   0.639  14.454  0.0636 -0.1397 -0.2996
13341TIP3    H161438   4.861   0.600  14.538 -0.7242 -0.4368 -0.2035
13341TIP3    H261439   4.804   0.566  14.401 -0.9389  0.2937 -0.2987
13342TIP3   OH261440   3.605   0.665  16.135  0.3303 -0.0122 -0.0955
13342TIP3    H161441   3.672   0.703  16.192  0.5356  2.0613 -1.6391
13342TIP3    H261442   3.648   0.656  16.050 -1.0663  0.4457 -0.8615
13343TIP3   OH261443   4.566   3.532   3.641 -0.2042 -0.1437 -0.1268
13343TIP3    H161444   4.580   3.536   3.736 -1.1654 -2.3661  0.1190
13343TIP3    H261445   4.515   3.453   3.627  1.9114 -1.1069 -2.7589
13344TIP3   OH261446   3.583   5.838  13.868  0.1975 -0.0651 -0.0129
13344TIP3    H161447   3.540   5.873  13.791 -2.1038 -1.3401  0.6441
13344TIP3    H261448   3.617   5.753  13.840  2.5643  1.0267 -0.5929
13345TIP3   OH261449   0.367   1.674  14.958 -0.1356  0.2069 -0.0149
13345TIP3    H161450   0.339   1.632  15.039 -1.5774  0.9585 -0.1057
13345TIP3    H261451   0.461   1.688  14.969 -0.4155  0.7364  1.7275
13346TIP3   OH261452   4.732   2.695  16.121 -0.0557 -0.3340  0.1834
13346TIP3    H161453   4.770   2.779  16.095 -0.3766 -0.2120  0.0995
13346TIP3    H261454   4.748   2.690  16.215 -1.4107  0.5469  0.4748
13347TIP3   OH261455   2.692   2.883   4.623 -0.3386 -0.0489  0.1775
13347TIP3    H161456   2.781   2.903   4.654 -0.1131  0.6173 -0.8602
13347TIP3    H261457   2.700   2.799   4.580 -0.4616 -0.5419  1.1000
13348TIP3   OH261458   2.683   5.415  16.308  0.2972  0.2408  0.3172
13348TIP3    H161459   2.756   5.432  16.368 -0.2925  0.5113  0.9685
13348TIP3    H261460   2.654   5.502  16.281 -0.4042  0.1714  0.8279
13349TIP3   OH261461   1.313   1.092  14.040  0.5727  0.6706  0.1346
13349TIP3    H161462   1.243   1.027  14.032  0.2327  1.2393 -1.9071
13349TIP3    H261463   1.272   1.165  14.085 -0.2223  1.0714 -1.2104
13350TIP3   OH261464   5.235   6.061   6.108  0.0587 -0.2564 -0.0390
13350TIP3    H161465   5.281   6.127   6.055 -0.2099 -0.7322 -0.8710
13350TIP3    H261466   5.142   6.075   6.088 -0.1775  0.7317  1.6698
13351TIP3   OH261467   0.759   0.739  16.362  0.1021 -0.1307 -0.2309
13351TIP3    H161468   0.794   0.828  16.360 -0.1187 -0.0142  0.8148
13351TIP3    H261469   0.764   0.714  16.454  0.7957 -1.4564 -0.6146
13352TIP3   OH261470   5.052   4.236  12.001 -0.3058  0.7944 -0.2218
13352TIP3    H161471   5.139   4.196  12.002  0.6186  2.7727  0.6341
13352TIP3    H261472   5.015   4.218  12.088 -2.0224 -2.6415 -1.5662
13353TIP3   OH261473   5.651   5.019  12.206 -0.3374  0.3440  0.7899
13353TIP3    H161474   5.609   4.953  12.151 -1.5311  0.9767  0.9221
13353TIP3    H261475   5.599   5.019  12.287 -0.6692  1.7818  0.5978
13354TIP3   OH261476   5.226   5.591   2.199 -0.2320  0.3905  0.1565
13354TIP3    H161477   5.206   5.502   2.169  0.4374  0.6569 -1.0902
13354TIP3    H261478   5.185   5.648   2.135  0.3345  0.9746  0.3119
13355TIP3   OH261479   5.913   2.658   5.992  0.6049  0.2197  0.3584
13355TIP3    H161480   6.003   2.648   6.021  0.5764  1.0004  0.7154
13355TIP3    H261481   5.870   2.706   6.063  0.0350  0.3186 -0.0516
13356TIP3   OH261482   3.985   1.816   1.212 -1.3976  0.0751 -0.4048
13356TIP3    H161483   3.916   1.750   1.219 -0.3683 -0.9720 -0.1098
13356TIP3    H261484   4.036   1.806   1.293  1.7486 -2.1521 -2.5676
13357TIP3   OH261485   3.165   2.274  15.022 -0.1306  0.6593  0.3353
13357TIP3    H161486   3.233   2.211  14.998  0.6427  1.0502  1.4893
13357TIP3    H261487   3.091   2.252  14.965  1.5472  1.3547 -2.2045
13358TIP3   OH261488   2.455   2.816   3.648 -0.7633  0.3404 -0.6815
13358TIP3    H161489   2.516   2.884   3.621 -0.8359  0.8709  0.4711
13358TIP3    H261490   2.511   2.746   3.683 -0.6945 -0.1569 -1.7705
13359TIP3   OH261491   4.572   3.890  12.454 -0.4951 -0.3048  0.5763
13359TIP3    H161492   4.495   3.944  12.439 -0.9635 -1.5997 -1.8743
13359TIP3    H261493   4.548   3.835  12.528 -1.7093 -0.3037  0.1982
13360TIP3   OH261494   3.796   5.406   5.909  0.7998  0.0197  0.0686
13360TIP3    H161495   3.793   5.362   5.994  1.3377  0.4229  0.3026
13360TIP3    H261496   3.787   5.499   5.930  0.1222  0.0555 -0.3817
13361TIP3   OH261497   4.096   2.464  14.614 -0.3965 -0.3227  0.0906
13361TIP3    H161498   4.107   2.385  14.667 -1.4444 -0.9682 -0.6301
13361TIP3    H261499   4.009   2.496  14.636  0.2518  0.9779  0.8176
13362TIP3   OH261500   1.392   2.709  11.905 -0.1489  0.3086 -0.3154
13362TIP3    H161501   1.438   2.782  11.946 -0.5079  0.0289  0.5960
13362TIP3    H261502   1.456   2.637  11.907 -1.0738 -0.4949  2.2410
13363TIP3   OH261503   1.930   0.467  15.489 -0.5343  0.2954  0.0012
13363TIP3    H161504   1.863   0.438  15.427  0.2189 -0.0942 -0.6263
13363TIP3    H261505   1.962   0.550  15.454  1.0592 -0.7369 -1.0158
13364TIP3   OH261506   5.669   3.380  15.895  0.5606 -0.3939  0.1984
13364TIP3    H161507   5.685   3.296  15.851 -0.7415 -0.8418  0.5712
13364TIP3    H261508   5.753   3.425  15.890  0.8427 -1.0674 -1.4051
13365TIP3   OH261509   1.292   1.489   6.236 -0.4784  0.2966 -0.4188
13365TIP3    H161510   1.316   1.418   6.295  0.3668  0.8525 -0.0858
13365TIP3    H261511   1.221   1.534   6.281 -0.5273  0.0971 -0.2940
13366TIP3   OH261512   6.649   3.624   5.179 -0.3913  0.0208 -0.0240
13366TIP3    H161513   6.677   3.711   5.150  0.6486 -0.5430 -0.7488
13366TIP3    H261514   6.625   3.579   5.099 -1.6548 -0.1175  0.4243
13367TIP3   OH261515   1.896   4.342  16.994  0.3879 -0.3328  0.4775
13367TIP3    H161516   1.848   4.425  16.996 -0.7247 -0.9374 -0.2907
13367TIP3    H261517   1.835   4.279  17.032  0.1127 -1.3339 -1.5731
13368TIP3   OH261518   0.585   5.539   1.548 -0.0185 -0.6834 -0.0856
13368TIP3    H161519   0.599   5.633   1.559  1.9301 -0.6885 -1.9846
13368TIP3    H261520   0.491   5.529   1.540 -0.2141  1.1802 -0.2784
13369TIP3   OH261521   0.727   3.019  14.100  0.1138  0.0204 -0.6034
13369TIP3    H161522   0.814   2.979  14.098  0.3049  0.4396 -0.7669
13369TIP3    H261523   0.685   2.988  14.020 -0.0688 -0.5820 -0.2754
13370TIP3   OH261524   1.757   0.297   4.030 -0.7549 -0.4537 -0.4814
13370TIP3    H161525   1.694   0.311   4.100  0.7347  1.5214  0.5179
13370TIP3    H261526   1.778   0.204   4.034 -1.0514 -0.4476  1.3551
13371TIP3   OH261527   1.346   6.769  12.003  0.3344 -0.1161 -0.0589
13371TIP3    H161528   1.269   6.732  12.046  0.4710 -1.1611 -0.7030
13371TIP3    H261529   1.341   6.863  12.021 -1.2890 -0.1207 -0.3964
13372TIP3   OH261530   0.139   3.590   5.571 -0.5001 -0.0755 -0.1508
13372TIP3    H161531   0.139   3.511   5.624 -1.2863  0.6335  0.9282
13372TIP3    H261532   0.055   3.588   5.525 -0.3084 -0.1043 -0.5082
13373TIP3   OH261533   0.427   2.444   0.571 -0.0271 -0.3256  0.3332
13373TIP3    H161534   0.345   2.481   0.539 -0.6939 -1.6179  0.4948
13373TIP3    H261535   0.434   2.474   0.661  0.8687  1.7127 -0.3867
13374TIP3   OH261536   5.654   3.671  12.050  0.1718 -0.1095 -0.2855
13374TIP3    H161537   5.681   3.739  11.988  1.0495 -0.0234  0.1884
13374TIP3    H261538   5.638   3.594  11.995  3.3294 -0.7524 -0.3871
13375TIP3   OH261539   3.985   0.652   3.359 -0.0988  0.7465  0.0067
13375TIP3    H161540   4.000   0.691   3.273  0.6188 -1.1656 -0.7526
13375TIP3    H261541   4.060   0.680   3.412  0.5707  0.1544 -0.6204
13376TIP3   OH261542   0.505   6.510  15.738  0.4109  0.0310 -0.2774
13376TIP3    H161543   0.535   6.572  15.672 -0.3211  0.3137 -0.3422
13376TIP3    H261544   0.410   6.518  15.738  0.3366 -0.8038 -0.0084
13377TIP3   OH261545   2.346   6.082   5.390 -0.0536 -1.2429  0.3825
13377TIP3    H161546   2.334   6.140   5.315  3.4855  1.0898  1.4882
13377TIP3    H261547   2.403   6.012   5.358 -0.4980 -1.5516  0.2667
13378TIP3   OH261548   1.965   5.470   5.167  0.3383  0.0076  0.5957
13378TIP3    H161549   1.943   5.383   5.200 -0.6385 -0.2665 -0.6993
13378TIP3    H261550   2.012   5.512   5.238 -1.0984 -0.8046  2.0694
13379TIP3   OH261551   1.720   4.618   4.042 -0.6605 -0.1563  0.0354
13379TIP3    H161552   1.810   4.631   4.012 -0.6694 -0.6613 -0.2324
13379TIP3    H261553   1.688   4.705   4.065  0.4887 -0.1940  1.8074
13380TIP3   OH261554   5.577   5.299  13.773 -0.3574  0.4314  0.1161
13380TIP3    H161555   5.559   5.353  13.850 -1.5681  1.5856 -0.9558
13380TIP3    H261556   5.514   5.227  13.780  0.9289 -0.6083  1.2868
13381TIP3   OH261557   6.250   4.514   3.446  0.5155 -0.7827 -0.2310
13381TIP3    H161558   6.229   4.543   3.357  0.1153 -1.3660 -0.3307
13381TIP3    H261559   6.171   4.533   3.497  0.4754 -1.1247 -0.1630
13382TIP3   OH261560   3.922   3.984   2.168  0.3954 -0.1573  0.2698
13382TIP3    H161561   3.874   3.903   2.150  0.3160 -0.5791  2.2076
13382TIP3    H261562   3.863   4.034   2.225  0.4229  1.2990 -0.9587
13383TIP3   OH261563   5.997   0.215   1.976  0.1481 -0.0439  0.8532
13383TIP3    H161564   6.031   0.126   1.965 -1.4379 -0.6059  0.4193
13383TIP3    H261565   6.055   0.269   1.923 -0.7499 -1.2455 -1.4605
13384TIP3   OH261566   1.874   0.730  14.892  0.1858 -0.1846  0.1775
13384TIP3    H161567   1.861   0.653  14.836 -1.7118  1.1456 -1.2758
13384TIP3    H261568   1.806   0.723  14.958  0.0884  0.1927  0.1152
13385TIP3   OH261569   4.932   1.476   2.963  0.2309  0.3559 -0.1662
13385TIP3    H161570   4.970   1.446   3.046 -2.4929 -0.2095  0.9164
13385TIP3    H261571   4.886   1.399   2.929  0.4049  0.9120 -1.6763
13386TIP3   OH261572   6.429   0.042   2.736 -0.0967 -0.2048  0.4671
13386TIP3    H161573   6.390   0.064   2.821  0.1267  1.3674  0.1707
13386TIP3    H261574   6.521   0.022   2.756 -0.1276 -0.1672  0.6476
13387TIP3   OH261575   5.531   5.094  15.593  0.2369  0.2337  0.0834
13387TIP3    H161576   5.573   5.179  15.603 -0.7941  0.5987  1.5033
13387TIP3    H261577   5.441   5.114  15.569 -0.6677 -0.3464  2.7585
13388TIP3   OH261578   4.682   1.528   2.697 -0.1131 -0.3167  0.2532
13388TIP3    H161579   4.661   1.549   2.788 -1.3453 -1.4448  0.2442
13388TIP3    H261580   4.614   1.570   2.645 -0.6383 -1.4406  0.0102
13389TIP3   OH261581   3.696   0.138   1.254 -0.0726  0.4517  0.3479
13389TIP3    H161582   3.625   0.077   1.272  1.2740 -2.2230 -2.7843
13389TIP3    H261583   3.652   0.217   1.221 -1.7139  0.0925  1.6308
13390TIP3   OH261584   2.738   5.267  14.971  0.2113 -0.0011 -0.1073
13390TIP3    H161585   2.772   5.197  14.916 -0.8632  0.1986 -1.0483
13390TIP3    H261586   2.816   5.313  15.002  0.8341  0.3438 -2.0801
13391TIP3   OH261587   4.007   3.147  12.734 -0.0466  0.2293  0.1988
13391TIP3    H161588   3.917   3.134  12.763  0.2617 -1.2947  0.5559
13391TIP3    H261589   4.000   3.159  12.640 -0.5680 -0.8201  0.0857
13392TIP3   OH261590   1.380   3.218  13.981  0.4520 -0.5036 -0.0959
13392TIP3    H161591   1.355   3.126  13.994 -0.6713  0.0369  1.7096
13392TIP3    H261592   1.311   3.254  13.926 -0.8773  0.0743  1.9145
13393TIP3   OH261593   0.519   5.105  13.919 -0.4887  0.1186  0.2454
13393TIP3    H161594   0.516   5.195  13.888 -2.1587  0.3065  0.8800
13393TIP3    H261595   0.429   5.086  13.947  0.5692 -0.5600  3.4306
13394TIP3   OH261596   6.347   6.127   5.966 -0.8397  0.2687 -0.1699
13394TIP3    H161597   6.308   6.212   5.988  0.9792  1.2281 -0.5926
13394TIP3    H261598   6.441   6.141   5.971 -0.5051 -2.2414  1.6214
13395TIP3   OH261599   6.411   1.133  15.463 -0.8200  0.1673  0.3116
13395TIP3    H161600   6.469   1.155  15.536  1.0157 -0.0552 -1.0633
13395TIP3    H261601   6.450   1.055  15.423 -0.3380  1.7844 -2.4915
13396TIP3   OH261602   4.419   6.324   1.884 -0.0975 -0.4702 -0.7625
13396TIP3    H161603   4.332   6.319   1.846 -0.3506 -1.1954 -0.1138
13396TIP3    H261604   4.440   6.417   1.886 -1.2621 -0.2174 -0.0383
13397TIP3   OH261605   1.520   2.610  12.398 -0.6341  0.3470  0.2123
13397TIP3    H161606   1.517   2.566  12.483 -0.6762  1.5294  0.8451
13397TIP3    H261607   1.613   2.616  12.376 -0.5668  0.8526  0.6215
13398TIP3   OH261608   6.304   2.080   1.473 -0.4284  0.1989  0.1065
13398TIP3    H161609   6.320   2.030   1.553 -1.8601 -0.6245 -0.0991
13398TIP3    H261610   6.309   2.172   1.501  0.7674 -0.0616  0.7836
13399TIP3   OH261611   4.513   2.164   3.790 -0.6268  0.0622 -0.9608
13399TIP3    H161612   4.603   2.173   3.821 -0.9375 -0.3407  0.0887
13399TIP3    H261613   4.465   2.233   3.837 -0.9524 -0.0342 -1.1527
13400TIP3   OH261614   1.716   6.154  14.161 -0.6803 -0.1345  0.3415
13400TIP3    H161615   1.672   6.228  14.203 -0.5369  0.3050 -0.2685
13400TIP3    H261616   1.696   6.079  14.217 -0.8790  0.3547  0.9328
13401TIP3   OH261617   2.075   2.273  13.848  0.0332 -0.2549 -0.3082
13401TIP3    H161618   2.138   2.271  13.776  0.5574  0.8967  0.1023
13401TIP3    H261619   2.104   2.204  13.907  0.4870 -0.2106 -0.4751
13402TIP3   OH261620   0.212   6.225   4.385 -0.5436  0.4782 -0.7724
13402TIP3    H161621   0.254   6.310   4.398 -1.2173  1.1848 -2.9549
13402TIP3    H261622   0.257   6.166   4.446  1.5260  1.8624 -0.9185
13403TIP3   OH261623   2.965   3.234  17.037 -0.5430  0.7097 -0.1767
13403TIP3    H161624   3.009   3.150  17.046 -2.0439 -0.2902 -1.8406
13403TIP3    H261625   3.036   3.296  17.016  0.2657 -0.6186 -1.4898
13404TIP3   OH261626   2.221   5.886  16.355  0.2468 -0.2596  0.3912
13404TIP3    H161627   2.198   5.979  16.362 -1.1650 -0.5306 -0.4432
13404TIP3    H261628   2.302   5.885  16.305 -0.0700  0.4878 -0.1426
13405TIP3   OH261629   2.765   6.234  12.701 -0.2297 -0.2451  0.3166
13405TIP3    H161630   2.847   6.283  12.691 -0.4818  0.0165 -0.4889
13405TIP3    H261631   2.703   6.280  12.645 -0.7710 -0.7957  0.4676
13406TIP3   OH261632   2.342   4.284  13.418  0.3442 -0.3897  0.0066
13406TIP3    H161633   2.261   4.238  13.394  0.5993 -0.4531 -0.7296
13406TIP3    H261634   2.369   4.329  13.338 -0.4595  1.9093  1.0012
13407TIP3   OH261635   4.939   3.888  16.346  0.1886 -0.4771  0.7837
13407TIP3    H161636   4.845   3.894  16.363  0.0659  0.5219 -0.2146
13407TIP3    H261637   4.978   3.956  16.401  0.5481 -2.1745  2.7045
13408TIP3   OH261638   1.766   1.629   0.944 -0.1975  0.3256  0.0185
13408TIP3    H161639   1.796   1.647   1.033 -0.1879  0.4557 -0.0114
13408TIP3    H261640   1.695   1.565   0.956 -1.1762  1.4229  0.2349
13409TIP3   OH261641   6.416   1.935   6.767  0.5641  0.3667  0.6195
13409TIP3    H161642   6.398   1.886   6.686  1.6750 -1.9205  1.7159
13409TIP3    H261643   6.329   1.958   6.800 -0.0212 -1.5206  0.4604
13410TIP3   OH261644   0.976   3.683  12.913  0.0625 -0.0461  0.3338
13410TIP3    H161645   0.907   3.711  12.973 -1.5028 -2.1028 -0.4643
13410TIP3    H261646   1.025   3.763  12.895 -0.6642  1.0062  2.7377
13411TIP3   OH261647   3.126   1.497   3.819 -0.5890 -0.5502  0.1426
13411TIP3    H161648   3.070   1.551   3.763  0.3559 -1.9462 -2.1802
13411TIP3    H261649   3.211   1.540   3.816 -0.3438 -1.0464 -0.1215
13412TIP3   OH261650   2.832   3.394   5.090 -0.1275 -0.4474 -0.5217
13412TIP3    H161651   2.753   3.341   5.082 -0.9735  0.5250  1.2032
13412TIP3    H261652   2.830   3.452   5.014 -0.4228 -1.2462 -1.1316
13413TIP3   OH261653   2.641   2.774  15.272 -0.6241  0.4517 -0.2179
13413TIP3    H161654   2.642   2.862  15.308 -0.7684  0.9599 -1.4183
13413TIP3    H261655   2.719   2.769  15.217  0.6135 -0.9487  1.6109
13414TIP3   OH261656   4.082   5.820  14.690 -0.1966 -0.4821 -0.1748
13414TIP3    H161657   4.068   5.912  14.665 -1.5614 -0.8378 -0.8003
13414TIP3    H261658   4.148   5.789  14.628  1.0559  0.3689  0.7291
13415TIP3   OH261659   0.588   5.305  15.791 -0.4844  0.3208 -0.0327
13415TIP3    H161660   0.498   5.327  15.771 -0.9615 -1.9355 -0.5330
13415TIP3    H261661   0.599   5.215  15.759  1.4304 -0.0662  1.5652
13416TIP3   OH261662   5.512   5.140   5.913 -0.2491 -0.3873 -0.4369
13416TIP3    H161663   5.501   5.165   6.005 -1.1905 -1.0598 -0.3616
13416TIP3    H261664   5.450   5.068   5.900 -0.2197 -0.2069 -1.6345
13417TIP3   OH261665   1.475   0.745   1.338  0.1382 -0.3402 -0.3367
13417TIP3    H161666   1.426   0.814   1.383  0.7509 -1.6177  2.3588
13417TIP3    H261667   1.550   0.791   1.298 -0.3775  0.8043 -0.0020
13418TIP3   OH261668   5.308   3.134   3.853 -0.4744 -0.4043  0.1040
13418TIP3    H161669   5.381   3.191   3.877  1.3085 -2.3556 -0.5482
13418TIP3    H261670   5.250   3.190   3.801  0.9227  0.9836  0.0005
13419TIP3   OH261671   3.303   2.526  13.181  0.1610 -0.1843  0.0142
13419TIP3    H161672   3.282   2.471  13.256  1.2667  0.0601  0.5129
13419TIP3    H261673   3.397   2.542  13.188  0.1566  0.3917 -1.0540
13420TIP3   OH261674   1.594   3.675  13.032 -0.3294  0.1523  0.0299
13420TIP3    H161675   1.587   3.760  13.076  1.3885  0.9757 -1.2184
13420TIP3    H261676   1.576   3.695  12.940  0.7410 -0.7227 -0.3708
13421TIP3   OH261677   6.070   1.240   0.087 -0.5291  0.1565  0.0417
13421TIP3    H161678   6.003   1.218   0.022 -0.5974  0.1906  0.1000
13421TIP3    H261679   6.114   1.316   0.051  0.5722 -0.8532 -0.7816
13422TIP3   OH261680   1.861   0.204  11.538 -0.0599  0.1478  0.1385
13422TIP3    H161681   1.838   0.220  11.629 -0.2105 -1.9583  0.5049
13422TIP3    H261682   1.791   0.246  11.488 -0.2590  0.8654  1.0022
13423TIP3   OH261683   1.770   6.115   3.284  0.2388 -0.4818 -0.1101
13423TIP3    H161684   1.766   6.193   3.229 -1.5225 -0.6810 -0.2811
13423TIP3    H261685   1.805   6.047   3.226 -0.2413 -0.3356 -0.5711
13424TIP3   OH261686   4.724   1.388  13.596 -0.2758 -0.3481  0.0050
13424TIP3    H161687   4.714   1.293  13.587  0.2282 -0.3475 -0.6720
13424TIP3    H261688   4.817   1.400  13.616 -0.1365  0.0519 -0.8341
13425TIP3   OH261689   4.547   3.045   3.973 -0.3365 -0.6924  0.2757
13425TIP3    H161690   4.454   3.027   3.963 -0.2307 -0.4210 -1.3274
13425TIP3    H261691   4.551   3.127   4.022 -0.9987  0.6486 -1.8466
13426TIP3   OH261692   0.877   1.295   1.937  0.3943 -0.1583 -0.6186
13426TIP3    H161693   0.929   1.250   2.004  1.0415  1.5858  0.0896
13426TIP3    H261694   0.942   1.330   1.876 -0.1983 -1.8364 -2.2723
13427TIP3   OH261695   4.116   1.860  10.786 -0.2858 -0.3718  0.4034
13427TIP3    H161696   4.114   1.921  10.712  1.5559  0.9191  1.3968
13427TIP3    H261697   4.046   1.890  10.844 -0.1269  0.1043  0.3495
13428TIP3   OH261698   4.967   0.004  15.586  0.3926 -0.3089  0.2232
13428TIP3    H161699   4.910   0.018  15.510 -0.8654 -0.6154  1.0935
13428TIP3    H261700   4.984   0.092  15.619  0.9350 -0.1748 -0.3963
13429TIP3   OH261701   3.177   6.265  11.378 -0.2008 -0.5045 -0.7614
13429TIP3    H161702   3.200   6.348  11.338  0.0702 -0.5363 -0.6720
13429TIP3    H261703   3.146   6.211  11.306 -0.4995 -0.2849 -0.7980
13430TIP3   OH261704   4.801   3.373   4.440 -0.0048  0.2277  0.9052
13430TIP3    H161705   4.707   3.356   4.444  0.0335  0.0794  1.1885
13430TIP3    H261706   4.841   3.294   4.476  0.2319  0.2423  0.6741
13431TIP3   OH261707   4.639   0.048   2.114  0.1358  0.5221  0.2655
13431TIP3    H161708   4.711  -0.015   2.108 -1.8377 -1.8213  0.6149
13431TIP3    H261709   4.631   0.083   2.025  0.2523 -0.8516 -0.2951
13432TIP3   OH261710   1.623   3.514  11.772  0.0575  1.0043 -0.1815
13432TIP3    H161711   1.581   3.552  11.695 -3.1140 -0.9440  0.4927
13432TIP3    H261712   1.700   3.470  11.737 -0.5239  1.3917 -2.0364
13433TIP3   OH261713   0.064   2.010  14.386 -0.0150  0.1306  0.2089
13433TIP3    H161714   0.007   1.966  14.324 -0.4077  0.0382  0.6301
13433TIP3    H261715   0.112   1.939  14.429 -1.4124  0.0361  1.6348
13434TIP3   OH261716   5.569   6.626   2.871  0.6999 -0.2613 -0.6294
13434TIP3    H161717   5.633   6.697   2.881  0.8047 -0.2627 -1.2736
13434TIP3    H261718   5.508   6.658   2.804  0.0480 -0.2752 -0.0389
13435TIP3   OH261719   4.453   2.049  16.660 -0.3760  0.0198  0.0318
13435TIP3    H161720   4.363   2.068  16.687  0.7380  3.3168  1.6416
13435TIP3    H261721   4.453   2.063  16.565 -1.7121 -0.7924 -0.1037
13436TIP3   OH261722   3.165   2.962  13.899  0.2278  0.2289  0.2690
13436TIP3    H161723   3.074   2.932  13.903 -0.4095  2.0336 -0.1028
13436TIP3    H261724   3.212   2.892  13.853 -0.7021 -1.2985  1.5978
13437TIP3   OH261725   3.256   0.652   4.823  0.1049 -0.5682 -0.2888
13437TIP3    H161726   3.239   0.738   4.863  0.0878  0.0291 -1.5481
13437TIP3    H261727   3.253   0.591   4.896 -0.2847  0.4548  0.5729
13438TIP3   OH261728   6.580   0.136  14.850 -0.0381 -0.1012 -0.0251
13438TIP3    H161729   6.668   0.152  14.817  0.5675 -0.2078  1.5070
13438TIP3    H261730   6.587   0.055  14.901 -0.5028  1.0374  1.9302
13439TIP3   OH261731   5.507   0.185  14.237  0.1759 -0.5049  0.1568
13439TIP3    H161732   5.517   0.106  14.184 -1.4650  0.7726 -2.1336
13439TIP3    H261733   5.596   0.211  14.257  0.8057 -1.6244 -1.0749
13440TIP3   OH261734   3.615   2.846  12.814  0.0270 -0.0644 -0.0085
13440TIP3    H161735   3.572   2.865  12.898  0.0372 -0.5924  0.1180
13440TIP3    H261736   3.657   2.761  12.828  0.1311 -0.0935 -0.5097
13441TIP3   OH261737   4.181   3.482   1.393  0.2437  0.4827  0.4954
13441TIP3    H161738   4.191   3.577   1.401  0.5008  0.6746 -1.8314
13441TIP3    H261739   4.086   3.468   1.387  0.3048  0.8811 -1.9721
13442TIP3   OH261740   0.812   0.682   4.487  0.4678  0.2698 -0.0724
13442TIP3    H161741   0.762   0.616   4.439 -1.3651  0.6051  1.3176
13442TIP3    H261742   0.746   0.730   4.538  2.1310  1.1037  1.3665
13443TIP3   OH261743   3.177   0.454  15.908  0.3467  0.0142  0.3555
13443TIP3    H161744   3.265   0.418  15.899  0.0236 -0.5213 -0.7796
13443TIP3    H261745   3.119   0.383  15.878 -0.5112  0.1348  1.6517
13444TIP3   OH261746   2.406   6.058   2.966 -0.2960  0.3113  0.1834
13444TIP3    H161747   2.388   6.032   3.056  0.2310  1.1050  0.5216
13444TIP3    H261748   2.321   6.089   2.933 -0.3744  0.5239  0.5816
13445TIP3   OH261749   3.813   2.216   5.025 -0.4244  0.3121  0.6425
13445TIP3    H161750   3.804   2.261   4.941  0.3647 -0.9925 -0.1488
13445TIP3    H261751   3.730   2.233   5.070 -1.2739  0.1567 -0.8122
13446TIP3   OH261752   2.267   3.142   3.511 -0.1776 -0.0509 -0.0336
13446TIP3    H161753   2.239   3.092   3.588 -1.0437  0.0154 -0.2951
13446TIP3    H261754   2.304   3.077   3.452  0.0907 -0.1648  0.2586
13447TIP3   OH261755   2.160   4.464  11.963 -0.0665  0.0014 -0.2313
13447TIP3    H161756   2.067   4.475  11.944 -0.6132 -2.7227  0.6709
13447TIP3    H261757   2.169   4.492  12.054 -0.3238 -1.2357  0.1835
13448TIP3   OH261758   1.140   5.697   3.158  0.0026 -0.7302  0.1374
13448TIP3    H161759   1.170   5.714   3.069  0.6777 -0.3210  0.4425
13448TIP3    H261760   1.058   5.746   3.166  0.2581 -0.2747 -0.0591
13449TIP3   OH261761   2.102   2.528   3.380  0.1155  0.4413 -0.9318
13449TIP3    H161762   2.188   2.488   3.365  1.2879  2.9557 -1.2049
13449TIP3    H261763   2.121   2.606   3.433 -2.0704  0.7526 -0.5535
13450TIP3   OH261764   1.989   1.630  13.516  0.1302  0.2949  0.0001
13450TIP3    H161765   2.052   1.688  13.473  2.0980 -1.2476  0.7220
13450TIP3    H261766   1.998   1.547  13.470 -1.2220 -0.0096  0.2710
13451TIP3   OH261767   6.366   3.136   5.263 -0.1762  0.1834 -0.1465
13451TIP3    H161768   6.355   3.206   5.328  0.6691 -2.0421  2.4856
13451TIP3    H261769   6.460   3.137   5.243 -0.5175  1.2135 -1.8057
13452TIP3   OH261770   5.088   6.136   2.426  0.1823 -0.0709 -0.2178
13452TIP3    H161771   5.176   6.131   2.390  0.2182  0.2439 -0.1706
13452TIP3    H261772   5.097   6.189   2.505  0.4760 -2.3356  1.3450
13453TIP3   OH261773   1.097   2.588   3.669 -0.0862  0.3479 -0.2029
13453TIP3    H161774   1.167   2.634   3.714 -0.0350  0.5970 -0.5367
13453TIP3    H261775   1.089   2.632   3.584  0.6187 -0.8540 -0.9155
13454TIP3   OH261776   2.261   3.981  12.704 -0.2153 -0.0204  0.3127
13454TIP3    H161777   2.197   3.967  12.634 -0.7281 -1.7869  1.1174
13454TIP3    H261778   2.224   3.936  12.779  2.3451 -1.6874  0.6111
13455TIP3   OH261779   5.201   5.312  14.414  0.7384 -0.1384 -1.1556
13455TIP3    H161780   5.202   5.252  14.340 -1.1190 -1.3083 -0.2739
13455TIP3    H261781   5.114   5.302  14.452  2.1744 -0.8006  2.1633
13456TIP3   OH261782   4.280   1.749   4.993  0.1784 -0.4414 -0.4864
13456TIP3    H161783   4.323   1.753   5.079  0.4661  2.9106 -0.7238
13456TIP3    H261784   4.353   1.746   4.931  0.0684  1.8888 -0.7605
13457TIP3   OH261785   4.222   0.835  14.586  0.2915  0.0778  0.2615
13457TIP3    H161786   4.231   0.793  14.500  0.0604 -0.2737  0.4093
13457TIP3    H261787   4.184   0.921  14.566  1.1549  0.3928 -0.0810
13458TIP3   OH261788   5.653   6.244   0.247  0.8687  0.0921  0.0310
13458TIP3    H161789   5.592   6.260   0.319 -2.6922 -0.7343 -2.6428
13458TIP3    H261790   5.652   6.150   0.235  3.2274  0.0105  0.3592
13459TIP3   OH261791   4.372   5.161   0.718 -0.0065  0.1637  0.2511
13459TIP3    H161792   4.339   5.089   0.663 -2.1712 -0.0422  1.7216
13459TIP3    H261793   4.374   5.123   0.806 -0.4968  1.6796  0.9276
13460TIP3   OH261794   6.504   3.507  14.196 -0.4206 -0.1196  0.0007
13460TIP3    H161795   6.457   3.568  14.140  0.1678 -0.2526 -0.6435
13460TIP3    H261796   6.507   3.425  14.146  0.7094 -0.0378 -0.0759
13461TIP3   OH261797   1.312   5.784   0.351  0.6908 -0.1770 -0.2810
13461TIP3    H161798   1.275   5.762   0.437  2.0244 -3.3386 -0.4367
13461TIP3    H261799   1.238   5.780   0.291  0.0841  0.2413  0.4203
13462TIP3   OH261800   1.738   1.425  15.655 -0.2433  0.4282  0.3360
13462TIP3    H161801   1.815   1.459  15.611  0.0896 -0.4381  0.2442
13462TIP3    H261802   1.770   1.398  15.742 -0.2363 -0.8379 -0.0558
13463TIP3   OH261803   0.469   2.346  15.395 -0.8269  0.2057  0.7055
13463TIP3    H161804   0.462   2.288  15.471  2.9415 -0.4971  0.5742
13463TIP3    H261805   0.529   2.302  15.336 -1.6018  2.0417 -1.5317
13464TIP3   OH261806   6.633   0.073  11.698  0.5351 -0.6707  0.1591
13464TIP3    H161807   6.626   0.072  11.794 -3.4176  0.4652 -0.0414
13464TIP3    H261808   6.561   0.017  11.668 -2.6680  4.3671 -2.2130
13465TIP3   OH261809   3.069   5.232  13.006  0.2453 -0.4849 -0.2147
13465TIP3    H161810   3.060   5.317  12.963  0.9920  0.1508  0.8511
13465TIP3    H261811   2.987   5.220  13.055  0.0538 -0.4773 -0.5345
13466TIP3   OH261812   0.293   4.130   3.606 -0.2505 -0.0454  0.3020
13466TIP3    H161813   0.290   4.225   3.623 -0.5596 -0.0319  0.1758
13466TIP3    H261814   0.372   4.117   3.554 -0.7766  0.2884 -0.5854
13467TIP3   OH261815   3.503   3.275   2.394  0.4305  0.6732  0.3419
13467TIP3    H161816   3.426   3.255   2.447  0.6506  0.8437  0.7222
13467TIP3    H261817   3.495   3.216   2.319  1.0259 -0.7900  1.4063
13468TIP3   OH261818   1.364   4.996  13.059 -0.6093  0.1819 -0.5091
13468TIP3    H161819   1.294   4.950  13.104  0.8196 -0.1460  1.4640
13468TIP3    H261820   1.417   4.926  13.020  0.0013  0.2895  0.1192
13469TIP3   OH261821   4.807   4.659  11.074 -0.0435  0.2664  0.0677
13469TIP3    H161822   4.875   4.623  11.017 -1.8156 -1.6942 -0.8380
13469TIP3    H261823   4.735   4.682  11.015 -0.5211  1.5321  1.1161
13470TIP3   OH261824   6.656   4.913  10.668 -0.3217 -0.0017  0.3053
13470TIP3    H161825   6.658   4.877  10.579 -2.3610  0.8355 -0.1123
13470TIP3    H261826   6.652   5.008  10.654  1.8849  0.2697  1.3421
13471TIP3   OH261827   4.283   3.903   4.526  0.7294 -0.8430  0.0407
13471TIP3    H161828   4.210   3.964   4.529  1.6601  0.3292 -0.5494
13471TIP3    H261829   4.253   3.832   4.469 -0.7840 -1.5485  1.6595
13472TIP3   OH261830   4.773   2.958   2.898  0.2197 -0.0748  0.4799
13472TIP3    H161831   4.681   2.931   2.901 -0.3212  1.5428 -0.8011
13472TIP3    H261832   4.812   2.904   2.830 -0.5763  1.5065 -1.2606
13473TIP3   OH261833   3.258   2.443   0.513  0.0923  0.1425 -0.1266
13473TIP3    H161834   3.265   2.411   0.603  0.9283  0.6903  0.0029
13473TIP3    H261835   3.177   2.403   0.480  0.0492 -0.4623  0.6989
13474TIP3   OH261836   5.415   5.814   0.723  0.7060  1.0528  0.1497
13474TIP3    H161837   5.453   5.815   0.636  0.2869  1.0822 -0.0349
13474TIP3    H261838   5.322   5.832   0.709  0.2372 -1.1003  0.4097
13475TIP3   OH261839   4.353   2.714  10.715 -0.6308 -0.7406 -0.1816
13475TIP3    H161840   4.429   2.730  10.660 -1.7893  0.6240 -1.4376
13475TIP3    H261841   4.352   2.786  10.777 -0.2951 -1.3446  0.5278
13476TIP3   OH261842   2.390   5.547  11.654  0.4958 -0.1890 -0.6019
13476TIP3    H161843   2.298   5.571  11.670 -0.1093 -0.3229 -3.5988
13476TIP3    H261844   2.386   5.453  11.633  1.2698 -0.1075 -1.1017
13477TIP3   OH261845   6.456   2.756  14.432  0.2478 -0.2470  0.2102
13477TIP3    H161846   6.413   2.830  14.476 -1.1838  0.7290 -2.7000
13477TIP3    H261847   6.403   2.680  14.456  0.2335  0.0441  1.1509
13478TIP3   OH261848   2.655   0.085  17.235 -0.1431  0.0448 -0.2558
13478TIP3    H161849   2.692   0.156  17.181 -1.3177  1.9850  1.4236
13478TIP3    H261850   2.583   0.126  17.282 -0.8297 -2.2896  0.7975
13479TIP3   OH261851   2.911   1.344  16.927  0.3842  0.1672  0.3715
13479TIP3    H161852   2.870   1.308  16.849 -0.3635 -1.3331  1.4482
13479TIP3    H261853   2.929   1.269  16.983  1.4135  1.1639  1.4322
13480TIP3   OH261854   2.898   4.961  13.823  0.3715 -0.8363 -0.2422
13480TIP3    H161855   2.969   4.900  13.845  0.6255  0.0531  1.5690
13480TIP3    H261856   2.818   4.915  13.847  0.4095 -1.3418 -1.0656
13481TIP3   OH261857   2.715   0.751   3.122 -0.0669  0.1171  0.5126
13481TIP3    H161858   2.667   0.788   3.047 -0.0100 -1.1804 -0.1710
13481TIP3    H261859   2.682   0.662   3.130  1.9387 -0.6446  0.3152
13482TIP3   OH261860   3.014   6.019   5.125  0.4048  0.0297  0.5146
13482TIP3    H161861   3.084   5.969   5.084 -0.7691 -1.7036  0.5294
13482TIP3    H261862   3.043   6.034   5.214  0.9771 -0.2109  0.3671
13483TIP3   OH261863   5.811   3.135  10.760  0.0494  0.3280 -0.0213
13483TIP3    H161864   5.850   3.174  10.681 -1.2153 -0.9936 -1.3255
13483TIP3    H261865   5.862   3.055  10.775 -1.8621 -1.1996 -1.5031
13484TIP3   OH261866   3.150   6.739  16.700 -0.1040 -0.0647 -0.2102
13484TIP3    H161867   3.092   6.781  16.636 -1.2936 -1.6453 -0.2207
13484TIP3    H261868   3.225   6.797  16.707 -0.8316  1.0753 -1.6382
13485TIP3   OH261869   1.478   3.031  16.495 -0.1610  0.3083  0.3942
13485TIP3    H161870   1.523   3.115  16.505  2.5857 -1.1694  1.2147
13485TIP3    H261871   1.536   2.969  16.540 -1.2522 -2.2771 -1.6927
13486TIP3   OH261872   0.732   1.005   2.290 -0.0413  0.0632  0.6183
13486TIP3    H161873   0.826   0.994   2.281 -0.0478  0.8331 -0.4414
13486TIP3    H261874   0.720   1.047   2.375  0.6001  0.4697  0.5034
13487TIP3   OH261875   2.964   4.263  12.308 -0.0209 -0.1139 -0.4506
13487TIP3    H161876   2.869   4.254  12.308  0.0143 -0.5272 -1.0566
13487TIP3    H261877   2.980   4.356  12.326 -0.5518  0.0902 -1.0291
13488TIP3   OH261878   5.293   3.463  10.703 -0.0460 -0.4185 -0.1063
13488TIP3    H161879   5.300   3.480  10.797 -0.8743 -1.8785  0.2260
13488TIP3    H261880   5.375   3.418  10.681  0.7658  1.1527 -0.3734
13489TIP3   OH261881   2.060   6.656  13.433  0.2186 -0.2622 -0.6525
13489TIP3    H161882   2.026   6.743  13.451 -0.5523 -0.9675  1.3187
13489TIP3    H261883   2.134   6.646  13.493 -0.2245 -1.2854 -0.2621
13490TIP3   OH261884   0.894   5.543   1.349  0.3461  0.2598 -0.2979
13490TIP3    H161885   0.971   5.592   1.376 -0.9197  2.0252  0.2449
13490TIP3    H261886   0.888   5.555   1.255  1.0313 -0.3382 -0.4185
13491TIP3   OH261887   4.147   1.155   3.301  0.0447  0.1528 -0.3011
13491TIP3    H161888   4.095   1.084   3.339 -0.5393  0.7231 -0.0286
13491TIP3    H261889   4.172   1.209   3.376  0.4813  0.2409 -0.5088
13492TIP3   OH261890   3.894   5.370  16.269 -0.0370 -0.7091  0.7271
13492TIP3    H161891   3.914   5.379  16.176 -0.0574 -0.4482  0.7477
13492TIP3    H261892   3.830   5.438  16.287  0.2173 -0.5390  1.0072
13493TIP3   OH261893   2.727   3.951   3.806  0.6645  0.5106 -0.1844
13493TIP3    H161894   2.762   4.039   3.816  0.6414  0.7432 -2.0745
13493TIP3    H261895   2.641   3.954   3.848  0.9156  1.2208  0.2720
13494TIP3   OH261896   4.235   3.954  16.769 -0.0797  0.0167  0.2376
13494TIP3    H161897   4.163   4.017  16.780  0.2688  0.6864 -1.1676
13494TIP3    H261898   4.194   3.868  16.780 -1.0444  0.4096 -0.2234
13495TIP3   OH261899   1.379   3.306   1.286 -0.1894 -0.1282 -0.5119
13495TIP3    H161900   1.340   3.275   1.368  2.9652 -1.2341  0.6683
13495TIP3    H261901   1.340   3.392   1.272 -1.7689 -0.4761  1.4405
13496TIP3   OH261902   3.057   2.532   1.017  0.0928  0.0249  0.1272
13496TIP3    H161903   2.968   2.567   1.026  0.0195 -0.3600  0.9334
13496TIP3    H261904   3.052   2.445   1.056  0.7231 -0.1656 -0.2182
13497TIP3   OH261905   6.359   4.921  14.782 -0.1688  0.0510 -0.1831
13497TIP3    H161906   6.368   4.956  14.693 -1.0932  0.1170 -0.2597
13497TIP3    H261907   6.425   4.967  14.833  0.0055  0.4024 -0.7218
13498TIP3   OH261908   0.639   6.633   3.998  0.4074  0.2304 -0.4227
13498TIP3    H161909   0.635   6.719   4.041  1.4475 -0.1895  0.5579
13498TIP3    H261910   0.732   6.612   3.995  0.5975  1.2142 -4.9311
13499TIP3   OH261911   0.527   5.077   4.923  0.8035 -0.3810  0.1650
13499TIP3    H161912   0.558   5.145   4.863  3.0249 -0.1234  1.5401
13499TIP3    H261913   0.435   5.099   4.939  1.4175  2.2212  0.4098
13500TIP3   OH261914   5.579   0.907   3.421 -0.3138  0.4408  0.2223
13500TIP3    H161915   5.605   0.992   3.459 -1.0316  1.1021 -0.7408
13500TIP3    H261916   5.537   0.930   3.339  0.9083 -0.9738 -0.8233
13501TIP3   OH261917   2.604   6.262  15.334  0.2653 -0.5046 -0.1175
13501TIP3    H161918   2.512   6.240  15.322  0.4797 -1.1758 -0.5895
13501TIP3    H261919   2.644   6.181  15.365  0.8550 -0.4708 -0.7675
13502TIP3   OH261920   6.636   0.231  12.725 -0.6619 -0.1766  0.0295
13502TIP3    H161921   6.585   0.163  12.681 -0.3867  1.3690 -2.7905
13502TIP3    H261922   6.716   0.186  12.752 -1.7479 -1.6524  0.8811
13503TIP3   OH261923   5.366   4.698   2.267 -0.3292 -0.4136 -0.1484
13503TIP3    H161924   5.397   4.786   2.249  0.5636 -0.4750  0.9665
13503TIP3    H261925   5.275   4.709   2.295 -0.3876  0.0978 -0.5410
13504TIP3   OH261926   0.935   2.801   1.642  0.6093 -0.8240  0.1095
13504TIP3    H161927   0.893   2.858   1.707  0.7633 -0.3139 -0.2344
13504TIP3    H261928   0.871   2.796   1.571  0.6847 -0.9104  0.0480
13505TIP3   OH261929   5.012   1.540   4.303  0.0029  0.0885  0.5044
13505TIP3    H161930   5.090   1.532   4.358  0.8826 -1.3517 -0.9031
13505TIP3    H261931   5.017   1.629   4.268  1.2324 -0.1261  0.1121
13506TIP3   OH261932   2.654   4.224   1.734  0.1031  0.3233 -0.2569
13506TIP3    H161933   2.747   4.229   1.756 -0.1699  0.1666  0.9263
13506TIP3    H261934   2.624   4.142   1.773 -0.6682  0.6668 -0.1165
13507TIP3   OH261935   3.336   0.480   4.121 -0.0444  0.2571 -0.0643
13507TIP3    H161936   3.392   0.548   4.159  0.9007 -0.0948 -0.8155
13507TIP3    H261937   3.249   0.498   4.156  0.0353  2.3513 -0.8935
13508TIP3   OH261938   2.759   2.265   1.596 -0.5202 -0.7407 -0.6486
13508TIP3    H161939   2.824   2.312   1.648 -1.5148  0.0919 -0.1356
13508TIP3    H261940   2.782   2.172   1.609 -1.2247 -0.6048  1.9755
13509TIP3   OH261941   4.311   4.224   3.822  0.0108  0.0157  0.6502
13509TIP3    H161942   4.232   4.178   3.850  0.6953 -1.6833 -0.1366
13509TIP3    H261943   4.321   4.201   3.729  0.1379  2.1154  0.1075
13510TIP3   OH261944   2.022   3.199   2.585 -0.5746 -0.4814 -0.4622
13510TIP3    H161945   2.109   3.209   2.546  0.4616 -0.2900  1.7932
13510TIP3    H261946   2.027   3.249   2.667 -2.4400 -1.4605  0.2722
13511TIP3   OH261947   5.051   5.839  13.436 -0.8668 -0.9753  0.5402
13511TIP3    H161948   5.115   5.902  13.404 -1.2897 -0.1780  1.2300
13511TIP3    H261949   5.091   5.801  13.514 -0.7187 -1.3669  0.2698
13512TIP3   OH261950   0.906   3.712  15.206  0.8518  0.4961  0.4903
13512TIP3    H161951   0.978   3.730  15.266  1.0891 -0.3587  0.4669
13512TIP3    H261952   0.840   3.669  15.259  1.3073 -0.8055  0.0111
13513TIP3   OH261953   5.789   2.117   0.977 -0.4953  0.1586  0.4450
13513TIP3    H161954   5.712   2.061   0.982 -1.3250  1.2454 -0.0888
13513TIP3    H261955   5.863   2.057   0.993 -1.2911 -1.2719 -1.0522
13514TIP3   OH261956   1.722   0.833  11.536  0.2163 -0.2549  0.6577
13514TIP3    H161957   1.790   0.799  11.478 -0.5091 -1.0350  0.2503
13514TIP3    H261958   1.731   0.928  11.530  0.9316 -0.3446  0.2067
13515TIP3   OH261959   3.785   5.251  15.110  0.5623 -0.1514  0.6883
13515TIP3    H161960   3.821   5.169  15.076 -0.5072 -0.5657  0.5498
13515TIP3    H261961   3.762   5.301  15.032  0.7219  0.0628  0.7777
13516TIP3   OH261962   1.040   1.215  11.401  0.3051  0.2308 -0.0374
13516TIP3    H161963   1.116   1.253  11.357  1.5451 -0.3795  1.4983
13516TIP3    H261964   0.988   1.291  11.429  0.7544  0.6783 -0.4013
13517TIP3   OH261965   4.557   1.855   2.862 -0.0195  0.0077 -0.0657
13517TIP3    H161966   4.625   1.787   2.868 -1.7051 -1.6616  0.9813
13517TIP3    H261967   4.574   1.900   2.780  0.6906 -2.2116 -1.1642
13518TIP3   OH261968   2.061   0.008   1.773  0.3263  0.2294 -0.3185
13518TIP3    H161969   2.051   0.101   1.752 -4.0967  0.0661  0.5720
13518TIP3    H261970   2.090  -0.032   1.691 -1.5698  1.8428 -1.8397
13519TIP3   OH261971   6.273   5.651   2.641  0.1690  0.0432 -0.0602
13519TIP3    H161972   6.363   5.642   2.609 -0.4891 -1.7959 -1.5700
13519TIP3    H261973   6.253   5.744   2.633  1.3358  0.1926 -1.4811
13520TIP3   OH261974   4.337   0.181   3.885 -0.0151  0.1613 -0.2954
13520TIP3    H161975   4.342   0.230   3.802 -1.3288 -2.8081 -2.2121
13520TIP3    H261976   4.281   0.106   3.865 -0.1161 -0.7983  3.2491
13521TIP3   OH261977   6.287   0.064  13.342 -0.3972  0.0742  0.2658
13521TIP3    H161978   6.275   0.087  13.250  0.4620  0.6273  0.2865
13521TIP3    H261979   6.353  -0.005  13.341 -0.6174 -0.1380  0.4447
13522TIP3   OH261980   3.534   4.998   1.555 -0.0560 -0.2862 -0.1200
13522TIP3    H161981   3.575   5.053   1.623  0.8575 -0.6711 -0.3607
13522TIP3    H261982   3.495   5.061   1.495 -0.4141  0.0716  0.4744
13523TIP3   OH261983   5.639   6.647  13.246 -0.1528 -0.1791 -0.7130
13523TIP3    H161984   5.580   6.643  13.321  1.6223  1.0840  0.7822
13523TIP3    H261985   5.589   6.608  13.174 -3.3848  2.2731  0.1100
13524TIP3   OH261986   1.163   4.928   4.606  0.1721  0.6927 -0.2990
13524TIP3    H161987   1.203   4.939   4.692  0.0890  0.0415 -0.1694
13524TIP3    H261988   1.237   4.911   4.548  0.0660 -1.2279  0.0644
13525TIP3   OH261989   4.291   6.235  13.656 -0.3286  0.0996  0.2547
13525TIP3    H161990   4.325   6.280  13.579  0.3089 -0.4943  0.1803
13525TIP3    H261991   4.315   6.292  13.729  0.0844  0.1047  0.1172
13526TIP3   OH261992   0.950   2.132  11.697 -0.0435  0.0053 -0.8356
13526TIP3    H161993   1.032   2.148  11.650  0.0484 -1.4325 -1.1900
13526TIP3    H261994   0.917   2.050  11.660 -0.1802 -0.9446  1.3212
13527TIP3   OH261995   0.582   6.484   0.904 -0.7223 -0.3422 -0.2657
13527TIP3    H161996   0.603   6.415   0.842  0.4442  0.6821 -1.0586
13527TIP3    H261997   0.611   6.565   0.860 -2.4383  0.6876  0.4481
13528TIP3   OH261998   2.148   6.135   3.152 -0.2577  0.5613  0.0966
13528TIP3    H161999   2.114   6.095   3.072  0.4224  0.9950 -0.4146
13528TIP3    H262000   2.097   6.216   3.163  0.6250  1.2359 -0.6950
13529TIP3   OH262001   3.945   2.126  15.463 -0.0550 -0.2982  0.1048
13529TIP3    H162002   3.994   2.181  15.524  0.6741 -0.9300  0.0995
13529TIP3    H262003   4.001   2.049  15.450 -0.9211 -0.8985 -0.1201
13530TIP3   OH262004   4.185   2.542   5.546 -0.1333  0.4043  0.3160
13530TIP3    H162005   4.249   2.578   5.608  0.8447  0.8361 -0.9183
13530TIP3    H262006   4.101   2.546   5.592  0.1552  3.1110  0.6690
13531TIP3   OH262007   4.429   4.701  11.160  0.4734  0.2774  0.3276
13531TIP3    H162008   4.464   4.620  11.195 -0.9394 -0.4870  0.0017
13531TIP3    H262009   4.391   4.677  11.075 -0.9078  1.0583  0.7019
13532TIP3   OH262010   4.123   3.815   0.373  0.0576 -0.1675 -0.7757
13532TIP3    H162011   4.031   3.838   0.374  0.0720 -0.1253 -0.5114
13532TIP3    H262012   4.165   3.882   0.428  0.1229 -0.7171 -0.1570
13533TIP3   OH262013   6.337   6.455   4.947  0.0779  0.0597  0.4710
13533TIP3    H162014   6.286   6.458   4.866  0.2566 -0.2236  0.3483
13533TIP3    H262015   6.292   6.391   5.002  1.1052 -1.2383 -0.1853
13534TIP3   OH262016   2.266   2.075   3.225 -0.3626  0.0895 -0.6558
13534TIP3    H162017   2.183   2.119   3.209  0.3803  2.3543  1.4116
13534TIP3    H262018   2.280   2.083   3.320  0.2190 -3.9299 -0.2868
13535TIP3   OH262019   4.376   2.768   5.564 -0.9696  0.2702  0.7326
13535TIP3    H162020   4.294   2.816   5.577 -2.5053 -1.7565 -1.1033
13535TIP3    H262021   4.440   2.816   5.615 -2.9597  2.8790  0.8797
13536TIP3   OH262022   1.683   6.027   5.267 -0.4144 -0.2356  0.0063
13536TIP3    H162023   1.667   6.119   5.288 -2.3219 -0.1557 -1.6755
13536TIP3    H262024   1.758   6.028   5.207 -0.9570  0.2991 -0.6675
13537TIP3   OH262025   1.590   3.320  16.528 -0.4167 -0.3670  0.0997
13537TIP3    H162026   1.580   3.332  16.433 -0.0354  2.3913  0.3809
13537TIP3    H262027   1.682   3.342  16.545 -0.8140  0.3536  1.2971
13538TIP3   OH262028   3.022   4.221   1.158 -0.1518 -0.2769 -0.2922
13538TIP3    H162029   2.929   4.225   1.135  0.1160 -1.8207 -1.7066
13538TIP3    H262030   3.067   4.260   1.083  0.4295 -0.8256 -0.2272
13539TIP3   OH262031   2.930   4.582   2.333  0.0070 -0.1318  0.0023
13539TIP3    H162032   2.885   4.502   2.360  0.7281 -0.2998  0.7361
13539TIP3    H262033   2.958   4.565   2.243 -1.5049  0.0259 -0.5173
13540TIP3   OH262034   3.077   3.818   5.245  0.3650  0.0665 -0.9375
13540TIP3    H162035   3.004   3.810   5.183 -1.5988 -0.7489  1.3798
13540TIP3    H262036   3.036   3.844   5.327  2.7836  0.1825  0.2847
13541TIP3   OH262037   1.211   1.271   0.966 -0.1198 -0.5903  0.7942
13541TIP3    H162038   1.194   1.322   0.887  0.4349 -2.1577 -0.3614
13541TIP3    H262039   1.129   1.274   1.015 -0.4072  0.5626  0.2562
13542TIP3   OH262040   4.822   6.338  15.792 -0.7338 -0.4998 -0.1595
13542TIP3    H162041   4.823   6.429  15.763 -0.2408 -0.6680 -0.6777
13542TIP3    H262042   4.784   6.341  15.880  1.4402  0.5049  0.7762
13543TIP3   OH262043   1.630   6.424  14.828 -0.7323 -0.0597 -0.0844
13543TIP3    H162044   1.575   6.353  14.795  2.0028 -0.2568 -4.6020
13543TIP3    H262045   1.703   6.380  14.872 -0.4389  0.0068 -0.5015
13544TIP3   OH262046   2.744   1.881   2.512  0.3434  0.2027  0.2794
13544TIP3    H162047   2.683   1.927   2.455 -0.5808 -0.0916  1.0310
13544TIP3    H262048   2.714   1.790   2.510  1.0653 -0.0391  0.2524
13545TIP3   OH262049   6.005   3.951   0.131 -0.5170 -0.1984 -0.3691
13545TIP3    H162050   6.013   3.905   0.047 -1.1631  1.1706 -1.1981
13545TIP3    H262051   5.917   3.929   0.162  0.6349 -2.8113  1.2588
13546TIP3   OH262052   2.018   6.083   2.875  0.1867  0.6564 -0.2665
13546TIP3    H162053   1.938   6.111   2.831  0.3616 -2.4063 -2.6867
13546TIP3    H262054   2.089   6.118   2.821  0.4504  0.2711 -0.1711
13547TIP3   OH262055   3.505   0.412  11.429 -0.7820  0.4360 -0.0617
13547TIP3    H162056   3.575   0.472  11.404 -0.0820 -0.1931  0.3442
13547TIP3    H262057   3.546   0.325  11.427 -1.4836  0.0865  0.4136
13548TIP3   OH262058   0.941   1.409  12.668 -0.3874 -0.1519  0.0192
13548TIP3    H162059   1.005   1.450  12.610 -0.7916 -1.2290 -1.2294
13548TIP3    H262060   0.969   1.317  12.673 -0.7474 -0.2107  0.9845
13549TIP3   OH262061   0.525   1.142   1.461 -0.4719  0.3410  0.4322
13549TIP3    H162062   0.540   1.219   1.517  0.5382  0.4039  0.0765
13549TIP3    H262063   0.581   1.156   1.385 -0.7436 -0.4588  0.0783
13550TIP3   OH262064   4.215   6.452  13.990  0.1318 -0.4468 -0.3366
13550TIP3    H162065   4.208   6.540  13.952 -1.6351 -1.2258 -1.9005
13550TIP3    H262066   4.130   6.438  14.032  1.1703 -0.6027  1.7576
13551TIP3   OH262067   4.758   0.463  16.821 -0.4903 -0.3652  0.2562
13551TIP3    H162068   4.781   0.518  16.896 -0.4757 -0.5981  0.4233
13551TIP3    H262069   4.717   0.386  16.860 -0.7606 -0.3491  0.0069
13552TIP3   OH262070   3.464   6.528   5.498  0.3231  0.3462  0.1104
13552TIP3    H162071   3.426   6.500   5.581 -2.5304 -1.0292 -1.5912
13552TIP3    H262072   3.536   6.467   5.483  0.5395  0.2887  1.2779
13553TIP3   OH262073   5.560   4.966  12.999 -0.7865  0.1867 -0.9304
13553TIP3    H162074   5.595   5.000  12.917  0.5494  1.3631  0.1082
13553TIP3    H262075   5.514   5.040  13.038  1.1335  0.5212  0.7890
13554TIP3   OH262076   6.664   1.252   3.475  0.1767  0.0867 -0.1692
13554TIP3    H162077   6.676   1.343   3.448 -3.1009  0.5394 -0.3085
13554TIP3    H262078   6.625   1.209   3.399  1.3955 -1.3636  0.0101
13555TIP3   OH262079   4.809   2.769   5.576  0.1120  0.4795 -0.3406
13555TIP3    H162080   4.861   2.694   5.544 -0.3519  0.3053 -0.6848
13555TIP3    H262081   4.758   2.734   5.649  1.4863  0.9798  0.8859
13556TIP3   OH262082   4.168   1.650  17.029 -0.4075 -0.0239  0.2028
13556TIP3    H162083   4.187   1.640  16.936  0.8606 -1.8736  0.6332
13556TIP3    H262084   4.249   1.684  17.067 -0.3524 -0.8760  0.8748
13557TIP3   OH262085   3.802   5.643  11.148  0.0912 -0.2122 -0.0785
13557TIP3    H162086   3.898   5.649  11.146  0.0531  1.5226  1.5632
13557TIP3    H262087   3.774   5.685  11.067  0.7644 -3.2648 -1.9824
13558TIP3   OH262088   4.009   0.334   0.247 -0.2898 -0.0095  0.1062
13558TIP3    H162089   4.100   0.329   0.217  0.1049  1.8547  0.9460
13558TIP3    H262090   3.958   0.317   0.168  0.7675 -2.5150 -0.0861
13559TIP3   OH262091   4.351   0.086  14.737  0.0075 -0.1240  0.2510
13559TIP3    H162092   4.409   0.050  14.804 -0.3675 -1.5829 -0.1860
13559TIP3    H262093   4.269   0.037  14.748 -0.3662  0.2847 -0.6486
13560TIP3   OH262094   3.363   2.765  12.722 -0.3522 -0.1824 -0.1716
13560TIP3    H162095   3.447   2.737  12.757 -1.4121 -1.6167  1.2692
13560TIP3    H262096   3.355   2.856  12.749  0.4238 -0.2484  0.2908
13561TIP3   OH262097   3.271   1.848  16.126  0.2609 -0.2243 -0.8560
13561TIP3    H162098   3.349   1.903  16.133 -1.3800  2.3962 -2.2182
13561TIP3    H262099   3.247   1.829  16.217  1.1542  0.9362 -0.3659
13562TIP3   OH262100   5.867   5.649  14.644 -0.6876 -0.7808  0.9145
13562TIP3    H162101   5.902   5.573  14.690 -1.0843 -0.6947  1.3641
13562TIP3    H262102   5.945   5.698  14.617 -0.4355 -0.2282  2.5347
13563TIP3   OH262103   2.910   6.586   2.730 -0.5122  0.0001  0.0339
13563TIP3    H162104   2.877   6.645   2.663  0.1840  0.4859  0.1100
13563TIP3    H262105   2.920   6.641   2.808 -1.9188 -0.6920  0.7248
13564TIP3   OH262106   0.295   1.949   2.200  0.4908  0.2774 -0.2474
13564TIP3    H162107   0.334   2.002   2.270  2.4893 -2.1867  0.5916
13564TIP3    H262108   0.363   1.946   2.132 -0.5165  0.7075 -1.2743
13565TIP3   OH262109   2.590   3.873   4.382  0.2968  0.2315  0.0521
13565TIP3    H162110   2.565   3.956   4.342 -0.3475  0.0142 -0.0029
13565TIP3    H262111   2.530   3.809   4.344  1.6020 -0.4727 -0.8459
13566TIP3   OH262112   1.137   6.232   1.482 -0.0539 -0.1926 -0.1122
13566TIP3    H162113   1.171   6.316   1.451  1.7063 -0.5149  0.8789
13566TIP3    H262114   1.200   6.167   1.450 -0.0987 -0.8866  1.1518
13567TIP3   OH262115   0.111   1.710   5.563  0.3133 -0.3899  0.2427
13567TIP3    H162116   0.100   1.710   5.658  0.0837 -2.2302  0.2443
13567TIP3    H262117   0.152   1.794   5.543  0.8710 -0.2220  2.0253
13568TIP3   OH262118   6.478   4.195  16.830 -0.0955  0.3254  0.3208
13568TIP3    H162119   6.478   4.250  16.908  2.6881  1.7702 -0.6285
13568TIP3    H262120   6.570   4.173  16.816 -0.8040 -1.8827 -1.2184
13569TIP3   OH262121   1.608   2.837  10.511  0.2456 -0.0862 -0.0493
13569TIP3    H162122   1.642   2.765  10.564  1.7440  0.8495  0.2760
13569TIP3    H262123   1.653   2.915  10.543 -0.0961  0.7497 -1.5355
13570TIP3   OH262124   1.943   5.499  13.407  0.0498 -0.6745  0.1631
13570TIP3    H162125   1.869   5.543  13.447 -0.9079 -1.6397 -0.5240
13570TIP3    H262126   1.965   5.428  13.469  0.8376  0.0084  0.6887
13571TIP3   OH262127   1.595   6.047   0.031 -0.3561  0.2992  0.2048
13571TIP3    H162128   1.591   6.089   0.117  0.0081  0.6018  0.0734
13571TIP3    H262129   1.582   5.954   0.049  0.9824  0.2101  0.7159
13572TIP3   OH262130   5.747   1.127  14.373  0.1332  0.8585 -0.0264
13572TIP3    H162131   5.842   1.122  14.357  0.4545 -1.1182  2.2376
13572TIP3    H262132   5.717   1.197  14.315  2.4233 -0.8039 -3.4505
13573TIP3   OH262133   5.180   4.882  14.784 -0.2002 -0.2490 -0.7731
13573TIP3    H162134   5.225   4.898  14.701 -2.3945  2.7269 -1.4975
13573TIP3    H262135   5.198   4.791  14.804  4.3125  0.2560 -2.0688
13574TIP3   OH262136   1.437   5.424   4.262 -0.1163 -0.0047 -0.1303
13574TIP3    H162137   1.386   5.491   4.216  1.5490  0.4679 -1.3041
13574TIP3    H262138   1.379   5.348   4.265 -1.3562  0.9172 -0.3537
13575TIP3   OH262139   6.164   4.976  11.627 -0.5536 -0.5458 -0.0720
13575TIP3    H162140   6.197   4.887  11.640  1.3386  0.2806  1.0878
13575TIP3    H262141   6.156   4.985  11.532  0.6167 -1.4906 -0.2704
13576TIP3   OH262142   6.249   1.444   0.601 -0.2858  0.5461 -0.5472
13576TIP3    H162143   6.342   1.450   0.618 -0.2000 -0.3645 -0.6834
13576TIP3    H262144   6.238   1.484   0.514  0.5188 -2.5765 -2.1689
13577TIP3   OH262145   5.630   4.287  11.662  0.6339 -0.0123 -0.0612
13577TIP3    H162146   5.558   4.261  11.604 -0.3747 -1.0791  1.5919
13577TIP3    H262147   5.698   4.319  11.604 -0.8719  0.2412 -1.7363
13578TIP3   OH262148   4.082   6.085   0.021 -0.2550 -0.1966 -0.7184
13578TIP3    H162149   4.092   6.175   0.053  1.0095 -0.2808 -0.8284
13578TIP3    H262150   3.994   6.059   0.048  1.0816 -0.6270  3.5496
13579TIP3   OH262151   6.521   3.166  15.522 -0.5564  0.1781  0.1351
13579TIP3    H162152   6.552   3.085  15.481  0.6257  1.0485 -0.7156
13579TIP3    H262153   6.436   3.184  15.480  0.7330  1.1826 -2.1446
13580TIP3   OH262154   1.838   1.337   0.683 -0.2657 -0.1631  0.1949
13580TIP3    H162155   1.911   1.277   0.691  0.6182  1.1988  2.8240
13580TIP3    H262156   1.838   1.363   0.591  0.7926 -2.3132 -0.4348
13581TIP3   OH262157   5.195   2.992  16.106 -0.2674  0.0172  0.1496
13581TIP3    H162158   5.211   3.086  16.120  0.5176  0.0177 -0.6756
13581TIP3    H262159   5.171   2.985  16.014 -2.5031 -0.3336  0.7323
13582TIP3   OH262160   6.475   3.594  16.152 -0.5487  0.0201  0.2824
13582TIP3    H162161   6.461   3.640  16.235  0.3023  0.9517 -0.0841
13582TIP3    H262162   6.557   3.629  16.119 -0.6852 -0.6456 -0.7720
13583TIP3   OH262163   0.706   4.296   2.611  0.6338  0.3179 -0.0907
13583TIP3    H162164   0.780   4.356   2.623 -0.0503  0.9606  1.0129
13583TIP3    H262165   0.737   4.212   2.645  0.2049  1.0613  2.1752
13584TIP3   OH262166   6.138   0.535  15.566 -0.1790  0.0157  0.0800
13584TIP3    H162167   6.225   0.499  15.583 -0.1988 -0.1061 -0.0593
13584TIP3    H262168   6.093   0.466  15.516 -0.1938  0.2662 -0.2563
13585TIP3   OH262169   6.457   6.572   1.537 -0.6144  0.2332 -0.0382
13585TIP3    H162170   6.416   6.537   1.616 -0.7275 -0.5948 -0.4558
13585TIP3    H262171   6.551   6.566   1.554 -0.6459  0.5614  0.2481
13586TIP3   OH262172   2.591   1.293  14.533  0.0066  0.1925  0.1539
13586TIP3    H162173   2.634   1.209  14.551 -1.2276 -0.8401 -1.5507
13586TIP3    H262174   2.499   1.277  14.553 -0.1826  1.2578  0.1538
13587TIP3   OH262175   0.000   4.469   5.358  0.2874 -0.6653  0.3015
13587TIP3    H162176   0.076   4.461   5.416  1.0113  1.9681 -0.1852
13587TIP3    H262177  -0.064   4.407   5.393  2.2590 -2.1671  1.3682
13588TIP3   OH262178   2.796   5.817  15.279  0.0770 -0.3102 -0.3257
13588TIP3    H162179   2.777   5.748  15.215 -2.8028 -0.4990  0.6678
13588TIP3    H262180   2.758   5.785  15.361  1.8936  0.8689  1.0275
13589TIP3   OH262181   3.166   6.712   4.818  0.6227  0.0684 -0.5535
13589TIP3    H162182   3.228   6.664   4.873 -2.1314 -0.8046  1.9184
13589TIP3    H262183   3.166   6.801   4.854 -1.2413 -0.5233  1.0289
13590TIP3   OH262184   4.610   2.484  13.731  0.9078 -0.2448 -0.4462
13590TIP3    H162185   4.569   2.538  13.663  0.9470 -0.8188 -0.9300
13590TIP3    H262186   4.536   2.441  13.775  0.8265  0.7393  0.4111
13591TIP3   OH262187   2.369   2.703   0.350 -0.0582 -0.4439 -0.0170
13591TIP3    H162188   2.362   2.630   0.287 -3.4377 -0.8054  0.7010
13591TIP3    H262189   2.299   2.763   0.325  2.7726  2.7493 -0.6963
13592TIP3   OH262190   5.868   1.937   1.675  0.0710 -0.3466 -0.5628
13592TIP3    H162191   5.856   1.996   1.749  1.0713 -0.1106 -0.5861
13592TIP3    H262192   5.871   1.994   1.598 -0.0204 -0.5123 -0.6900
13593TIP3   OH262193   0.103   4.978   4.705  0.3245 -0.0750 -0.5666
13593TIP3    H162194   0.150   5.061   4.703  1.5488 -0.7647 -0.6206
13593TIP3    H262195   0.030   4.990   4.644  0.1086  1.1753 -0.0827
13594TIP3   OH262196   1.388   1.362  10.820 -0.1220 -0.2415  0.0773
13594TIP3    H162197   1.370   1.303  10.746  1.0280 -0.1842 -0.2618
13594TIP3    H262198   1.408   1.446  10.778  1.3420 -0.4148  0.4092
13595TIP3   OH262199   1.386   4.247   0.239 -0.3920  0.4269 -0.1401
13595TIP3    H162200   1.439   4.225   0.162 -0.0258  0.4203  0.1126
13595TIP3    H262201   1.336   4.168   0.257 -0.5934  0.4774 -0.4621
13596TIP3   OH262202   6.576   2.981   3.924  0.1305  0.3599 -0.0299
13596TIP3    H162203   6.633   2.926   3.871  1.4304  0.2837  1.4074
13596TIP3    H262204   6.581   3.067   3.883  0.3400  0.0704 -0.6134
13597TIP3   OH262205   4.448   6.267   0.321 -0.1027  0.1554  0.1174
13597TIP3    H162206   4.456   6.316   0.239  1.4304 -0.8404 -0.3609
13597TIP3    H262207   4.537   6.236   0.338 -0.9693 -2.2245  0.5452
13598TIP3   OH262208   0.481   3.712  15.347 -0.1021 -0.0643  0.1764
13598TIP3    H162209   0.434   3.794  15.339  1.4262  0.8059 -0.1085
13598TIP3    H262210   0.525   3.701  15.262  1.6957  0.1012  1.0564
13599TIP3   OH262211   4.588   6.047   5.505 -0.1524 -0.0891  0.3960
13599TIP3    H162212   4.551   5.982   5.445 -1.9752  0.1453  1.2628
13599TIP3    H262213   4.566   6.131   5.465  0.5155  0.0426  0.2917
13600TIP3   OH262214   6.143   5.457   0.271 -0.0585 -0.0818 -0.8244
13600TIP3    H162215   6.232   5.431   0.248  0.3365  1.5109 -1.1514
13600TIP3    H262216   6.139   5.448   0.366  0.7724  0.7517 -0.6977
13601TIP3   OH262217   1.289   4.338   2.147  0.0744 -0.3340  0.3557
13601TIP3    H162218   1.224   4.276   2.111 -2.1054  0.7811  2.2793
13601TIP3    H262219   1.276   4.334   2.242  3.1447 -0.3901  0.8104
13602TIP3   OH262220   3.288   5.657   4.212  0.0269 -0.4165  0.1486
13602TIP3    H162221   3.271   5.712   4.136  1.7287  1.5540  1.1341
13602TIP3    H262222   3.236   5.696   4.282  1.9759  0.5852  1.0869
13603TIP3   OH262223   2.303   1.686   0.643  0.1369  0.2268  0.0487
13603TIP3    H162224   2.237   1.617   0.632  1.5901 -0.8938 -2.0868
13603TIP3    H262225   2.383   1.638   0.667  1.2336  1.1343 -1.7265
13604TIP3   OH262226   3.962   6.091   5.877 -0.0269 -0.2000  0.2295
13604TIP3    H162227   4.053   6.106   5.854  0.1048 -0.2263  0.7197
13604TIP3    H262228   3.929   6.176   5.906 -0.0710 -0.2533  0.3394
13605TIP3   OH262229   6.107   4.017   2.805 -0.0403  0.5003  0.1422
13605TIP3    H162230   6.123   4.028   2.899  0.7005  0.2422  0.0530
13605TIP3    H262231   6.181   4.061   2.763 -0.1010  0.1764 -0.3103
13606TIP3   OH262232   2.239   1.299  14.213  0.0792  0.1357 -0.1818
13606TIP3    H162233   2.217   1.231  14.276 -1.4579  0.1796 -0.6571
13606TIP3    H262234   2.293   1.254  14.148 -0.0524 -0.3896  0.0676
13607TIP3   OH262235   0.793   4.007   4.960 -0.0376  0.0943 -0.3756
13607TIP3    H162236   0.709   4.003   5.006  1.0516  1.0707  1.7656
13607TIP3    H262237   0.795   4.094   4.921 -1.2528 -0.9782 -2.8829
13608TIP3   OH262238   1.816   3.218   5.236 -0.7211  0.3249  0.1598
13608TIP3    H162239   1.861   3.232   5.152 -0.8369  3.2724  0.5343
13608TIP3    H262240   1.885   3.194   5.297 -0.5261 -1.0414 -0.5626
13609TIP3   OH262241   0.487   1.011   1.135 -0.0810 -0.4124  0.2204
13609TIP3    H162242   0.573   0.979   1.108  0.1373 -1.5280  2.1699
13609TIP3    H262243   0.491   1.105   1.120  1.9079 -0.2869  1.4063
13610TIP3   OH262244   1.842   5.849   2.804  0.4882  0.3645  0.1255
13610TIP3    H162245   1.807   5.761   2.816  0.5770  0.3473  0.2694
13610TIP3    H262246   1.765   5.904   2.794  0.3852  0.4746  1.4803
13611TIP3   OH262247   3.730   0.185  15.809  0.4867 -0.1210 -0.2314
13611TIP3    H162248   3.797   0.182  15.878  1.9257  2.6113 -1.4130
13611TIP3    H262249   3.694   0.097  15.806  4.8402 -2.0066 -0.2975
13612TIP3   OH262250   6.651   1.338  11.442  0.1234 -0.4401  0.1384
13612TIP3    H162251   6.589   1.315  11.511  1.4089  0.5207  1.6360
13612TIP3    H262252   6.637   1.271  11.375 -3.1478  0.2842  0.0192
13613TIP3   OH262253   2.539   0.165  16.416  0.1910  1.0608  0.1464
13613TIP3    H162254   2.554   0.154  16.322  2.5867  1.9922  0.3837
13613TIP3    H262255   2.503   0.253  16.425  1.9383  1.7896  0.2576
13614TIP3   OH262256   0.369   6.437   2.223  0.3443  0.5012  0.4212
13614TIP3    H162257   0.288   6.386   2.223  1.3635 -1.1397  0.3372
13614TIP3    H262258   0.395   6.440   2.315  0.3130  0.8172  0.4187
13615TIP3   OH262259   3.891   6.526   0.573 -0.0581 -0.6924  0.6382
13615TIP3    H162260   3.871   6.512   0.666  1.2023  0.6460  1.1293
13615TIP3    H262261   3.986   6.521   0.568  0.2393  3.3222  0.1775
13616TIP3   OH262262   4.332   0.271  11.976  0.1480  0.1351 -0.2499
13616TIP3    H162263   4.274   0.215  12.029 -0.5182 -0.1863 -1.3051
13616TIP3    H262264   4.275   0.342  11.947  1.1760  1.8260  1.7289
13617TIP3   OH262265   4.800   6.181  14.725 -0.3176  0.0311  0.2629
13617TIP3    H162266   4.881   6.179  14.675 -1.1676 -1.9113 -1.1194
13617TIP3    H262267   4.734   6.212  14.663 -0.9027  0.1204  0.9239
13618TIP3   OH262268   4.193   1.520  13.659 -0.3066 -0.0440  0.1994
13618TIP3    H162269   4.141   1.525  13.578  0.4439  1.3493 -0.2195
13618TIP3    H262270   4.138   1.563  13.725 -0.9360 -1.2155  0.4489
13619TIP3   OH262271   0.747   2.626  12.668  0.2554  0.1059 -0.2748
13619TIP3    H162272   0.733   2.720  12.681  1.0729  0.2103 -0.1383
13619TIP3    H262273   0.797   2.621  12.586  2.0371 -0.0928  0.8238
13620TIP3   OH262274   3.083   1.497   0.820  0.5942  0.1632  0.3183
13620TIP3    H162275   3.159   1.450   0.785  1.6644  1.5070  0.7841
13620TIP3    H262276   3.055   1.553   0.747 -0.9102 -1.4230 -0.3633
13621TIP3   OH262277   0.527   2.708  13.376  0.1441  0.5632 -0.0570
13621TIP3    H162278   0.513   2.777  13.311 -1.1106  0.0623 -0.3359
13621TIP3    H262279   0.550   2.631  13.326  0.1869  0.4339  0.1599
13622TIP3   OH262280   6.707   1.209  12.024 -0.3231  0.2159  0.2277
13622TIP3    H162281   6.692   1.168  12.109 -0.8827  0.2978  0.1700
13622TIP3    H262282   6.645   1.281  12.020  1.5849  1.9315  0.8829
13623TIP3   OH262283   1.488   3.876   4.460  0.4823 -0.4654 -0.2883
13623TIP3    H162284   1.457   3.961   4.427 -2.0246 -1.6771 -1.1553
13623TIP3    H262285   1.583   3.887   4.468 -0.0661  3.4574  2.6183
13624TIP3   OH262286   3.782   1.035   0.973  0.2140 -0.0115  0.5839
13624TIP3    H162287   3.839   1.063   0.902 -0.3892 -1.7434 -0.6326
13624TIP3    H262288   3.841   1.013   1.045  0.9020  0.7126  0.2395
13625TIP3   OH262289   0.078   0.159   0.298 -0.0839 -1.0274 -0.4714
13625TIP3    H162290   0.146   0.214   0.337 -0.7114  0.1178 -0.9528
13625TIP3    H262291   0.124   0.083   0.264  0.8849 -0.5303 -0.2729
13626TIP3   OH262292   0.561   1.935  12.238 -0.2053  0.0980 -0.2566
13626TIP3    H162293   0.555   2.002  12.171  1.2858  2.8204  2.2363
13626TIP3    H262294   0.635   1.881  12.212 -0.1028  0.6673 -1.1698
13627TIP3   OH262295   3.210   0.950  14.290 -0.3734 -0.7807  0.3110
13627TIP3    H162296   3.270   0.937  14.364 -0.5062 -0.9108  0.3977
13627TIP3    H262297   3.264   0.932  14.212 -0.1619 -0.3731  0.3634
13628TIP3   OH262298   2.561   2.490   2.533 -0.3771  0.3436  0.2204
13628TIP3    H162299   2.577   2.489   2.627 -0.9984 -0.2620  0.3184
13628TIP3    H262300   2.578   2.581   2.507  1.0338  0.2301  0.6931
13629TIP3   OH262301   5.436   5.541  17.013 -0.3560  0.0086  0.0771
13629TIP3    H162302   5.374   5.612  17.026 -1.0073 -0.3302 -1.1674
13629TIP3    H262303   5.410   5.500  16.931  0.7704 -0.8963  0.1531
13630TIP3   OH262304   2.791   0.501   2.843  0.5258 -0.2287  0.2074
13630TIP3    H162305   2.756   0.412   2.831 -0.9067  0.2727  0.4949
13630TIP3    H262306   2.730   0.557   2.796  1.3710  0.6229  0.1124
13631TIP3   OH262307   4.857   2.495   2.191 -0.0160  0.0803  0.1078
13631TIP3    H162308   4.861   2.428   2.124 -0.7935 -0.0167  0.1561
13631TIP3    H262309   4.871   2.577   2.144  0.7586 -0.1015  0.0251
13632TIP3   OH262310   5.806   4.164  15.585  0.5212  0.0732  0.3191
13632TIP3    H162311   5.797   4.071  15.606 -1.2467  0.3311  0.8141
13632TIP3    H262312   5.751   4.177  15.508  0.9293  0.6640  0.1256
13633TIP3   OH262313   5.700   3.525   4.325  0.2526  0.2031  0.0352
13633TIP3    H162314   5.625   3.531   4.266 -0.3181 -2.1963  0.4419
13633TIP3    H262315   5.674   3.573   4.403 -0.5945 -0.0219 -0.1059
13634TIP3   OH262316   5.411   5.873  11.092  0.8087  0.0264  0.6385
13634TIP3    H162317   5.482   5.892  11.030  0.4185  0.3491  0.2935
13634TIP3    H262318   5.389   5.958  11.130 -1.8441  0.5350 -1.8795
13635TIP3   OH262319   3.091   2.413  16.406 -0.4281 -0.3328  0.4455
13635TIP3    H162320   3.040   2.428  16.326  1.6312 -1.4509 -1.0973
13635TIP3    H262321   3.127   2.499  16.427 -0.2601 -0.2100 -0.3278
13636TIP3   OH262322   4.710   0.638  14.879 -0.0953 -0.6136 -0.3039
13636TIP3    H162323   4.805   0.646  14.869 -0.0912  0.9318  0.9116
13636TIP3    H262324   4.696   0.545  14.898  1.4617 -0.2890  2.6345
13637TIP3   OH262325   1.709   2.694  10.708  0.2291 -0.1305 -0.0180
13637TIP3    H162326   1.788   2.743  10.731 -0.0575 -0.0143  0.7338
13637TIP3    H262327   1.643   2.723  10.771 -0.2458 -0.6839 -0.2483
13638TIP3   OH262328   3.937   1.211  13.267 -0.3091  0.2699 -0.4256
13638TIP3    H162329   3.986   1.267  13.207 -1.6327  2.3136  0.3101
13638TIP3    H262330   3.847   1.214  13.234 -0.9362  0.9367  1.2661
13639TIP3   OH262331   5.221   6.666  15.370  0.4898  0.2961 -0.2359
13639TIP3    H162332   5.207   6.760  15.365  1.6637  0.3928 -2.1042
13639TIP3    H262333   5.215   6.636  15.279  1.2679 -1.2606  0.2072
13640TIP3   OH262334   3.997   5.568  14.423 -0.1662 -0.2065 -0.8598
13640TIP3    H162335   3.967   5.630  14.356 -0.6744  0.7974  0.2949
13640TIP3    H262336   4.092   5.566  14.414 -0.1347  0.8743 -0.7727
13641TIP3   OH262337   5.861   5.257  16.631  1.0358  0.0236 -0.1126
13641TIP3    H162338   5.843   5.348  16.655  0.6595  0.5550 -2.2849
13641TIP3    H262339   5.785   5.231  16.577 -0.0039 -2.3325  2.3713
13642TIP3   OH262340   6.260   6.355  12.749 -0.1618 -0.2607 -0.0869
13642TIP3    H162341   6.333   6.385  12.695  0.5187 -1.7450  0.0086
13642TIP3    H262342   6.195   6.426  12.742  1.6167  1.4867  0.5483
13643TIP3   OH262343   4.274   5.624   6.016 -0.1701  0.5437 -0.8745
13643TIP3    H162344   4.305   5.714   6.027  0.0720  0.5028 -1.1890
13643TIP3    H262345   4.322   5.573   6.081 -3.1511  1.2491  1.9940
13644TIP3   OH262346   0.860   3.699   6.286  0.3710  0.0696 -0.0686
13644TIP3    H162347   0.810   3.777   6.262  0.9782 -0.0347 -1.7426
13644TIP3    H262348   0.871   3.706   6.381  4.3046  4.3871 -0.6887
13645TIP3   OH262349   6.658   6.105   2.021  0.0997  0.4842  0.4222
13645TIP3    H162350   6.597   6.054   1.968  0.3978 -0.6830  1.1931
13645TIP3    H262351   6.738   6.111   1.969 -0.2253  0.9049 -0.0332
13646TIP3   OH262352   6.262   4.090  12.972  0.0927  0.4023  0.6980
13646TIP3    H162353   6.286   4.034  12.898  0.5680 -0.3627  1.4139
13646TIP3    H262354   6.333   4.153  12.978 -0.0561  0.6015  0.3654
13647TIP3   OH262355   2.940   1.187   3.043  0.1534 -0.0302  0.1205
13647TIP3    H162356   3.018   1.236   3.070 -0.0031  0.2803  0.0147
13647TIP3    H262357   2.952   1.100   3.080  0.6192 -0.0238 -0.0086
13648TIP3   OH262358   2.522   5.184  15.110  0.1683 -0.0681  0.6374
13648TIP3    H162359   2.564   5.202  15.195 -0.5647 -1.2937  1.2781
13648TIP3    H262360   2.589   5.205  15.045  0.8924  0.4530  1.5418
13649TIP3   OH262361   4.062   0.803  13.351 -0.4268 -0.0169  0.2899
13649TIP3    H162362   4.039   0.761  13.434 -0.3826 -0.8880 -0.1388
13649TIP3    H262363   4.127   0.745  13.312 -0.4983  0.3575 -0.3917
13650TIP3   OH262364   5.735   1.690  14.345  0.0690 -0.0372  0.1534
13650TIP3    H162365   5.800   1.729  14.404 -1.0470  3.0995 -0.6334
13650TIP3    H262366   5.785   1.625  14.295  2.7083  2.4545 -0.5845
13651TIP3   OH262367   0.458   6.054   2.011  0.2848  0.3016 -0.5432
13651TIP3    H162368   0.484   6.135   1.967  1.2996 -0.0756 -0.6674
13651TIP3    H262369   0.424   6.082   2.096  1.4705  0.8042 -0.2240
13652TIP3   OH262370   1.121   2.375   1.794 -0.1624  0.0737 -0.2713
13652TIP3    H162371   1.060   2.431   1.745 -2.9944 -1.4582  1.3967
13652TIP3    H262372   1.092   2.286   1.775 -1.2388 -0.5760  3.9596
13653TIP3   OH262373   5.670   4.766  10.430  0.4619 -0.5159 -0.3648
13653TIP3    H162374   5.585   4.809  10.422  0.4613 -0.4332  0.0776
13653TIP3    H262375   5.732   4.837  10.443  0.6624 -0.5447 -1.1277
13654TIP3   OH262376   4.019   4.366   4.403 -0.3097 -0.1243 -0.4608
13654TIP3    H162377   4.113   4.363   4.421  0.0860  0.7229 -2.2782
13654TIP3    H262378   4.010   4.327   4.317 -1.4222  1.2958 -1.0091
13655TIP3   OH262379   5.822   6.537  10.694 -0.4912 -0.2160 -0.0364
13655TIP3    H162380   5.852   6.587  10.618  1.4691  0.8616  1.3965
13655TIP3    H262381   5.777   6.601  10.749  0.9498 -0.2775  1.2307
13656TIP3   OH262382   3.171   6.744  14.822 -0.0849  0.4371 -0.1513
13656TIP3    H162383   3.101   6.760  14.758  1.0394  1.5773 -1.1205
13656TIP3    H262384   3.224   6.674  14.784 -0.1823  0.1843  0.1733
13657TIP3   OH262385   1.255   4.822  14.776  0.4884  0.0542 -0.4632
13657TIP3    H162386   1.287   4.771  14.702  0.2903  1.1426 -1.3217
13657TIP3    H262387   1.159   4.815  14.770  0.4827 -0.4740  0.1437
13658TIP3   OH262388   0.235   2.438  11.079 -0.2598 -0.3269 -0.6047
13658TIP3    H162389   0.254   2.530  11.098 -1.4347 -0.1400 -0.3390
13658TIP3    H262390   0.170   2.412  11.144 -0.9305 -0.9655 -1.5087
13659TIP3   OH262391   6.536   6.077  11.459 -0.4056  0.1825  0.1654
13659TIP3    H162392   6.530   6.071  11.364 -0.2144  1.9591  0.0249
13659TIP3    H262393   6.447   6.099  11.487 -0.6608 -1.2213  0.4844
13660TIP3   OH262394   3.987   3.408   2.935  0.0447 -0.5859  0.1984
13660TIP3    H162395   3.944   3.415   3.020  0.4722  0.3946  0.3443
13660TIP3    H262396   4.006   3.315   2.926 -1.4538 -0.9294  0.4461
13661TIP3   OH262397   3.354   5.418  15.809  0.5276 -0.3437 -0.3079
13661TIP3    H162398   3.431   5.362  15.823  0.8108  0.2832  0.6079
13661TIP3    H262399   3.299   5.403  15.886  0.2320  0.0387 -0.4470
13662TIP3   OH262400   2.117   2.205   5.286 -0.8873  0.7256 -0.5503
13662TIP3    H162401   2.071   2.155   5.218 -1.1782  0.2918 -0.0430
13662TIP3    H262402   2.161   2.276   5.239 -0.7271  0.1692 -1.2408
13663TIP3   OH262403   2.357   5.298  11.277  0.1330 -0.1602  0.0612
13663TIP3    H162404   2.283   5.262  11.326 -0.1055  0.7774  0.3897
13663TIP3    H262405   2.323   5.378  11.238  0.7983 -0.0553 -0.3089
13664TIP3   OH262406   5.205   5.875  13.104  0.0242  0.4120  0.2249
13664TIP3    H162407   5.113   5.849  13.109  0.0692  0.3285  0.6302
13664TIP3    H262408   5.252   5.793  13.088 -0.0627  0.5929 -1.0393
13665TIP3   OH262409   5.898   2.452  15.694  0.5991  0.0579  0.2839
13665TIP3    H162410   5.971   2.411  15.648  0.9831 -0.8312  1.6308
13665TIP3    H262411   5.895   2.406  15.779 -0.2183  1.4874  1.0449
13666TIP3   OH262412   0.072   2.177   0.918  0.7945  0.0296  0.7503
13666TIP3    H162413   0.069   2.270   0.942 -0.7503 -0.1591  1.2963
13666TIP3    H262414   0.165   2.154   0.923  1.2760  1.7176 -0.0594
13667TIP3   OH262415   0.332   5.019   6.371  0.2603 -0.0126 -0.3346
13667TIP3    H162416   0.329   4.943   6.430  2.8473  2.8681  3.7538
13667TIP3    H262417   0.399   4.997   6.306  0.1838 -1.6731  0.1301
13668TIP3   OH262418   5.342   4.606  13.617 -0.7095  0.3757  0.5100
13668TIP3    H162419   5.433   4.577  13.629 -0.0016  2.0879 -0.5727
13668TIP3    H262420   5.291   4.524  13.619  0.7031 -0.4998  2.2611
13669TIP3   OH262421   5.147   1.505   1.492 -0.5680 -0.0394  0.3012
13669TIP3    H162422   5.129   1.480   1.583 -1.4717  1.8451  0.6701
13669TIP3    H262423   5.087   1.451   1.440  0.2919 -1.4743  0.7702
13670TIP3   OH262424   3.492   2.392  12.533 -0.1171 -0.0441 -0.1693
13670TIP3    H162425   3.506   2.299  12.518  1.8038  0.0666  0.8848
13670TIP3    H262426   3.495   2.431  12.445  0.5756 -0.7889 -0.4797
13671TIP3   OH262427   5.026   1.577  15.734  0.2702  0.3474  0.3768
13671TIP3    H162428   5.021   1.510  15.801 -1.4713  0.0195 -0.0433
13671TIP3    H262429   4.939   1.576  15.693  1.8353 -0.6928 -3.0563
13672TIP3   OH262430   0.921   3.619   4.266 -0.5686 -0.0142 -0.5073
13672TIP3    H162431   1.016   3.624   4.257 -0.4638 -2.2184 -1.0911
13672TIP3    H262432   0.907   3.574   4.349 -1.1491  1.5414  0.2555
13673TIP3   OH262433   1.781   6.456   3.570 -0.6421  0.2374  0.2572
13673TIP3    H162434   1.715   6.524   3.563 -1.1422 -0.1689  0.9357
13673TIP3    H262435   1.734   6.381   3.608  0.4807  0.3333  1.8845
13674TIP3   OH262436   4.406   4.301   3.412 -0.0429  0.0861 -0.0368
13674TIP3    H162437   4.478   4.255   3.456 -0.7912 -0.8422  0.2374
13674TIP3    H262438   4.426   4.295   3.319 -0.2408 -0.9884 -0.0157
13675TIP3   OH262439   0.541   3.386  14.500  0.1077  0.1197  0.3384
13675TIP3    H162440   0.541   3.291  14.503  1.7287  0.0327 -1.2448
13675TIP3    H262441   0.559   3.413  14.590  2.3367 -1.1455  0.3192
13676TIP3   OH262442   2.015   1.554   0.701  0.5464 -0.1189 -0.2048
13676TIP3    H162443   1.925   1.525   0.691  0.8959 -0.6364 -2.0510
13676TIP3    H262444   2.066   1.474   0.712  1.0101  0.0428 -1.1027
13677TIP3   OH262445   1.231   5.573   4.187 -0.5020  0.6847 -0.2951
13677TIP3    H162446   1.226   5.669   4.192 -0.6768  0.6364  0.5099
13677TIP3    H262447   1.214   5.553   4.095 -0.4365  1.4297 -0.4725
13678TIP3   OH262448   5.807   6.744   1.316 -0.6238  0.0776 -0.1512
13678TIP3    H162449   5.768   6.716   1.233  0.0378 -1.4520  0.0313
13678TIP3    H262450   5.898   6.763   1.295 -0.4589 -0.2961  0.2136
13679TIP3   OH262451   4.813   1.013  14.589 -0.3312 -0.0976 -0.2873
13679TIP3    H162452   4.818   0.976  14.500  1.9639 -1.7337  0.4608
13679TIP3    H262453   4.735   1.068  14.588  0.5654  1.2546 -3.8361
13680TIP3   OH262454   3.021   1.185   3.520  0.6500  0.5948  0.4341
13680TIP3    H162455   2.944   1.241   3.528 -0.2392 -0.5902  0.2793
13680TIP3    H262456   3.058   1.207   3.434  0.4355  1.1083  0.4720
13681TIP3   OH262457   3.516   5.932   3.484 -0.4288  0.1666  0.1258
13681TIP3    H162458   3.565   5.933   3.402 -1.5852 -0.7097 -0.5886
13681TIP3    H262459   3.567   5.988   3.543  0.2837  0.9917 -1.2480
13682TIP3   OH262460   3.469   3.228  17.194 -0.0574  0.0429 -0.2037
13682TIP3    H162461   3.391   3.268  17.234  0.4541 -0.4281  1.2783
13682TIP3    H262462   3.449   3.134  17.192  0.0038  0.0425 -0.8894
13683TIP3   OH262463   4.593   2.782   3.892 -0.4309 -0.1471  0.2402
13683TIP3    H162464   4.658   2.764   3.823 -0.5265 -1.5730  0.5062
13683TIP3    H262465   4.599   2.876   3.907  2.6805 -0.4566  1.3204
13684TIP3   OH262466   6.398   1.967  12.025 -0.1634  0.2659  0.3367
13684TIP3    H162467   6.475   1.931  12.069 -1.4439 -2.2639  0.5323
13684TIP3    H262468   6.325   1.913  12.055 -2.2584  3.3506  1.0779
13685TIP3   OH262469   6.418   5.125  14.148 -0.5090  0.3005 -0.4880
13685TIP3    H162470   6.492   5.116  14.208 -0.5680 -0.9088 -0.5778
13685TIP3    H262471   6.441   5.198  14.091 -0.2430  1.1672  0.7055
13686TIP3   OH262472   4.816   4.419  14.151 -0.4011  0.1285  0.2588
13686TIP3    H162473   4.743   4.478  14.169 -1.0573 -0.7893  0.6467
13686TIP3    H262474   4.780   4.332  14.163  0.4514 -0.3704 -0.7181
13687TIP3   OH262475   5.928   4.923  10.788 -0.3117  0.0885  0.1316
13687TIP3    H162476   5.949   4.993  10.850  1.7687  0.7778 -1.3039
13687TIP3    H262477   5.948   4.842  10.834 -0.7566  0.4977  1.0679
13688TIP3   OH262478   4.563   3.468  11.561  0.2482  0.4466  0.5025
13688TIP3    H162479   4.469   3.466  11.577  0.2313  1.4490  0.5818
13688TIP3    H262480   4.584   3.381  11.527 -0.7985  0.4004 -0.0349
13689TIP3   OH262481   0.305   0.362   0.144  0.0148 -0.1402  0.0384
13689TIP3    H162482   0.282   0.374   0.236 -0.1438  1.6088 -0.2235
13689TIP3    H262483   0.246   0.292   0.114 -0.1849 -0.4591  1.1636
13690TIP3   OH262484   4.061   3.273  13.603 -0.1364  0.2195 -0.2426
13690TIP3    H162485   4.151   3.245  13.620 -0.1879  0.2298  0.0454
13690TIP3    H262486   4.029   3.306  13.687  0.1065  1.6706 -0.7061
13691TIP3   OH262487   4.707   0.228   6.091  0.1538 -0.2484  0.0031
13691TIP3    H162488   4.661   0.161   6.041 -0.9302  0.7157 -0.3204
13691TIP3    H262489   4.781   0.182   6.131  0.0016 -1.4129 -1.0195
13692TIP3   OH262490   5.890   4.044  12.230 -0.5894 -0.4082  0.3524
13692TIP3    H162491   5.877   4.085  12.316 -1.9232 -1.6587  0.7638
13692TIP3    H262492   5.871   4.114  12.167  1.7685  0.9097  1.0620
13693TIP3   OH262493   4.961   0.357  15.313 -0.6521 -0.1281  0.5592
13693TIP3    H162494   4.995   0.420  15.377 -0.5309 -0.3373  0.7010
13693TIP3    H262495   4.921   0.289  15.366 -2.1126  0.5734  0.3827
13694TIP3   OH262496   3.624   1.978   4.878 -0.0791 -0.3135 -0.1918
13694TIP3    H162497   3.689   2.020   4.822 -1.6561  1.3798 -0.8021
13694TIP3    H262498   3.622   1.887   4.848  1.2376 -0.1351 -0.8539
13695TIP3   OH262499   0.098   5.386  14.541 -0.1089 -0.0088  0.1338
13695TIP3    H162500   0.091   5.481  14.555 -0.4968 -0.0843  0.4941
13695TIP3    H262501   0.069   5.372  14.451 -2.1200 -0.0030  0.7422
13696TIP3   OH262502   5.745   1.094   0.578 -0.7028  0.2474  0.5844
13696TIP3    H162503   5.837   1.078   0.597 -0.5297 -2.3223 -2.1062
13696TIP3    H262504   5.744   1.175   0.528  0.0318  0.5659  1.0803
13697TIP3   OH262505   3.163   1.771  15.198  0.0648 -0.1227  0.3845
13697TIP3    H162506   3.166   1.728  15.283  0.4968  0.9517  0.9174
13697TIP3    H262507   3.142   1.862  15.218 -0.1643  0.0642 -0.6836
13698TIP3   OH262508   2.101   1.989  15.336 -0.0219  0.0881  0.4107
13698TIP3    H162509   2.030   1.976  15.400 -0.8941 -2.9968 -1.0542
13698TIP3    H262510   2.069   2.058  15.279 -0.8572  0.3210  1.1456
13699TIP3   OH262511   5.899   1.868  13.747  0.2981  0.0085  0.2016
13699TIP3    H162512   5.921   1.841  13.658  3.1846  1.8707  0.2651
13699TIP3    H262513   5.885   1.962  13.741 -0.2477  0.0303  1.6015
13700TIP3   OH262514   0.156   3.129  14.401 -0.5517 -0.7748 -0.6231
13700TIP3    H162515   0.069   3.089  14.391 -1.5758  0.5835  2.1656
13700TIP3    H262516   0.182   3.153  14.313 -3.3832 -0.5017 -1.4340
13701TIP3   OH262517   2.196   4.940   1.150 -0.0557  0.1465  0.3540
13701TIP3    H162518   2.204   4.903   1.237  0.3192  0.6298  0.5280
13701TIP3    H262519   2.277   4.989   1.137  0.3611 -0.8024 -0.6856
13702TIP3   OH262520   5.407   3.188  16.001 -0.4691  0.2601  0.4188
13702TIP3    H162521   5.445   3.111  15.959  1.6330  1.4114  0.1419
13702TIP3    H262522   5.460   3.202  16.079 -1.1574  1.1401  0.7507
13703TIP3   OH262523   6.598   3.747  16.582  0.3866 -0.5223  0.1371
13703TIP3    H162524   6.671   3.685  16.590 -0.0242 -1.2162 -1.2679
13703TIP3    H262525   6.532   3.714  16.644  1.2734  0.1497  1.4626
13704TIP3   OH262526   0.460   4.209  16.574  0.3472  0.0188 -0.0048
13704TIP3    H162527   0.511   4.274  16.622  0.7681 -1.7128  1.9620
13704TIP3    H262528   0.371   4.221  16.607  0.1994  0.3843 -0.5256
13705TIP3   OH262529   5.042   3.188   3.670  0.0070 -0.4869 -1.0630
13705TIP3    H162530   5.105   3.132   3.624  2.0265  0.3259  0.6195
13705TIP3    H262531   5.017   3.137   3.746 -0.1105 -0.1315 -0.8660
13706TIP3   OH262532   4.882   6.084  13.564  0.1939  0.5419  0.7841
13706TIP3    H162533   4.932   6.007  13.536 -1.3972 -0.9181  1.8136
13706TIP3    H262534   4.806   6.086  13.505  0.5970  1.7579  0.2968
13707TIP3   OH262535   6.090   5.670  16.754  0.1086  0.1833  0.0766
13707TIP3    H162536   6.139   5.750  16.773  0.4138 -0.1001  0.4978
13707TIP3    H262537   6.129   5.636  16.674  1.8236 -0.9995  1.3706
13708TIP3   OH262538   2.117   2.428  13.428  0.6742 -0.4371  0.5949
13708TIP3    H162539   2.195   2.373  13.437  0.1025 -1.3418  0.0302
13708TIP3    H262540   2.133   2.480  13.349  0.5802 -0.8247  0.3202
13709TIP3   OH262541   2.425   5.545  15.480  0.0726 -0.9646 -0.6114
13709TIP3    H162542   2.395   5.527  15.391 -1.1465  2.0569 -0.8821
13709TIP3    H262543   2.350   5.523  15.536 -1.2378  2.4183 -0.9002
13710TIP3   OH262544   6.763   0.249   5.780  0.5300 -0.2082  0.4673
13710TIP3    H162545   6.693   0.196   5.742  0.6930 -0.1037  0.0271
13710TIP3    H262546   6.799   0.195   5.850 -0.4483  0.0052  1.1592
13711TIP3   OH262547   6.400   6.748   2.019  0.0502  0.2192 -0.1971
13711TIP3    H162548   6.358   6.826   1.984 -1.6481 -0.8792 -0.6514
13711TIP3    H262549   6.364   6.675   1.967  0.0955 -1.0669  1.5211
13712TIP3   OH262550   4.229   6.617  17.074  0.5819  0.2831  0.1308
13712TIP3    H162551   4.262   6.662  17.151  1.6200  0.3018 -0.3136
13712TIP3    H262552   4.257   6.671  17.000 -0.3108  0.2133 -0.2701
13713TIP3   OH262553   2.508   1.521   0.705  0.1979 -0.0561 -0.9076
13713TIP3    H162554   2.585   1.559   0.662  0.7458  0.6553  0.6601
13713TIP3    H262555   2.537   1.434   0.732  1.7348  1.6110  3.0608
13714TIP3   OH262556   6.127   0.555   4.971  0.0377  0.5668  0.4920
13714TIP3    H162557   6.111   0.471   4.928  3.3686 -1.2502  2.5905
13714TIP3    H262558   6.043   0.579   5.010 -0.5016 -2.8479  1.5619
13715TIP3   OH262559   2.727   2.138  12.808  0.0282 -0.1975 -0.3465
13715TIP3    H162560   2.774   2.124  12.890  0.5227  1.1321 -0.3861
13715TIP3    H262561   2.778   2.090  12.742  1.4336  1.3605 -0.4159
13716TIP3   OH262562   5.513   4.394  16.042 -0.0426  0.1193  0.5583
13716TIP3    H162563   5.513   4.300  16.025  1.6248  0.0159  0.9957
13716TIP3    H262564   5.473   4.404  16.128 -0.4453 -0.1707  0.4021
13717TIP3   OH262565   3.880   0.213   6.663  0.0023  0.4429  0.1800
13717TIP3    H162566   3.974   0.193   6.664 -0.1920 -0.5289 -0.7853
13717TIP3    H262567   3.839   0.137   6.704 -0.4184  0.5934  0.0399
13718TIP3   OH262568   3.959   5.200   3.029  0.1200  0.0002  0.4050
13718TIP3    H162569   3.922   5.130   2.975  1.3433 -0.1599 -0.2417
13718TIP3    H262570   4.019   5.155   3.089  0.2641  0.3935  0.5586
13719TIP3   OH262571   6.777   5.434  12.409 -0.1986 -0.2915 -0.1735
13719TIP3    H162572   6.688   5.409  12.384 -0.4837 -0.2597  0.7895
13719TIP3    H262573   6.767   5.520  12.450  0.3752  0.0343 -0.7059
13720TIP3   OH262574   2.846   6.726   5.075  0.2198  0.3608  0.4113
13720TIP3    H162575   2.862   6.752   4.984 -0.6990 -0.6531 -0.0600
13720TIP3    H262576   2.849   6.807   5.125 -0.0770  1.0298 -0.6469
13721TIP3   OH262577   1.358   5.486  13.489  0.3264 -0.1384  0.0582
13721TIP3    H162578   1.278   5.473  13.438 -0.1679 -0.7213  0.9559
13721TIP3    H262579   1.385   5.397  13.514  0.4463  0.1426  0.9633
13722TIP3   OH262580   2.446   2.302  17.229 -0.1976 -0.0728  0.2943
13722TIP3    H162581   2.515   2.237  17.246 -0.0823 -0.6328 -2.0890
13722TIP3    H262582   2.489   2.367  17.174 -1.1225  0.4680  0.2087
13723TIP3   OH262583   0.482   1.528   3.671 -0.0186  0.3276  0.7173
13723TIP3    H162584   0.431   1.454   3.704  2.1012 -1.7533 -0.4527
13723TIP3    H262585   0.523   1.565   3.750 -0.0492 -0.6057  1.1895
13724TIP3   OH262586   3.488   5.882   1.075 -0.6171  0.0710 -0.5558
13724TIP3    H162587   3.487   5.922   1.162  0.7064  2.0053 -1.3815
13724TIP3    H262588   3.396   5.871   1.051 -0.9940  1.4399  0.2440
13725TIP3   OH262589   5.650   6.297   2.497  0.1222 -0.5684  0.0349
13725TIP3    H162590   5.599   6.275   2.419  1.0882 -0.8470 -0.5279
13725TIP3    H262591   5.714   6.361   2.466  0.1554 -0.2669  0.7209
13726TIP3   OH262592   1.000   3.249  11.738 -0.0425 -0.1391 -0.3439
13726TIP3    H162593   0.976   3.281  11.652 -0.1288  1.6790  0.3433
13726TIP3    H262594   1.092   3.276  11.749  0.4852 -1.8011 -0.5175
13727TIP3   OH262595   2.432   2.196  12.221  0.2614 -0.3122 -0.1472
13727TIP3    H162596   2.363   2.147  12.266  0.2042  0.1125  0.2317
13727TIP3    H262597   2.499   2.212  12.288  1.5442 -2.2340 -0.9351
13728TIP3   OH262598   5.019   5.961   5.449 -0.4778 -0.4644 -0.3588
13728TIP3    H162599   5.071   5.952   5.369  1.0010 -0.0665  0.5474
13728TIP3    H262600   5.077   5.931   5.519 -0.5401  2.4258  0.9922
13729TIP3   OH262601   6.697   6.226   2.702  0.0182 -0.0790  0.3176
13729TIP3    H162602   6.763   6.178   2.653  0.7612  0.9677  0.2743
13729TIP3    H262603   6.746   6.276   2.766 -0.6695  1.1459 -0.0868
13730TIP3   OH262604   6.578   6.328  12.167  0.3221  0.1620 -0.3685
13730TIP3    H162605   6.507   6.385  12.138  0.9564  0.7386 -0.7877
13730TIP3    H262606   6.621   6.377  12.237  0.3276 -0.1733 -0.1358
13731TIP3   OH262607   0.185   2.864   5.065  0.0428  0.2623  0.2210
13731TIP3    H162608   0.143   2.827   5.143 -1.9917  0.8652 -0.5802
13731TIP3    H262609   0.257   2.916   5.100 -0.2633 -0.2278  1.6447
13732TIP3   OH262610   0.417   6.372  15.191 -0.3718  0.0124 -0.2428
13732TIP3    H162611   0.480   6.442  15.172 -0.2707 -0.0665 -0.1996
13732TIP3    H262612   0.470   6.292  15.191 -0.5708 -0.1212 -0.7759
13733TIP3   OH262613   2.083   2.825  16.333  0.3238 -0.0467  0.2069
13733TIP3    H162614   2.174   2.831  16.305  0.1275 -1.7304 -0.8413
13733TIP3    H262615   2.050   2.745  16.291 -1.3885  0.0879  1.2567
13734TIP3   OH262616   0.488   3.731  12.917 -0.1796  0.7177  0.0419
13734TIP3    H162617   0.461   3.646  12.952  1.0372  0.1578 -0.3665
13734TIP3    H262618   0.556   3.711  12.853  0.2772  2.0093  0.1006
13735TIP3   OH262619   1.632   6.711   1.253  0.2949 -0.1678  0.1199
13735TIP3    H162620   1.566   6.680   1.192  0.1079  1.0974 -0.3433
13735TIP3    H262621   1.668   6.790   1.212  1.2562 -0.1671  0.9173
13736TIP3   OH262622   0.414   2.293  15.677 -0.3924 -0.2623 -0.3490
13736TIP3    H162623   0.319   2.305  15.674 -0.4313 -0.3108  0.6680
13736TIP3    H262624   0.450   2.380  15.689 -0.2040 -0.0026 -2.6066
13737TIP3   OH262625   2.055   5.944  16.848 -0.3898  0.3213  0.0689
13737TIP3    H162626   2.016   6.026  16.879 -1.1874 -0.0382  0.0176
13737TIP3    H262627   2.149   5.960  16.852 -0.5206  0.8614  1.0851
13738TIP3   OH262628   0.886   2.987   0.531 -0.1763 -0.0530  0.2639
13738TIP3    H162629   0.894   2.922   0.601 -3.1354 -1.0335 -0.2278
13738TIP3    H262630   0.830   2.944   0.465  1.1529  1.4906 -1.9202
13739TIP3   OH262631   5.435   0.592  14.268 -0.1852 -0.0127 -0.0917
13739TIP3    H162632   5.372   0.525  14.242  1.8972 -1.0523 -2.7246
13739TIP3    H262633   5.447   0.580  14.362 -1.6022 -1.7904 -0.1188
13740TIP3   OH262634   5.537   1.791  12.588  0.1149 -0.2988  0.1966
13740TIP3    H162635   5.549   1.826  12.500 -1.6558 -0.0943  0.0040
13740TIP3    H262636   5.486   1.711  12.575 -0.0768 -0.3157  1.0296
13741TIP3   OH262637   1.902   1.093   5.753 -0.5647 -0.0376 -0.6521
13741TIP3    H162638   1.860   1.167   5.710 -0.7337 -0.8530 -1.9184
13741TIP3    H262639   1.908   1.025   5.685  1.6575 -0.3851 -0.1584
13742TIP3   OH262640   1.616   0.319   1.787  0.4686  0.2057 -0.4772
13742TIP3    H162641   1.529   0.315   1.747  0.5421 -0.6069 -0.5757
13742TIP3    H262642   1.612   0.393   1.847 -0.5333 -0.3067  0.0956
13743TIP3   OH262643   0.152   0.858  15.195  0.3293  0.0625  0.3295
13743TIP3    H162644   0.107   0.896  15.119 -1.0709 -0.5756  0.8104
13743TIP3    H262645   0.215   0.796  15.157 -0.2426 -0.1322 -0.3285
13744TIP3   OH262646   1.482   2.405  14.034 -0.1729 -0.3378 -0.0188
13744TIP3    H162647   1.445   2.320  14.057  0.7675 -1.0235 -0.9512
13744TIP3    H262648   1.502   2.398  13.941 -1.6068  1.4942 -0.4917
13745TIP3   OH262649   0.893   4.978   5.715  0.7836  0.8821  0.4245
13745TIP3    H162650   0.899   5.071   5.737  0.4245  0.9757  0.1233
13745TIP3    H262651   0.825   4.944   5.773 -0.1046  1.1107 -0.4741
13746TIP3   OH262652   4.241   3.892  13.238  0.1241  0.0801  0.5420
13746TIP3    H162653   4.210   3.801  13.234 -1.0042  0.5051 -0.9168
13746TIP3    H262654   4.196   3.929  13.313 -1.7946  0.2576 -0.6485
13747TIP3   OH262655   2.871   1.938   0.904 -0.1641 -0.1989 -0.3035
13747TIP3    H162656   2.879   2.023   0.860  2.0746  0.0333  0.4434
13747TIP3    H262657   2.783   1.939   0.942  0.0707  2.1075  0.2816
13748TIP3   OH262658   1.488   5.393  16.687  0.2427 -0.0598 -0.3569
13748TIP3    H162659   1.486   5.401  16.592 -2.7440  1.6955 -0.2380
13748TIP3    H262660   1.501   5.482  16.718  0.1660 -0.4682  0.8752
13749TIP3   OH262661   0.005   3.301  11.961  0.1172 -0.1751 -0.0497
13749TIP3    H162662   0.046   3.345  11.886 -0.2074  0.7749  0.3221
13749TIP3    H262663   0.043   3.213  11.960  1.9646  0.5961  0.1254
13750TIP3   OH262664   0.016   0.560   1.344 -0.2576  0.2232  0.0629
13750TIP3    H162665   0.086   0.623   1.362  1.5194 -1.1096 -1.8666
13750TIP3    H262666  -0.017   0.586   1.257 -1.6996  0.4098  0.6539
13751TIP3   OH262667   3.646   3.063  10.855 -0.0333 -0.6677 -0.7027
13751TIP3    H162668   3.715   3.011  10.896  0.6104  1.1215  0.5766
13751TIP3    H262669   3.669   3.066  10.763  1.1922 -0.7182 -0.4055
13752TIP3   OH262670   5.908   6.481  14.621  0.4033 -0.4492  0.3928
13752TIP3    H162671   6.001   6.474  14.602  0.0709 -1.1801 -1.0510
13752TIP3    H262672   5.871   6.399  14.588 -0.9824  0.5087 -0.4443
13753TIP3   OH262673   0.755   1.190  13.446  0.2524 -0.1773  0.7094
13753TIP3    H162674   0.687   1.227  13.390  1.0121  0.8608  0.4503
13753TIP3    H262675   0.708   1.157  13.523 -0.6586 -0.5109  0.0185
13754TIP3   OH262676   3.185   3.824  11.025 -0.3667 -0.0653 -0.3644
13754TIP3    H162677   3.192   3.729  11.037 -1.3772  0.0337  1.0773
13754TIP3    H262678   3.262   3.847  10.973  2.2820 -1.0495  2.9289
13755TIP3   OH262679   1.573   2.550  12.747  0.2611 -0.5078 -0.3255
13755TIP3    H162680   1.632   2.489  12.704  0.0306 -0.6311 -0.4656
13755TIP3    H262681   1.496   2.497  12.769 -0.0126 -0.2222 -0.6096
13756TIP3   OH262682   2.795   3.958  13.974 -0.3366 -0.1081  0.3227
13756TIP3    H162683   2.785   3.865  13.954 -2.0187  0.2759 -0.7349
13756TIP3    H262684   2.707   3.995  13.962  0.6916  1.9832 -1.2105
13757TIP3   OH262685   3.722   3.582  12.429  0.1628  0.2917 -0.1329
13757TIP3    H162686   3.638   3.582  12.384  0.2803  0.0059 -0.3541
13757TIP3    H262687   3.771   3.509  12.390  1.1185  1.4575 -1.1462
13758TIP3   OH262688   4.066   2.261   4.388  0.0658  0.6618  0.0205
13758TIP3    H162689   3.978   2.240   4.358  0.4290  0.4556 -0.9025
13758TIP3    H262690   4.124   2.205   4.336  0.7425  0.7983  0.6149
13759TIP3   OH262691   4.181   4.943  13.567  0.6740 -0.3013 -0.3653
13759TIP3    H162692   4.101   4.912  13.524 -0.8269  0.7982  1.4967
13759TIP3    H262693   4.191   4.886  13.643  2.0449 -0.8391 -0.9392
13760TIP3   OH262694   0.661   5.302  13.357 -0.1180 -0.4232 -0.2813
13760TIP3    H162695   0.693   5.220  13.395  0.8650  0.8659  1.7523
13760TIP3    H262696   0.717   5.317  13.282 -0.4341 -1.7067 -0.7862
13761TIP3   OH262697   2.157   2.730  15.795 -0.2697 -0.0200 -0.2744
13761TIP3    H162698   2.078   2.735  15.740 -1.2445 -1.8637  0.9081
13761TIP3    H262699   2.182   2.821  15.808 -1.9092  0.5815 -1.1108
13762TIP3   OH262700   4.325   4.833  16.308  0.0113 -0.5498  0.4795
13762TIP3    H162701   4.396   4.883  16.269  0.1581 -1.2692 -0.1954
13762TIP3    H262702   4.247   4.887  16.295  0.4246  0.2060  1.1557
13763TIP3   OH262703   2.427   3.470   2.510 -0.4079  0.0470  0.5888
13763TIP3    H162704   2.370   3.409   2.462 -1.8733  0.0358  2.2859
13763TIP3    H262705   2.387   3.477   2.596  1.3602  1.2218  1.3373
13764TIP3   OH262706   4.257   0.974  11.601 -0.3194 -0.2362  0.1134
13764TIP3    H162707   4.169   0.937  11.594 -0.4569  0.1475 -0.2641
13764TIP3    H262708   4.313   0.900  11.622 -0.8751 -0.3281  1.3458
13765TIP3   OH262709   4.481   3.391   2.718  0.4159 -0.1168  0.1399
13765TIP3    H162710   4.539   3.439   2.777 -1.3087  0.2767  1.5576
13765TIP3    H262711   4.397   3.436   2.725 -0.1860 -0.9250 -1.5707
13766TIP3   OH262712   4.186   6.500   0.532 -0.0621 -0.7885  0.5705
13766TIP3    H162713   4.252   6.440   0.497 -0.7905 -2.2397  1.6208
13766TIP3    H262714   4.216   6.518   0.622  0.8678  1.5194 -0.1570
13767TIP3   OH262715   4.448   0.520  15.180 -0.0926  0.7172 -0.2626
13767TIP3    H162716   4.417   0.537  15.269  1.6591  1.5527  0.2024
13767TIP3    H262717   4.543   0.530  15.185  0.0463  0.5131 -2.1765
13768TIP3   OH262718   0.694   0.267  15.831 -0.1712 -0.1929  0.5660
13768TIP3    H162719   0.790   0.269  15.839 -0.1477  1.5446 -0.0719
13768TIP3    H262720   0.663   0.310  15.911 -0.2924  3.1819 -1.2326
13769TIP3   OH262721   2.546   1.771   3.348  0.1502 -0.8926 -0.3105
13769TIP3    H162722   2.496   1.815   3.416  1.4418  2.7767 -1.6552
13769TIP3    H262723   2.636   1.770   3.382  0.6629  0.2643 -1.6061
13770TIP3   OH262724   3.325   1.917  16.862 -0.0354 -0.1267 -0.2376
13770TIP3    H162725   3.356   2.003  16.833 -1.3848  0.5880  0.3914
13770TIP3    H262726   3.335   1.919  16.957  0.3063 -0.8297 -0.2506
13771TIP3   OH262727   3.400   2.970   4.692  0.2514 -0.3750 -0.1999
13771TIP3    H162728   3.373   3.021   4.768 -1.6032  1.7221 -2.2156
13771TIP3    H262729   3.354   2.886   4.702 -0.7801  0.2646  0.4728
13772TIP3   OH262730   0.777   5.302   4.542  0.4865  0.2396 -0.9258
13772TIP3    H162731   0.836   5.316   4.468  0.6860  0.6255 -0.6928
13772TIP3    H262732   0.777   5.385   4.590 -1.2385  0.6551 -1.6264
13773TIP3   OH262733   4.123   6.524  11.315 -0.2751  0.6549 -0.1108
13773TIP3    H162734   4.109   6.604  11.265 -0.2365 -0.1626 -1.4546
13773TIP3    H262735   4.214   6.501  11.298  0.5508  1.7811  2.4657
13774TIP3   OH262736   0.201   1.718   6.349  0.1610 -0.6446 -0.0786
13774TIP3    H162737   0.274   1.658   6.365  1.5507  1.0210 -0.1159
13774TIP3    H262738   0.150   1.715   6.430  1.4839 -0.1384  0.7853
13775TIP3   OH262739   0.297   5.839  16.828 -0.8255 -0.1598 -0.1936
13775TIP3    H162740   0.237   5.874  16.763  0.1752  0.5481 -0.7393
13775TIP3    H262741   0.284   5.744  16.825 -1.5327 -0.0450 -0.6787
13776TIP3   OH262742   1.790   3.497  13.184 -0.1056 -0.4205  0.5492
13776TIP3    H162743   1.736   3.563  13.141 -3.4249  0.0760  5.0625
13776TIP3    H262744   1.818   3.539  13.266  2.1252 -2.8093  1.0787
13777TIP3   OH262745   1.596   1.892  15.496  0.2865 -0.2411 -0.1142
13777TIP3    H162746   1.690   1.871  15.492  0.2198 -0.7341  0.8507
13777TIP3    H262747   1.553   1.807  15.504 -0.2075  0.0354  0.1434
13778TIP3   OH262748   3.530   2.691   3.759 -0.1247  0.3343  0.1397
13778TIP3    H162749   3.479   2.771   3.742 -1.2696 -0.3331  0.4288
13778TIP3    H262750   3.488   2.624   3.707 -0.0505 -0.4155  1.0343
13779TIP3   OH262751   2.113   3.356   3.534  0.5274  0.0825 -0.2118
13779TIP3    H162752   2.171   3.279   3.536 -0.2029 -0.4812 -0.4966
13779TIP3    H262753   2.133   3.403   3.615  1.2292 -0.2223 -0.2047
13780TIP3   OH262754   2.467   3.559  13.199  0.5053 -0.1038  0.0906
13780TIP3    H162755   2.463   3.466  13.177 -0.1519 -0.3545  1.2622
13780TIP3    H262756   2.529   3.565  13.271  1.0041  0.4405 -0.3844
13781TIP3   OH262757   6.058   3.863  16.553 -0.1620 -0.7713  0.4652
13781TIP3    H162758   5.976   3.893  16.592 -0.1090 -0.2253  0.1507
13781TIP3    H262759   6.126   3.909  16.603 -0.1339  1.1054 -1.2599
13782TIP3   OH262760   1.397   1.375  14.616 -0.2181  0.8690  0.1800
13782TIP3    H162761   1.489   1.353  14.629 -0.4875  0.7037  1.8244
13782TIP3    H262762   1.349   1.310  14.667 -1.2310  1.4369 -0.0335
13783TIP3   OH262763   5.398   5.301   1.292 -0.1041  0.4818 -0.2166
13783TIP3    H162764   5.303   5.295   1.291 -0.1251  0.1318  2.5782
13783TIP3    H262765   5.427   5.224   1.341  1.5420  1.3660  0.2278
13784TIP3   OH262766   3.650   4.983   5.084 -0.4245  0.0328 -0.0715
13784TIP3    H162767   3.709   5.045   5.127  1.6834 -1.3327 -0.9460
13784TIP3    H262768   3.678   4.981   4.993 -0.3062 -2.3434 -0.0226
13785TIP3   OH262769   1.761   5.910  13.641  0.2091  0.0294  0.2381
13785TIP3    H162770   1.798   5.995  13.663  1.0472 -0.7011  1.7412
13785TIP3    H262771   1.669   5.928  13.623  0.1989  1.1481  1.3249
13786TIP3   OH262772   6.601   4.715   1.848 -0.4633 -0.1616 -0.1360
13786TIP3    H162773   6.610   4.788   1.910 -1.0466  0.4014 -0.7158
13786TIP3    H262774   6.685   4.669   1.854 -0.2810  0.2477  0.6166
13787TIP3   OH262775   2.448   0.390  13.360 -0.2063 -0.9343  0.6008
13787TIP3    H162776   2.470   0.334  13.286  0.3124 -0.2134  0.2089
13787TIP3    H262777   2.530   0.398  13.409  0.7168  2.4663 -1.3327
13788TIP3   OH262778   5.324   3.578   3.596  0.4045 -0.6729 -0.4188
13788TIP3    H162779   5.232   3.596   3.576  0.8197  0.4912 -1.3497
13788TIP3    H262780   5.369   3.591   3.512  1.2068 -2.7383 -0.3219
13789TIP3   OH262781   5.726   5.977   4.549 -0.0845 -0.0557 -0.3476
13789TIP3    H162782   5.679   6.011   4.473  1.7499  0.4064 -1.3135
13789TIP3    H262783   5.800   6.036   4.559 -0.1731 -0.2556  1.6732
13790TIP3   OH262784   4.887   1.953   2.835  0.3217  0.1829 -0.3743
13790TIP3    H162785   4.917   1.888   2.771 -0.4067 -1.3668  0.8109
13790TIP3    H262786   4.891   2.037   2.788  2.1610 -0.5841 -1.6394
13791TIP3   OH262787   0.802   1.570  14.478 -0.4357  1.0803  0.3966
13791TIP3    H162788   0.875   1.553  14.418 -0.5790  2.4311 -0.1685
13791TIP3    H262789   0.750   1.490  14.474  1.7476 -0.4806  1.8991
13792TIP3   OH262790   2.864   5.085   1.458  0.1091  0.3670  0.4172
13792TIP3    H162791   2.855   5.138   1.538 -0.0168 -2.5214  2.3858
13792TIP3    H262792   2.949   5.111   1.422 -0.2645  2.4034  0.9234
13793TIP3   OH262793   3.936   5.805  14.917 -0.4973 -0.4347 -0.6833
13793TIP3    H162794   3.994   5.834  14.988 -0.1586 -1.6102 -0.4633
13793TIP3    H262795   3.985   5.823  14.837 -0.4779  0.0086 -0.5721
13794TIP3   OH262796   0.001   5.472   2.682 -0.2551  0.5212  0.0553
13794TIP3    H162797  -0.045   5.531   2.623 -0.7996  2.0006  1.9223
13794TIP3    H262798   0.024   5.396   2.627 -0.1870  2.1224 -2.1875
13795TIP3   OH262799   1.787   2.052   0.207  0.0377  0.1065 -0.2329
13795TIP3    H162800   1.857   2.117   0.199 -0.3877  0.2721 -3.0855
13795TIP3    H262801   1.772   2.045   0.301 -0.2594  4.5626  0.1895
13796TIP3   OH262802   3.834   5.978  15.819 -1.1384 -0.3465  0.9975
13796TIP3    H162803   3.912   5.933  15.850 -0.7707  0.0709  0.6770
13796TIP3    H262804   3.761   5.930  15.859 -0.7779 -1.5672  0.2149
13797TIP3   OH262805   5.464   5.841  13.417  0.0867  0.2120 -0.1041
13797TIP3    H162806   5.418   5.922  13.441 -0.3629 -0.0807  0.0197
13797TIP3    H262807   5.487   5.853  13.325 -0.2451  0.3496 -0.1692
13798TIP3   OH262808   1.885   6.133  12.629  0.2076 -0.0384  1.0738
13798TIP3    H162809   1.903   6.208  12.686 -2.2000 -0.5932  2.6435
13798TIP3    H262810   1.795   6.107  12.651  0.1975 -1.9692 -1.0606
13799TIP3   OH262811   6.510   5.947   1.061 -0.3097  0.3135  1.1255
13799TIP3    H162812   6.604   5.934   1.072 -0.3015 -1.0418 -0.2353
13799TIP3    H262813   6.478   5.974   1.147  1.1159 -0.5893  1.9561
13800TIP3   OH262814   6.679   2.542   4.025 -0.1444 -0.5249 -0.0907
13800TIP3    H162815   6.765   2.500   4.030  0.8392  1.3243 -0.8012
13800TIP3    H262816   6.623   2.478   3.981  0.5069 -2.2689  1.5498
13801TIP3   OH262817   3.389   4.355  10.920  0.1600  0.2088 -0.1386
13801TIP3    H162818   3.341   4.295  10.976  0.3672 -0.3874 -0.6005
13801TIP3    H262819   3.330   4.370  10.845  0.6688 -0.4897 -0.6841
13802TIP3   OH262820   3.700   3.176  14.225  0.3136  0.6218 -0.2941
13802TIP3    H162821   3.690   3.095  14.275  0.7746  0.7152 -0.0546
13802TIP3    H262822   3.700   3.148  14.134  2.6968  0.1074 -0.1697
13803TIP3   OH262823   1.253   6.010   1.108  0.0978  0.6394 -0.4207
13803TIP3    H162824   1.329   6.057   1.075  0.8219 -0.1019  0.1671
13803TIP3    H262825   1.251   5.929   1.057  0.2048  0.2759  0.1434
13804TIP3   OH262826   5.152   5.638  12.019  0.1777 -0.5030  0.3487
13804TIP3    H162827   5.196   5.720  11.997  0.9381 -2.0586 -4.4536
13804TIP3    H262828   5.064   5.665  12.046  0.8321  1.9364  0.1899
13805TIP3   OH262829   5.134   6.538   2.244  0.0047  0.0878 -0.1302
13805TIP3    H162830   5.039   6.543   2.239  0.0176 -0.7038 -1.3000
13805TIP3    H262831   5.156   6.589   2.322 -1.3006  1.1709 -0.4317
13806TIP3   OH262832   5.549   6.186  11.512 -0.1973  0.0106  0.0266
13806TIP3    H162833   5.550   6.173  11.607 -0.3872  0.3961  0.0803
13806TIP3    H262834   5.459   6.167  11.487 -0.2578  0.3606 -0.0168
13807TIP3   OH262835   1.513   2.984  14.394 -0.0900  0.5602 -0.1452
13807TIP3    H162836   1.603   3.016  14.390  0.3315 -0.5855  0.2317
13807TIP3    H262837   1.513   2.904  14.342 -0.3573 -0.7209  1.7946
13808TIP3   OH262838   2.193   2.431  14.954 -0.3264 -0.1926 -0.1318
13808TIP3    H162839   2.219   2.448  14.863  0.4329  0.5278  0.2175
13808TIP3    H262840   2.131   2.501  14.974  0.2456  0.2188  0.2172
13809TIP3   OH262841   4.284   5.456  15.925 -0.4113 -0.2986 -0.2728
13809TIP3    H162842   4.276   5.524  15.859  0.9644  1.0003  0.8666
13809TIP3    H262843   4.244   5.379  15.885  2.0264 -0.0713 -3.3717
13810TIP3   OH262844   3.762   5.033   2.939 -0.6174  0.5210 -0.4665
13810TIP3    H162845   3.690   5.076   2.987 -1.4205 -0.5191 -0.7408
13810TIP3    H262846   3.719   4.969   2.883  0.6141 -1.0657  0.3596
13811TIP3   OH262847   0.918   5.389   5.531  0.0129 -0.5350  0.5821
13811TIP3    H162848   0.919   5.337   5.451 -0.6794  0.7437 -0.2901
13811TIP3    H262849   1.011   5.400   5.554  0.2840  0.2077 -0.8101
13812TIP3   OH262850   2.745   2.399  16.522  0.1034  0.0569 -0.1935
13812TIP3    H162851   2.768   2.402  16.429 -0.7578 -1.6798 -0.4729
13812TIP3    H262852   2.656   2.432  16.526 -0.1331 -0.5808 -0.0895
13813TIP3   OH262853   6.205   4.449  13.700  0.1232  0.0778  0.1005
13813TIP3    H162854   6.204   4.542  13.724  0.0715 -0.1367  0.9578
13813TIP3    H262855   6.253   4.446  13.618 -0.0183  0.8853 -0.0174
13814TIP3   OH262856   4.719   2.145   4.789 -0.0698 -0.2497 -0.3250
13814TIP3    H162857   4.770   2.084   4.736 -1.4904 -1.6679 -0.1146
13814TIP3    H262858   4.633   2.148   4.746 -1.7251 -2.5134  2.6057
13815TIP3   OH262859   0.992   3.561   3.544  0.4189 -0.1160  0.1863
13815TIP3    H162860   0.969   3.468   3.537 -0.1667  0.1490 -1.4343
13815TIP3    H262861   0.919   3.600   3.592  0.3837 -0.3663  0.3403
13816TIP3   OH262862   5.992   3.185   1.524  0.6730  0.4419  0.2401
13816TIP3    H162863   5.953   3.259   1.570  0.2373  0.1255  0.3808
13816TIP3    H262864   5.980   3.206   1.431  0.5520  0.5483  0.2795
13817TIP3   OH262865   5.101   2.624  11.994 -0.0724  0.0001 -0.1460
13817TIP3    H162866   5.061   2.606  11.908 -1.2775  0.4605  0.3028
13817TIP3    H262867   5.027   2.629  12.054  0.8635 -1.6137  1.1754
13818TIP3   OH262868   3.561   0.037   2.171  0.3066  0.2205  0.0803
13818TIP3    H162869   3.502   0.103   2.135  0.2337 -0.4415 -1.0242
13818TIP3    H262870   3.553  -0.038   2.112  3.2748  0.5949 -0.8904
13819TIP3   OH262871   5.054   4.203   1.669 -1.0594 -0.2848  0.2044
13819TIP3    H162872   5.080   4.232   1.581 -0.8992 -1.1323 -0.0323
13819TIP3    H262873   5.137   4.181   1.712 -1.2319 -1.0283  0.1519
13820TIP3   OH262874   0.350   5.638   5.227 -0.0820 -0.2674 -0.3165
13820TIP3    H162875   0.336   5.551   5.264 -0.3080 -1.0668 -2.2185
13820TIP3    H262876   0.431   5.668   5.267 -1.0149 -0.5132  1.8535
13821TIP3   OH262877   4.332   3.522  11.670  0.1740 -0.0761 -0.4538
13821TIP3    H162878   4.266   3.469  11.626 -1.7963  2.8726 -1.2526
13821TIP3    H262879   4.306   3.521  11.762  0.5883 -1.0875 -0.3442
13822TIP3   OH262880   2.738   6.079  10.681  0.5095 -0.0141 -0.1378
13822TIP3    H162881   2.821   6.032  10.688  0.9844  0.8376  0.0856
13822TIP3    H262882   2.720   6.108  10.771  0.4773  0.6451 -0.3535
13823TIP3   OH262883   5.417   0.898   3.974  0.6843  0.3913  0.0967
13823TIP3    H162884   5.330   0.931   3.952  0.7779  0.9711  0.5627
13823TIP3    H262885   5.462   0.892   3.890 -0.0188 -0.5425 -0.2209
13824TIP3   OH262886   1.294   1.631   5.325 -0.4458 -0.6118  0.1798
13824TIP3    H162887   1.386   1.648   5.347 -0.6039  0.2228  0.2181
13824TIP3    H262888   1.295   1.544   5.285  0.5639 -0.0469 -1.0943
13825TIP3   OH262889   5.238   2.697   5.316 -0.1486 -0.0411  0.2531
13825TIP3    H162890   5.244   2.645   5.395  1.1075 -0.0086  0.1934
13825TIP3    H262891   5.217   2.786   5.347 -2.2201 -0.5459  0.3550
13826TIP3   OH262892   6.590   5.579   1.495  0.5129 -0.2674  0.3570
13826TIP3    H162893   6.677   5.554   1.465  0.8203  0.3455  0.7329
13826TIP3    H262894   6.594   5.573   1.590  0.5606  1.0662  0.4554
13827TIP3   OH262895   5.896   2.856  16.038 -0.5334  0.3336  0.2853
13827TIP3    H162896   5.950   2.908  15.979 -0.2439  0.4753  0.6796
13827TIP3    H262897   5.860   2.787  15.982 -1.7763  1.5772 -0.4739
13828TIP3   OH262898   3.123   6.612   2.189 -0.0028 -0.2146  0.1132
13828TIP3    H162899   3.175   6.690   2.207 -0.0867  0.2366 -1.5256
13828TIP3    H262900   3.067   6.637   2.115 -0.7212 -1.5151  0.2021
13829TIP3   OH262901   0.749   4.444   3.405 -0.4198  0.5431  0.0303
13829TIP3    H162902   0.825   4.394   3.375  0.8278  1.4049  1.6875
13829TIP3    H262903   0.718   4.396   3.482 -1.2922  0.4412 -0.3810
13830TIP3   OH262904   1.777   3.240  16.806 -0.1619  0.0813 -0.0072
13830TIP3    H162905   1.692   3.231  16.849  0.2404 -0.1356  0.7475
13830TIP3    H262906   1.839   3.255  16.878  0.6523 -1.1891 -0.4264
13831TIP3   OH262907   4.037   5.479   5.688 -0.4242 -0.3047 -0.0912
13831TIP3    H162908   3.996   5.418   5.750 -1.5564 -1.0211 -1.4996
13831TIP3    H262909   4.130   5.455   5.688 -0.2633  0.3155  2.0072
13832TIP3   OH262910   2.861   6.156   4.944 -0.3575 -0.2507 -0.1443
13832TIP3    H162911   2.931   6.114   4.993 -0.9167  0.0974  0.9728
13832TIP3    H262912   2.791   6.090   4.941 -0.8690  0.2272  0.7846
13833TIP3   OH262913   3.490   2.284   5.440 -0.0106  0.1105  0.0922
13833TIP3    H162914   3.468   2.376   5.426  2.7589  0.6976 -0.7752
13833TIP3    H262915   3.406   2.238   5.433 -1.5544  2.6204  1.2841
13834TIP3   OH262916   2.056   0.220   5.050  0.8038 -0.4862  0.3868
13834TIP3    H162917   2.047   0.138   5.002  0.9936  0.3439 -1.1080
13834TIP3    H262918   1.967   0.245   5.073  0.7382 -1.0583  0.7603
13835TIP3   OH262919   0.764   5.775  11.238  0.1136  0.0698 -0.2956
13835TIP3    H162920   0.818   5.851  11.217  0.7927 -0.6406 -1.1146
13835TIP3    H262921   0.786   5.710  11.172  1.1159 -1.6294  1.6688
13836TIP3   OH262922   2.740   3.344   1.640 -0.2438  0.1831  0.8644
13836TIP3    H162923   2.762   3.362   1.732 -0.2550  0.1313  0.8771
13836TIP3    H262924   2.650   3.313   1.643 -0.3580  0.5107  0.7999
13837TIP3   OH262925   3.807   4.991  16.942  0.2620 -0.5318 -0.5554
13837TIP3    H162926   3.815   4.901  16.975 -2.1725 -0.2446  0.8910
13837TIP3    H262927   3.730   5.026  16.986 -0.5069  1.3433 -3.3262
13838TIP3   OH262928   6.146   6.603   3.039 -0.0490  0.7698 -0.1726
13838TIP3    H162929   6.128   6.539   3.107 -0.3449  1.0205 -0.0164
13838TIP3    H262930   6.104   6.684   3.069 -0.4281  0.8036 -0.7914
13839TIP3   OH262931   5.417   5.064  13.820 -0.0150  0.0800 -0.4465
13839TIP3    H162932   5.418   4.978  13.778  3.7356  0.0034 -0.3747
13839TIP3    H262933   5.423   5.044  13.914 -0.3125  0.4028 -0.3608
13840TIP3   OH262934   4.277   3.365  17.207  0.6008 -0.5227 -0.6684
13840TIP3    H162935   4.204   3.387  17.265  2.6705 -0.0546  1.8118
13840TIP3    H262936   4.279   3.270  17.205  0.0045 -0.5374 -0.6638
13841TIP3   OH262937   5.379   3.637   2.342 -0.3009 -0.6529  0.3909
13841TIP3    H162938   5.367   3.723   2.383  2.2673 -0.9318  1.8395
13841TIP3    H262939   5.364   3.574   2.413  3.2865 -1.1658  0.7995
13842TIP3   OH262940   6.068   3.018  15.291  0.4367  0.1029  0.3003
13842TIP3    H162941   6.119   2.941  15.266  0.6453  0.4023 -0.2107
13842TIP3    H262942   6.131   3.090  15.288 -0.0784  0.5256 -0.6397
13843TIP3   OH262943   2.786   0.347  17.147 -0.1730 -0.1062 -0.1803
13843TIP3    H162944   2.705   0.379  17.108 -0.5503  0.8468  1.3559
13843TIP3    H262945   2.849   0.418  17.133 -0.0549 -0.1546  0.1050
13844TIP3   OH262946   4.659   5.950  13.059 -0.0701 -0.0355  0.5710
13844TIP3    H162947   4.638   6.041  13.038 -0.0128 -0.3688 -0.9640
13844TIP3    H262948   4.711   5.919  12.985 -1.1430 -1.6941  0.4614
13845TIP3   OH262949   4.867   2.944  16.090  0.0119 -0.4864 -0.0670
13845TIP3    H162950   4.948   2.894  16.074  0.6370  0.0254  1.4528
13845TIP3    H262951   4.874   3.020  16.031  1.0384 -0.0023  0.6696
13846TIP3   OH262952   5.730   0.823  10.917 -0.0692 -0.1107 -0.3112
13846TIP3    H162953   5.699   0.909  10.944 -0.9526 -1.0239  1.6376
13846TIP3    H262954   5.657   0.785  10.868  0.4483  0.3739 -1.4691
13847TIP3   OH262955   0.481   4.311  12.491 -0.3287 -0.5630  0.0663
13847TIP3    H162956   0.420   4.352  12.552 -0.5937  0.3848 -0.8269
13847TIP3    H262957   0.552   4.279  12.546  0.9344  2.9288  0.6083
13848TIP3   OH262958   4.886   2.309   2.976  0.4641 -0.8735  0.0904
13848TIP3    H162959   4.799   2.347   2.985  0.8405 -0.3023  1.3893
13848TIP3    H262960   4.874   2.217   3.000  0.1301 -0.9132 -0.2160
13849TIP3   OH262961   1.565   0.751   5.075 -0.1961  0.3851  0.1633
13849TIP3    H162962   1.554   0.844   5.097  0.3818  0.1296  1.5938
13849TIP3    H262963   1.492   0.731   5.018 -1.2799  1.3089  1.2038
13850TIP3   OH262964   2.142   0.179  14.851  0.1157  0.2118  0.0428
13850TIP3    H162965   2.098   0.163  14.935 -1.3756  0.2422 -0.7159
13850TIP3    H262966   2.120   0.270  14.830 -0.3780 -0.1107 -0.8689
13851TIP3   OH262967   4.189   2.660  12.431  0.3777  0.2493  0.2289
13851TIP3    H162968   4.185   2.713  12.511  0.0987  1.1618 -0.3747
13851TIP3    H262969   4.187   2.725  12.360  0.6866 -0.5470 -0.5153
13852TIP3   OH262970   1.349   2.999  13.441 -0.4933 -0.0270 -0.1223
13852TIP3    H162971   1.392   2.996  13.356 -2.7803  1.4005 -1.4014
13852TIP3    H262972   1.338   3.092  13.459 -2.6224 -0.3269  0.3201
13853TIP3   OH262973   0.665   2.180  15.552  0.2999 -0.1829  0.4258
13853TIP3    H162974   0.729   2.169  15.623  1.3956 -1.7838 -0.7825
13853TIP3    H262975   0.584   2.203  15.597  0.7324 -2.1236  2.3057
13854TIP3   OH262976   4.016   1.971  12.271 -0.5959 -0.2066 -0.2753
13854TIP3    H162977   3.940   1.979  12.213  0.6186 -1.1798 -2.0409
13854TIP3    H262978   4.041   1.879  12.265  0.6313  0.0765  0.3919
13855TIP3   OH262979   0.244   3.286  12.724  0.0557 -0.0126  0.0699
13855TIP3    H162980   0.177   3.354  12.716 -0.9047 -0.9103  0.4159
13855TIP3    H262981   0.281   3.279  12.637  0.2297  1.0235  0.0514
13856TIP3   OH262982   0.724   6.759   3.676 -0.3925 -0.2609 -0.5219
13856TIP3    H162983   0.688   6.812   3.747 -0.1970 -2.1817  1.0424
13856TIP3    H262984   0.812   6.792   3.663 -0.1805 -0.3775  0.6260
13857TIP3   OH262985   2.174   3.482   4.748 -0.2269  0.2772  0.2208
13857TIP3    H162986   2.213   3.498   4.834  1.7408  2.2485 -0.9621
13857TIP3    H262987   2.084   3.513   4.756 -0.1734  0.0902  1.6635
13858TIP3   OH262988   2.929   2.550  12.775  0.3981  0.1096 -0.8325
13858TIP3    H162989   2.998   2.535  12.838  0.3833  0.7953 -0.6512
13858TIP3    H262990   2.935   2.643  12.753  0.1755 -0.0416 -1.5650
13859TIP3   OH262991   6.275   6.786   5.286  0.1742 -0.4590  0.2072
13859TIP3    H162992   6.256   6.703   5.329  0.4750 -1.4006 -1.4661
13859TIP3    H262993   6.189   6.822   5.264  0.0507 -0.3809  0.8001
13860TIP3   OH262994   4.744   1.828   1.781  0.0342 -0.0764 -0.5122
13860TIP3    H162995   4.714   1.918   1.782 -2.5406 -0.8954 -0.8320
13860TIP3    H262996   4.782   1.814   1.868  1.8495  1.7256 -0.9734
13861TIP3   OH262997   4.541   6.232  12.290 -0.5308 -0.4434  0.0424
13861TIP3    H162998   4.463   6.269  12.249  0.0121  0.1945 -0.4165
13861TIP3    H262999   4.523   6.138  12.294 -0.8706 -0.4282 -1.0371
13862TIP3   OH263000   1.839   1.418   0.430  0.0826 -0.4393  0.0746
13862TIP3    H163001   1.807   1.500   0.392  0.1790 -0.2799  0.3337
13862TIP3    H263002   1.862   1.364   0.355  2.2266  0.6455 -0.0875
13863TIP3   OH263003   2.853   3.883   1.597  0.1199 -0.0562 -0.1459
13863TIP3    H163004   2.808   3.803   1.623 -0.8579  1.0533  1.7529
13863TIP3    H263005   2.883   3.867   1.508  1.7467 -3.2691  0.9225
13864TIP3   OH263006   4.535   5.231   6.058 -0.0245 -0.0828  0.4259
13864TIP3    H163007   4.503   5.153   6.013 -0.0791 -0.2422  0.7463
13864TIP3    H263008   4.597   5.199   6.123 -0.2671  0.1165  0.7572
13865TIP3   OH263009   3.261   6.735  11.062  0.6358  0.2186 -0.9035
13865TIP3    H163010   3.264   6.719  10.968  0.4441 -0.1513 -0.8471
13865TIP3    H263011   3.351   6.759  11.085  0.3354  1.9834 -1.4626
13866TIP3   OH263012   6.372   3.068  13.671  0.7983  0.8722  0.3690
13866TIP3    H163013   6.327   3.050  13.588  0.5378 -0.6842  0.8529
13866TIP3    H263014   6.424   2.990  13.688  0.7207  1.1229  1.7776
13867TIP3   OH263015   0.379   5.548   2.553  0.4474  0.1010  0.5957
13867TIP3    H163016   0.393   5.556   2.458 -1.6378 -3.4156 -0.0747
13867TIP3    H263017   0.466   5.562   2.590  1.4243  0.9433 -1.8616
13868TIP3   OH263018   6.121   3.569  10.683  0.1784 -0.3910  0.1163
13868TIP3    H163019   6.073   3.502  10.635  1.6360 -0.7396 -0.8477
13868TIP3    H263020   6.137   3.638  10.619 -0.4404  0.4466  0.8509
13869TIP3   OH263021   3.176   2.980  16.005  0.2802  0.6603  0.0355
13869TIP3    H163022   3.155   2.900  15.957  1.9831  1.7147 -2.5503
13869TIP3    H263023   3.246   2.955  16.065 -2.3180 -0.8227  2.5545
13870TIP3   OH263024   1.957   6.693  14.784 -0.2722 -0.1460  0.0374
13870TIP3    H163025   2.041   6.723  14.750 -0.2833 -0.7793 -0.5447
13870TIP3    H263026   1.973   6.678  14.877 -0.2346  1.5358  0.3174
13871TIP3   OH263027   0.376   1.369   2.696 -0.3225  0.0627 -0.0964
13871TIP3    H163028   0.392   1.316   2.774 -0.3097  1.7512  1.0891
13871TIP3    H263029   0.303   1.325   2.651  0.8476 -1.9243 -0.1010
13872TIP3   OH263030   2.767   2.926  13.569 -0.0547  1.0275 -0.2565
13872TIP3    H163031   2.737   2.960  13.654 -0.0460  0.8839 -0.1955
13872TIP3    H263032   2.729   2.838  13.565  0.7142  0.6790  0.0078
13873TIP3   OH263033   0.384   6.305   5.192 -0.3103 -0.9929  0.6232
13873TIP3    H163034   0.368   6.359   5.270  2.6010 -0.3382  0.8334
13873TIP3    H263035   0.408   6.219   5.227  1.6201 -0.5258  0.5160
13874TIP3   OH263036   6.621   0.025   6.008  0.5499 -0.1070  0.2947
13874TIP3    H163037   6.568  -0.020   5.942  1.1250 -3.0840  1.8014
13874TIP3    H263038   6.710   0.025   5.971  0.7886 -1.3705  0.8577
13875TIP3   OH263039   3.080   3.974  14.038  0.2373  0.6360 -0.1516
13875TIP3    H163040   2.994   3.977  13.995  0.8053 -3.0377 -1.7344
13875TIP3    H263041   3.060   3.955  14.130 -0.6985  1.6458 -0.1338
13876TIP3   OH263042   5.256   2.160   1.942 -0.0878  0.0006 -0.0325
13876TIP3    H163043   5.350   2.180   1.946  0.2281 -1.1903 -1.1975
13876TIP3    H263044   5.251   2.066   1.953 -1.2260  0.1521  0.8423
13877TIP3   OH263045   2.664   5.169   2.757 -0.9596  0.7566 -0.8178
13877TIP3    H163046   2.741   5.157   2.702  0.5927 -0.0260  1.4598
13877TIP3    H263047   2.598   5.111   2.719  0.3270 -0.3276 -1.4495
13878TIP3   OH263048   2.904   4.821  15.695 -0.2718  0.5583 -0.2236
13878TIP3    H163049   2.817   4.784  15.682 -0.3683  1.1630 -1.3392
13878TIP3    H263050   2.904   4.853  15.786 -0.7723 -0.5874  0.1859
13879TIP3   OH263051   6.325   1.379   1.153 -0.5698  0.2135  0.0043
13879TIP3    H163052   6.371   1.453   1.194 -0.5806  0.8382 -1.0911
13879TIP3    H263053   6.233   1.398   1.168 -0.7487  2.2225 -3.2229
13880TIP3   OH263054   1.399   6.206   4.003  0.2242  0.2727 -0.0860
13880TIP3    H163055   1.385   6.167   3.917 -0.9650  2.0317 -0.7049
13880TIP3    H263056   1.457   6.280   3.987  1.6192 -0.5472  0.9405
13881TIP3   OH263057   4.602   1.899   0.839  0.0381 -0.6794  0.6119
13881TIP3    H163058   4.634   1.964   0.777  0.7839 -1.5829  0.0246
13881TIP3    H263059   4.681   1.852   0.867 -0.2784 -0.2345  2.3072
13882TIP3   OH263060   3.899   6.206  11.851  0.2506  0.0805  0.1086
13882TIP3    H163061   3.811   6.210  11.813 -0.2807  0.1279  1.3149
13882TIP3    H263062   3.918   6.296  11.878 -0.1744 -0.2910  1.6942
13883TIP3   OH263063   4.145   2.482  14.171  0.1916  0.4775  0.5985
13883TIP3    H163064   4.234   2.515  14.161  1.1035 -1.6775  1.2241
13883TIP3    H263065   4.113   2.522  14.252  0.9428  0.5483  0.8649
13884TIP3   OH263066   5.072   6.099   4.134 -0.3315  0.6739 -0.2102
13884TIP3    H163067   5.025   6.172   4.173 -1.2306 -0.1290  0.2367
13884TIP3    H263068   5.144   6.139   4.086 -0.8628  1.8521 -0.0342
13885TIP3   OH263069   4.812   5.914  11.106  0.3776 -0.2315 -0.6335
13885TIP3    H163070   4.759   5.912  11.027 -0.9542  0.8333  0.1977
13885TIP3    H263071   4.759   5.870  11.172  0.4056  1.0724  0.2768
13886TIP3   OH263072   4.672   6.782  16.682  0.7130 -0.0873 -0.7960
13886TIP3    H163073   4.725   6.802  16.759 -0.2883 -0.4412 -0.0080
13886TIP3    H263074   4.727   6.724  16.630  1.6270  0.6241 -0.6396
13887TIP3   OH263075   4.322   3.392  13.415  0.5017 -0.6292 -0.8052
13887TIP3    H163076   4.266   3.469  13.422 -0.2307 -1.1089 -1.2497
13887TIP3    H263077   4.313   3.348  13.499  0.3171 -0.6348 -0.8275
13888TIP3   OH263078   2.715   4.749   4.348  0.6658  0.0516 -0.2191
13888TIP3    H163079   2.723   4.833   4.392  2.6611 -0.6212  0.7640
13888TIP3    H263080   2.621   4.734   4.341  0.3074  1.8692  0.5399
13889TIP3   OH263081   5.369   6.698   6.189  0.7572  0.0251  0.3002
13889TIP3    H163082   5.328   6.760   6.129  0.6457  0.0758  0.4267
13889TIP3    H263083   5.334   6.613   6.165  0.6629  0.0540  0.3339
13890TIP3   OH263084   1.666   3.743   3.089 -0.4100  0.1849  0.5563
13890TIP3    H163085   1.751   3.746   3.133 -0.4871 -0.0225  0.7209
13890TIP3    H263086   1.664   3.821   3.034 -0.0780  0.1442  0.4882
13891TIP3   OH263087   6.546   6.119   6.372 -0.6002 -0.2153  0.4072
13891TIP3    H163088   6.640   6.124   6.356 -0.6479 -1.7198 -0.4685
13891TIP3    H263089   6.510   6.196   6.329  0.0315 -0.6953 -1.0097
13892TIP3   OH263090   1.629   6.079  13.828 -0.8592  0.1139  0.0063
13892TIP3    H163091   1.672   6.149  13.779 -1.9770  0.0258 -1.1480
13892TIP3    H263092   1.646   6.099  13.920  1.6333  0.0683 -0.4046
13893TIP3   OH263093   0.854   1.789   4.804  0.3522  0.6015 -0.5388
13893TIP3    H163094   0.777   1.734   4.819 -0.2823  1.8308  0.7416
13893TIP3    H263095   0.843   1.863   4.863  2.2223  1.0990 -0.7946
13894TIP3   OH263096   5.445   0.339   0.147  0.2047 -0.3722 -0.7044
13894TIP3    H163097   5.380   0.295   0.092  0.5217  0.2238 -1.5667
13894TIP3    H263098   5.529   0.308   0.113  0.4149  0.4634 -0.9592
13895TIP3   OH263099   4.496   2.769  11.617 -0.7865  0.4508 -0.0612
13895TIP3    H163100   4.443   2.728  11.686 -0.2802 -1.0796 -0.5533
13895TIP3    H263101   4.561   2.821  11.665 -1.0305  0.1644  0.5951
13896TIP3   OH263102   1.106   0.701   1.041 -0.2023 -0.5336  0.5349
13896TIP3    H163103   1.131   0.626   1.095  1.4333 -0.0646  0.4376
13896TIP3    H263104   1.188   0.745   1.021 -1.0453  0.6827 -0.3118
13897TIP3   OH263105   6.390   4.600   1.679  0.2649 -0.4461 -0.6325
13897TIP3    H163106   6.428   4.570   1.597  1.6593 -0.6842  0.0680
13897TIP3    H263107   6.465   4.634   1.728 -0.4594 -0.8127  0.7517
13898TIP3   OH263108   2.608   2.640  12.707  0.2417  0.6951 -0.1449
13898TIP3    H163109   2.630   2.649  12.800  0.8490  0.5247 -0.2737
13898TIP3    H263110   2.691   2.652  12.661 -0.1343  1.1958 -0.6915
13899TIP3   OH263111   2.602   4.411  11.100  0.0115 -0.0663 -0.2711
13899TIP3    H163112   2.552   4.489  11.077 -0.3987 -0.6405 -1.3552
13899TIP3    H263113   2.693   4.440  11.101 -0.0844  0.2902 -1.2515
13900TIP3   OH263114   1.172   5.897  12.415  0.6141 -0.0513 -0.5704
13900TIP3    H163115   1.191   5.866  12.504  2.0333  0.9348 -0.5165
13900TIP3    H263116   1.216   5.835  12.358  1.1546  0.2877 -0.5291
13901TIP3   OH263117   2.189   2.441  16.336  0.1749 -0.3912 -0.4904
13901TIP3    H163118   2.268   2.493  16.344  0.8469 -1.3942 -0.4691
13901TIP3    H263119   2.144   2.477  16.259  0.8684 -0.0912 -0.7603
13902TIP3   OH263120   3.079   6.634  16.935  0.3836 -0.6296 -0.1073
13902TIP3    H163121   2.993   6.603  16.906  0.0262  1.4409 -1.3845
13902TIP3    H263122   3.127   6.652  16.854  1.2605  0.2358  0.5822
13903TIP3   OH263123   6.629   4.217   0.075  0.6986 -0.7253 -0.1190
13903TIP3    H163124   6.668   4.278   0.137  0.4161 -0.4073 -0.2524
13903TIP3    H263125   6.539   4.249   0.063  0.7896 -0.7038 -0.7821
13904TIP3   OH263126   0.345   5.351   0.081 -0.2075  0.0359 -0.6655
13904TIP3    H163127   0.364   5.390  -0.004 -0.2800 -1.2704 -1.3030
13904TIP3    H263128   0.252   5.328   0.076 -0.0447 -0.6683 -0.4996
13905TIP3   OH263129   1.105   0.376   5.173  0.3561  0.3859  0.2624
13905TIP3    H163130   1.044   0.447   5.154 -0.8666 -1.2231 -2.1055
13905TIP3    H263131   1.192   0.416   5.163 -0.2849  2.1131  1.3663
13906TIP3   OH263132   1.700   3.382   1.249  0.2081 -0.4218 -0.3655
13906TIP3    H163133   1.696   3.424   1.335  0.9121 -1.8305  0.3771
13906TIP3    H263134   1.665   3.447   1.189  0.2312  0.8015  0.9125
13907TIP3   OH263135   6.430   5.051   2.999 -0.2887  0.4503  0.1768
13907TIP3    H163136   6.442   5.032   3.092 -0.7748 -0.0010  0.1487
13907TIP3    H263137   6.519   5.059   2.964 -0.0845 -1.0880  0.3328
13908TIP3   OH263138   5.672   4.685  12.859 -0.0883 -0.2374 -0.0727
13908TIP3    H163139   5.744   4.622  12.861 -0.3814 -0.5903 -0.4896
13908TIP3    H263140   5.701   4.757  12.914 -0.1476 -1.1643  1.1799
13909TIP3   OH263141   0.048   2.580   1.724 -1.2761  0.2968 -0.0983
13909TIP3    H163142   0.024   2.666   1.690 -1.2292  0.4994  0.3694
13909TIP3    H263143   0.091   2.599   1.808 -1.0265 -0.1646 -0.1206
13910TIP3   OH263144   4.422   2.999   1.214 -0.3219  0.7510 -0.3500
13910TIP3    H163145   4.517   3.002   1.225 -0.1059  0.5043 -1.9181
13910TIP3    H263146   4.401   2.905   1.216 -0.6845  0.8479  1.0260
13911TIP3   OH263147   0.335   1.604   5.361 -0.3230  0.0088  0.4591
13911TIP3    H163148   0.293   1.646   5.436 -0.9539  0.9700 -0.4059
13911TIP3    H263149   0.277   1.532   5.338  0.4826 -1.0233  1.6180
13912TIP3   OH263150   2.100   3.643   4.368  0.2933 -0.4620 -0.3422
13912TIP3    H163151   2.142   3.692   4.439 -0.0702 -0.6483 -0.0024
13912TIP3    H263152   2.007   3.664   4.375  0.2093 -0.7651 -0.5435
13913TIP3   OH263153   3.559   2.757   1.624 -0.7692  0.1881 -0.0930
13913TIP3    H163154   3.551   2.774   1.718  1.5019 -1.3534  0.4272
13913TIP3    H263155   3.613   2.828   1.591 -0.8224  0.2387 -0.0704
13914TIP3   OH263156   4.419   3.746   4.753 -0.5473 -0.2920 -0.1284
13914TIP3    H163157   4.395   3.779   4.666 -2.4507  0.1314  0.5419
13914TIP3    H263158   4.405   3.651   4.747  0.1816 -0.3804 -0.5397
13915TIP3   OH263159   3.297   3.990  14.778  0.0837  0.5275 -0.1675
13915TIP3    H163160   3.349   3.918  14.813  0.8235 -0.1778 -2.6271
13915TIP3    H263161   3.254   3.954  14.701 -3.5581  1.3187  1.3948
13916TIP3   OH263162   3.000   0.172   4.103 -0.1422  0.3592  0.2350
13916TIP3    H163163   2.906   0.180   4.090 -0.1554 -0.9423 -0.4538
13916TIP3    H263164   3.033   0.262   4.094 -1.3524  0.8780  0.8869
13917TIP3   OH263165   4.908   2.449   6.130  0.4633 -0.2340  0.6669
13917TIP3    H163166   4.885   2.435   6.038  0.5244 -0.4350  0.6816
13917TIP3    H263167   4.992   2.495   6.128  0.7974 -0.8307  0.6242
13918TIP3   OH263168   2.333   1.237  13.964 -0.3814  0.2980 -0.1890
13918TIP3    H163169   2.355   1.330  13.950 -2.7489  0.8712 -0.2780
13918TIP3    H263170   2.293   1.209  13.881  2.3879 -1.4758 -0.9913
13919TIP3   OH263171   5.398   2.323   5.284 -0.2979  0.3718 -0.6140
13919TIP3    H163172   5.310   2.317   5.321  0.0568 -0.9866  0.0444
13919TIP3    H263173   5.387   2.301   5.192 -0.5118 -0.7767 -0.3216
13920TIP3   OH263174   1.459   5.739  15.085  0.1449 -0.1869  0.1049
13920TIP3    H163175   1.453   5.672  15.016 -1.1697  0.3757 -0.3429
13920TIP3    H263176   1.432   5.694  15.165  0.8561 -0.6161  0.1090
13921TIP3   OH263177   4.476   6.663   5.672 -0.3145 -0.0679 -0.1574
13921TIP3    H163178   4.388   6.625   5.671 -0.1779 -0.3875 -0.1643
13921TIP3    H263179   4.462   6.757   5.665 -0.7231 -0.0133  1.2189
13922TIP3   OH263180   6.322   2.361   3.710  0.2937  0.4397 -0.2415
13922TIP3    H163181   6.379   2.318   3.646 -0.5086 -0.7259 -0.1972
13922TIP3    H263182   6.376   2.367   3.789  0.0704 -1.5791  0.1104
13923TIP3   OH263183   3.276   5.032  13.412 -0.2012  0.1921  0.5113
13923TIP3    H163184   3.197   5.006  13.459 -1.3287 -0.6459 -1.7415
13923TIP3    H263185   3.331   5.074  13.477 -2.0068 -0.2962  2.3853
13924TIP3   OH263186   6.246   1.168   3.481  0.0500  0.4336  0.4349
13924TIP3    H163187   6.257   1.221   3.559  1.8742  2.7023 -1.2738
13924TIP3    H263188   6.318   1.105   3.484  1.0572  1.5363 -0.1663
13925TIP3   OH263189   0.870   2.741   4.350  0.2848 -0.3708  0.2555
13925TIP3    H163190   0.862   2.785   4.265  0.7703 -1.0599 -0.1556
13925TIP3    H263191   0.837   2.804   4.413  0.2238  0.2761 -0.4146
13926TIP3   OH263192   6.530   4.633   1.152 -0.0280 -0.2568 -0.0146
13926TIP3    H163193   6.545   4.571   1.224 -0.0474  0.4215  0.5791
13926TIP3    H263194   6.557   4.718   1.188 -1.4536  0.3302 -0.3013
13927TIP3   OH263195   2.225   3.880  13.596 -0.0583  0.4521 -0.3802
13927TIP3    H163196   2.146   3.892  13.649  0.4427 -2.1852  1.0260
13927TIP3    H263197   2.198   3.822  13.525  0.2963  0.6405 -0.6732
13928TIP3   OH263198   0.138   5.476  14.860  0.8927 -0.3109 -0.1486
13928TIP3    H163199   0.120   5.552  14.914  1.1038  0.3342 -0.9815
13928TIP3    H263200   0.232   5.480  14.842  0.6437  0.0823 -1.4517
13929TIP3   OH263201   1.367   3.897  15.245  0.7054  0.1760 -0.0979
13929TIP3    H163202   1.332   3.823  15.197  0.9265  0.9181 -1.4375
13929TIP3    H263203   1.432   3.936  15.185  0.9459  1.1487  0.7730
13930TIP3   OH263204   3.797   2.642  15.603 -0.0870  0.3364 -0.0797
13930TIP3    H163205   3.706   2.636  15.576 -0.7038  0.7053  1.8079
13930TIP3    H263206   3.847   2.613  15.527 -1.7731  0.0909 -1.1212
13931TIP3   OH263207   6.500   6.426   1.192 -0.0726  0.4052  0.0722
13931TIP3    H163208   6.408   6.444   1.174  0.3877  2.5075 -0.2312
13931TIP3    H263209   6.546   6.507   1.170  2.1736 -1.3703 -2.0232
13932TIP3   OH263210   1.735   5.531  12.340 -0.1513  0.2246 -0.3283
13932TIP3    H163211   1.732   5.609  12.396 -1.2091  1.3036 -1.8288
13932TIP3    H263212   1.737   5.566  12.251  0.2923 -1.4669 -1.0019
13933TIP3   OH263213   6.362   3.546   3.502  0.0934 -0.5065 -0.2649
13933TIP3    H163214   6.408   3.464   3.516  1.0165 -0.2881 -1.8849
13933TIP3    H263215   6.382   3.599   3.580  1.2410 -1.0135 -0.2210
13934TIP3   OH263216   1.660   2.982   2.671 -0.2997 -0.5703  0.3613
13934TIP3    H163217   1.573   2.950   2.647 -2.9903  4.0269  3.1497
13934TIP3    H263218   1.671   2.957   2.763 -0.2512  1.8725  1.0574
13935TIP3   OH263219   4.028   5.852  11.368  0.1835  0.7275  0.7166
13935TIP3    H163220   4.035   5.773  11.421 -0.1226 -0.0254 -0.3404
13935TIP3    H263221   4.029   5.820  11.278 -0.9922  1.8444  0.2976
13936TIP3   OH263222   4.538   5.415  16.629 -0.0074  0.1894  0.1921
13936TIP3    H163223   4.450   5.379  16.614 -0.2206  1.1172 -0.8556
13936TIP3    H263224   4.579   5.411  16.543  0.2021  1.8351  0.2204
13937TIP3   OH263225   5.920   3.217   4.767 -0.1345 -0.0673  0.3880
13937TIP3    H163226   5.892   3.200   4.677 -0.5793  0.4966  0.4121
13937TIP3    H263227   6.011   3.189   4.770 -0.2051 -0.3579 -0.1629
13938TIP3   OH263228   1.785   1.641   0.277 -0.0204  0.4178 -0.2812
13938TIP3    H163229   1.774   1.584   0.201 -0.0982 -0.1562  0.1545
13938TIP3    H263230   1.821   1.723   0.241 -0.1331  0.1823 -0.9403
13939TIP3   OH263231   0.136   1.723   1.157  0.2467  0.7473  0.2323
13939TIP3    H163232   0.077   1.673   1.100 -0.5360 -0.3171  1.9528
13939TIP3    H263233   0.129   1.813   1.124  0.2448  0.0623 -1.7074
13940TIP3   OH263234   5.231   5.286   0.943  0.3248 -0.1752  0.4658
13940TIP3    H163235   5.202   5.286   0.851  2.4733  2.6375 -0.3172
13940TIP3    H263236   5.202   5.202   0.978 -1.0992 -1.0454 -2.6258
13941TIP3   OH263237   0.122   6.358   2.226  0.6299 -0.1510  0.3251
13941TIP3    H163238   0.124   6.449   2.256 -0.4379  0.9114 -2.5909
13941TIP3    H263239   0.042   6.321   2.264  0.1613  0.6590  0.1322
13942TIP3   OH263240   4.013   4.068   5.220  0.4412 -0.4168 -0.6425
13942TIP3    H163241   3.945   4.118   5.176  0.0897  0.8199  1.2646
13942TIP3    H263242   4.022   4.109   5.306  0.6075 -3.1946  0.7393
13943TIP3   OH263243   0.969   3.806  11.932 -0.4152  0.6769  0.0746
13943TIP3    H163244   1.014   3.722  11.939 -0.3018  0.7876  0.7150
13943TIP3    H263245   0.969   3.826  11.839  0.9090  0.6966  0.0641
13944TIP3   OH263246   1.217   1.465   4.633  0.4283 -0.0448 -0.0008
13944TIP3    H163247   1.247   1.550   4.599  0.4254  0.1977  0.5992
13944TIP3    H263248   1.216   1.476   4.728  2.1929 -1.2918  0.1901
13945TIP3   OH263249   1.349   3.516   1.956  0.0317  0.0626  0.0739
13945TIP3    H163250   1.404   3.535   2.032 -0.8072  2.0004  0.2258
13945TIP3    H263251   1.312   3.601   1.932  0.3452 -0.5146 -2.5524
13946TIP3   OH263252   6.162   4.193  15.274  0.1385  0.2139  0.2895
13946TIP3    H163253   6.171   4.144  15.192  1.3758  1.2697 -0.2246
13946TIP3    H263254   6.249   4.190  15.313 -0.2384  0.4617  1.1398
13947TIP3   OH263255   6.725   3.007   5.579 -0.5122  0.4052 -0.9870
13947TIP3    H163256   6.787   2.976   5.514  0.6133 -0.3931  0.4417
13947TIP3    H263257   6.778   3.025   5.656 -1.8694  1.0078 -0.1693
13948TIP3   OH263258   1.460   1.118  16.909  0.5820  0.2126 -0.1638
13948TIP3    H163259   1.457   1.182  16.838  1.4258 -0.5427 -0.8826
13948TIP3    H263260   1.391   1.055  16.887  0.1561  0.5294  0.2332
13949TIP3   OH263261   3.713   4.646   3.375  0.2124  0.1766 -0.0029
13949TIP3    H163262   3.795   4.686   3.405 -0.8264  1.3494  1.3333
13949TIP3    H263263   3.664   4.628   3.455 -0.6936 -0.8931 -0.7686
13950TIP3   OH263264   1.994   0.067   0.083 -0.2092  0.3104  0.1674
13950TIP3    H163265   1.912   0.041   0.124 -1.0222  1.2072 -0.8458
13950TIP3    H263266   2.045  -0.014   0.076 -0.4982 -0.0338  1.9249
13951TIP3   OH263267   4.112   4.746  17.044  0.1749 -0.0988 -0.3928
13951TIP3    H163268   4.153   4.776  16.963  1.3443  1.1073  0.6210
13951TIP3    H263269   4.111   4.650  17.037  0.8887 -0.0309 -1.5261
13952TIP3   OH263270   5.881   2.713   0.366 -0.1740 -0.0328  0.3090
13952TIP3    H163271   5.864   2.792   0.416  0.6148  0.0623  0.4328
13952TIP3    H263272   5.976   2.713   0.352  0.2464 -2.3926  2.7213
13953TIP3   OH263273   1.453   4.855  11.883  0.1075  0.5153 -0.2859
13953TIP3    H163274   1.361   4.856  11.911 -0.1947  1.0479 -1.2428
13953TIP3    H263275   1.471   4.763  11.866  0.1838  0.2348  1.2599
13954TIP3   OH263276   4.604   3.810  14.950  0.5426 -0.2489  0.5634
13954TIP3    H163277   4.523   3.851  14.920  1.6737  0.8439 -1.0611
13954TIP3    H263278   4.582   3.718  14.962 -1.1094  0.1645  0.8171
13955TIP3   OH263279   5.886   2.680  11.075 -0.0736 -0.1285  0.2232
13955TIP3    H163280   5.968   2.639  11.101  1.0954  0.2045 -2.6548
13955TIP3    H263281   5.908   2.773  11.065 -0.9975  0.0905  0.1609
13956TIP3   OH263282   1.806   0.187   2.822 -0.4410  0.1922  0.5216
13956TIP3    H163283   1.789   0.276   2.792 -1.4621 -0.2199 -0.1579
13956TIP3    H263284   1.900   0.173   2.804 -0.1830  1.2690  1.0326
13957TIP3   OH263285   2.721   5.564   3.177  0.6405  0.6462  0.2578
13957TIP3    H163286   2.677   5.646   3.157  0.3948  0.1033 -1.5452
13957TIP3    H263287   2.809   5.590   3.206  0.2871  1.5696  0.4969
13958TIP3   OH263288   5.592   2.795  12.890 -0.5308 -0.5474  0.1850
13958TIP3    H163289   5.666   2.774  12.948  1.1681 -0.9543 -2.0414
13958TIP3    H263290   5.585   2.719  12.832 -0.9971  0.6068 -1.3205
13959TIP3   OH263291   6.769   3.700  13.909 -0.1504 -0.1033 -0.5116
13959TIP3    H163292   6.799   3.628  13.964 -0.3045 -0.4743 -0.9128
13959TIP3    H263293   6.713   3.752  13.967  0.8368  0.3059  0.0900
13960TIP3   OH263294   3.653   4.030  17.120 -0.3552  0.1429  0.3481
13960TIP3    H163295   3.621   4.096  17.181 -0.6726  1.7334 -1.4689
13960TIP3    H263296   3.583   3.965  17.115  0.0870 -0.5150  2.3867
13961TIP3   OH263297   4.911   5.746   5.072 -0.4828  0.3430  0.0610
13961TIP3    H163298   5.000   5.781   5.082 -1.1282  1.5429  2.1365
13961TIP3    H263299   4.859   5.821   5.043 -1.5947  0.8436  3.0635
13962TIP3   OH263300   3.870   5.016   0.159 -0.0566 -0.0399 -0.2667
13962TIP3    H163301   3.794   4.989   0.209 -0.3475 -0.0608 -0.7191
13962TIP3    H263302   3.885   4.945   0.096 -0.3056  0.4392 -0.8804
13963TIP3   OH263303   1.539   3.476   4.230 -0.2005  0.0161  0.8690
13963TIP3    H163304   1.507   3.566   4.241 -1.5441 -0.7050  3.0866
13963TIP3    H263305   1.470   3.433   4.180 -0.5142 -0.3261  1.6009
13964TIP3   OH263306   4.900   2.270   3.655  0.6763  0.1697 -0.0242
13964TIP3    H163307   4.985   2.227   3.652  0.1295 -0.9648  0.5707
13964TIP3    H263308   4.842   2.207   3.698 -0.7601  0.4395 -1.5028
13965TIP3   OH263309   6.092   0.865   3.961  0.5038 -0.4289 -0.2043
13965TIP3    H163310   6.099   0.866   3.865 -0.6347 -0.7323 -0.2946
13965TIP3    H263311   6.063   0.953   3.984  0.5634 -0.4225 -0.1525
13966TIP3   OH263312   4.963   1.362  12.118 -0.4657 -0.3436 -0.4010
13966TIP3    H163313   4.952   1.451  12.152  2.2590  0.0790 -0.4363
13966TIP3    H263314   5.035   1.326  12.170 -0.6161 -2.0237 -1.3390
13967TIP3   OH263315   3.134   1.947   2.434 -0.3456  0.0995  0.6541
13967TIP3    H163316   3.164   1.924   2.522  1.0347 -1.3359 -0.1517
13967TIP3    H263317   3.066   1.883   2.414  2.4020 -2.4670 -0.9776
13968TIP3   OH263318   5.412   2.981  12.974 -0.1785  0.0354 -0.1721
13968TIP3    H163319   5.381   3.047  12.913 -0.2170 -1.5320 -1.8882
13968TIP3    H263320   5.492   2.947  12.934 -0.8100 -1.7910  0.0755
13969TIP3   OH263321   3.426   3.959   2.116 -0.3163 -0.0141  0.4830
13969TIP3    H163322   3.482   3.926   2.186 -0.2992 -1.4517 -0.2020
13969TIP3    H263323   3.420   4.053   2.133  1.6075  0.0213  1.0550
13970TIP3   OH263324   5.957   1.411   3.199 -0.5865  0.1154 -0.4488
13970TIP3    H163325   5.940   1.387   3.290  1.6900 -0.3104 -0.0937
13970TIP3    H263326   5.892   1.478   3.179 -1.0447  0.2905  1.5240
13971TIP3   OH263327   0.771   3.097   3.296 -0.0488 -0.4176  0.2652
13971TIP3    H163328   0.788   3.117   3.204  0.1533  0.9555  0.6000
13971TIP3    H263329   0.704   3.028   3.293  2.4194 -2.8956 -0.9929
13972TIP3   OH263330   4.677   5.712  11.561  0.1748 -0.3064 -0.0960
13972TIP3    H163331   4.630   5.705  11.644 -0.8162  0.7543 -0.5458
13972TIP3    H263332   4.681   5.806  11.544  1.3881 -0.4606 -0.6827
13973TIP3   OH263333   4.333   6.340  12.162 -0.5011 -0.3544  0.0174
13973TIP3    H163334   4.251   6.326  12.209 -0.8210 -0.6139 -0.6204
13973TIP3    H263335   4.326   6.429  12.128 -1.5994 -1.2556 -2.1777
13974TIP3   OH263336   0.186   1.110   4.129 -0.6848  0.1302 -0.1842
13974TIP3    H163337   0.182   1.076   4.040  0.5508  0.1383 -0.2545
13974TIP3    H263338   0.135   1.047   4.181 -1.5261  0.2027 -0.9044
13975TIP3   OH263339   2.431   3.864  11.628 -0.2347 -0.2225  0.2473
13975TIP3    H163340   2.401   3.875  11.718 -0.5896 -0.1246  0.1180
13975TIP3    H263341   2.490   3.938  11.614 -0.3421 -0.1212  0.3299
13976TIP3   OH263342   4.256   5.049   0.469  0.8364 -0.0352  0.2733
13976TIP3    H163343   4.205   4.995   0.408 -0.6493 -0.9437  2.2630
13976TIP3    H263344   4.344   5.011   0.467  0.6789 -0.3614 -0.9347
13977TIP3   OH263345   5.670   4.412   6.281  0.1205 -0.5810 -0.1251
13977TIP3    H163346   5.746   4.414   6.223  0.1468 -0.2442 -0.0807
13977TIP3    H263347   5.659   4.320   6.304  0.4759 -0.6386 -0.1851
13978TIP3   OH263348   2.024   3.811   5.452  0.3003  0.1336 -0.5680
13978TIP3    H163349   1.940   3.843   5.486  0.5703 -1.7564  2.0385
13978TIP3    H263350   2.001   3.733   5.402  0.5573 -1.0654  1.1219
13979TIP3   OH263351   5.093   5.874  13.930  0.6511 -0.1570  0.0605
13979TIP3    H163352   5.050   5.959  13.938 -0.6088 -0.9920  2.7564
13979TIP3    H263353   5.186   5.892  13.941  0.4147  0.8765  0.3567
13980TIP3   OH263354   1.267   5.536  11.757  0.1180 -0.5746  0.5932
13980TIP3    H163355   1.231   5.512  11.843  1.3744  0.1147  1.3200
13980TIP3    H263356   1.339   5.475  11.744 -1.7732 -2.5067 -1.2378
13981TIP3   OH263357   2.420   5.964   0.711  0.3641 -0.1063 -0.5288
13981TIP3    H163358   2.412   6.015   0.630  0.5256 -0.4122 -0.7415
13981TIP3    H263359   2.338   5.980   0.758  0.1294 -0.1761 -0.9044
13982TIP3   OH263360   0.162   3.946  14.668  0.4138 -0.0915  0.2437
13982TIP3    H163361   0.142   3.957  14.575 -0.2993  2.1679  0.6438
13982TIP3    H263362   0.210   3.863  14.672 -1.6165 -1.4385 -1.8103
13983TIP3   OH263363   0.654   4.386  15.698  0.0237  0.7507 -0.2372
13983TIP3    H163364   0.579   4.328  15.717 -1.2849  2.8383  1.2325
13983TIP3    H263365   0.710   4.378  15.775  1.1864 -0.5694 -1.2017
13984TIP3   OH263366   4.579   3.134   0.409  0.0022 -0.0989 -0.4056
13984TIP3    H163367   4.592   3.044   0.441  1.7752  0.2473 -0.1280
13984TIP3    H263368   4.526   3.123   0.329 -1.5619 -1.2156  0.7495
13985TIP3   OH263369   0.364   2.970  13.726 -0.0174  0.7033 -0.0925
13985TIP3    H163370   0.312   3.017  13.660 -0.3001 -0.6809 -0.8707
13985TIP3    H263371   0.389   2.888  13.683 -1.4833 -0.9137  2.0090
13986TIP3   OH263372   3.302   5.531   1.815 -0.5147 -0.2928 -0.4019
13986TIP3    H163373   3.242   5.457   1.803 -0.2266 -0.7813  1.0572
13986TIP3    H263374   3.245   5.608   1.812 -1.0534 -0.6808 -0.2935
13987TIP3   OH263375   5.265   6.648  11.242  0.3370 -0.7242  0.9877
13987TIP3    H163376   5.261   6.723  11.300  0.1283  1.4184 -1.6984
13987TIP3    H263377   5.348   6.657  11.196 -0.6413 -0.9633 -0.8554
13988TIP3   OH263378   4.212   4.597   0.949 -0.6696  0.1096  0.4332
13988TIP3    H163379   4.213   4.692   0.956  0.2963  0.2683 -1.3289
13988TIP3    H263380   4.193   4.566   1.037 -1.5737  1.9453  0.9022
13989TIP3   OH263381   6.715   4.139   1.852 -0.2686  0.0408 -0.2200
13989TIP3    H163382   6.748   4.062   1.806 -1.2502  0.4963 -1.6863
13989TIP3    H263383   6.621   4.142   1.831 -0.0621  2.1824 -0.9742
13990TIP3   OH263384   4.434   3.045  13.267 -0.2234  0.1098  0.0226
13990TIP3    H163385   4.473   2.996  13.195  0.0287 -1.2167  1.0410
13990TIP3    H263386   4.356   3.087  13.229  1.1716  1.2976 -1.5618
13991TIP3   OH263387   0.284   2.108   5.203  0.2338 -0.2196 -0.0282
13991TIP3    H163388   0.351   2.104   5.272 -0.3387 -1.2449  0.4780
13991TIP3    H263389   0.331   2.138   5.126  0.9670  0.5739  0.7085
13992TIP3   OH263390   4.798   4.943  14.609 -0.7024  0.1558 -0.5158
13992TIP3    H163391   4.766   4.867  14.659 -0.2381 -0.0316 -0.4929
13992TIP3    H263392   4.719   4.989  14.581 -1.0040 -0.6250 -0.9781
13993TIP3   OH263393   1.004   1.878  10.735  0.2846 -0.4809 -0.0240
13993TIP3    H163394   1.060   1.948  10.769  1.1019  0.3311 -2.9520
13993TIP3    H263395   1.039   1.799  10.776  1.1196  0.4610  1.1602
13994TIP3   OH263396   2.831   1.952  16.012  0.0383  0.0370 -0.4611
13994TIP3    H163397   2.737   1.953  16.025 -0.2615 -1.5956 -2.2960
13994TIP3    H263398   2.863   1.880  16.067  0.1138  0.1655 -0.3370
13995TIP3   OH263399   1.809   4.136   6.795  0.1343 -0.2919 -0.3435
13995TIP3    H163400   1.850   4.196   6.733 -1.4433  1.0662 -0.1136
13995TIP3    H263401   1.750   4.083   6.742  1.1943 -1.3549 -0.4778
13996TIP3   OH263402   4.970   1.628  12.205  0.5898  0.6191 -0.5261
13996TIP3    H163403   4.954   1.637  12.299 -1.2474 -0.5004 -0.7006
13996TIP3    H263404   5.062   1.651  12.194  1.0498 -0.0299  1.6638
13997TIP3   OH263405   2.125   1.995   4.406 -0.1907 -0.1977  0.2866
13997TIP3    H163406   2.184   1.949   4.346  0.2823  0.7704 -0.0111
13997TIP3    H263407   2.063   2.039   4.348 -0.9643 -0.8937  0.5872
13998TIP3   OH263408   0.189   3.729   2.798 -0.1384 -0.6886 -0.1102
13998TIP3    H163409   0.165   3.809   2.752  0.7292  0.6372  1.6710
13998TIP3    H263410   0.257   3.689   2.744  1.7112  1.4567  0.5662
13999TIP3   OH263411   6.597   4.374  15.200  0.4445  0.0962 -0.3980
13999TIP3    H163412   6.641   4.393  15.283 -3.6911 -0.2478  2.0001
13999TIP3    H263413   6.550   4.455  15.179  0.1999 -0.3437 -1.5932
14000TIP3   OH263414   3.525   3.921  16.655  0.4887  0.2563 -0.3400
14000TIP3    H163415   3.463   3.867  16.607  0.5311  0.1982 -0.3278
14000TIP3    H263416   3.601   3.929  16.597  0.0422  1.2165 -0.8057
14001TIP3   OH263417   2.235   2.911  11.323  0.3296 -0.2197 -0.2489
14001TIP3    H163418   2.305   2.871  11.271 -1.0882 -1.1032 -1.5520
14001TIP3    H263419   2.199   2.979  11.266  0.2614  0.3662  0.4907
14002TIP3   OH263420   6.115   0.540   2.139 -0.9275  0.2441  0.0175
14002TIP3    H163421   6.181   0.599   2.176 -0.5582  0.5402 -1.0987
14002TIP3    H263422   6.103   0.571   2.049 -1.1905 -1.0030 -0.3783
14003TIP3   OH263423   2.325   4.288   1.505  0.0806 -0.2186  0.4424
14003TIP3    H163424   2.406   4.253   1.541  0.9140  0.4809 -0.7194
14003TIP3    H263425   2.261   4.217   1.516  0.9598 -0.9382  0.9475
14004TIP3   OH263426   2.724   2.454  13.720 -0.3453 -0.1119 -0.4121
14004TIP3    H163427   2.637   2.466  13.681 -0.9832 -0.1352  0.9727
14004TIP3    H263428   2.782   2.443  13.645 -1.2098  1.9156 -1.4221
14005TIP3   OH263429   0.520   6.352  12.872 -0.5188 -0.2198  0.0798
14005TIP3    H163430   0.611   6.381  12.876 -1.1013  1.7122 -0.4947
14005TIP3    H263431   0.517   6.275  12.929  1.4055 -0.1455  0.3014
14006TIP3   OH263432   1.730   3.968  12.320  0.1335 -0.2897  0.2983
14006TIP3    H163433   1.716   3.885  12.275 -1.0043  0.1718 -0.2126
14006TIP3    H263434   1.773   4.024  12.256 -0.7668  0.1060  0.0269
14007TIP3   OH263435   4.271   3.636   6.068  0.0149  0.2216 -0.0773
14007TIP3    H163436   4.207   3.578   6.027  0.9237  0.2617 -1.5867
14007TIP3    H263437   4.288   3.596   6.154 -0.7126 -0.7548 -0.3806
14008TIP3   OH263438   6.534   3.306  16.319 -0.3134 -0.0380  0.4194
14008TIP3    H163439   6.494   3.278  16.236 -0.5617 -1.7151  1.0754
14008TIP3    H263440   6.593   3.376  16.294 -1.0201  0.0633 -1.0727
14009TIP3   OH263441   4.844   1.534   5.062 -0.5788  0.1634  0.0692
14009TIP3    H163442   4.849   1.441   5.044 -2.4101  0.0441  0.1217
14009TIP3    H263443   4.936   1.561   5.075 -0.0040 -1.5061 -0.4214
14010TIP3   OH263444   5.295   1.656   0.546 -0.4482 -0.2648 -0.3742
14010TIP3    H163445   5.254   1.707   0.476  0.9468  0.9399 -0.3534
14010TIP3    H263446   5.246   1.574   0.548 -1.0691  0.0270 -2.1862
14011TIP3   OH263447   0.309   3.046   0.188 -0.0615 -0.0898  0.0473
14011TIP3    H163448   0.318   3.090   0.272 -1.9440  0.5592 -0.0687
14011TIP3    H263449   0.326   2.954   0.207  1.8997  0.3653  0.6692
14012TIP3   OH263450   5.736   4.575   4.135  0.5558 -0.3539  0.7390
14012TIP3    H163451   5.731   4.564   4.040 -0.9987  0.6232  0.6888
14012TIP3    H263452   5.809   4.519   4.162  2.0553  0.5770 -1.2164
14013TIP3   OH263453   2.917   3.361  13.876  0.2507 -0.0581  0.2809
14013TIP3    H163454   2.859   3.286  13.890 -0.8717  1.2105  2.7291
14013TIP3    H263455   2.891   3.395  13.791 -1.5768 -0.4171  0.6707
14014TIP3   OH263456   4.814   1.487  17.093  0.7911  0.3337  0.2303
14014TIP3    H163457   4.833   1.549  17.164 -0.2143 -0.5356  1.2786
14014TIP3    H263458   4.742   1.434  17.127  0.7604 -0.5394 -1.1867
14015TIP3   OH263459   2.701   5.837  14.485  0.4068 -0.2119 -0.2773
14015TIP3    H163460   2.691   5.812  14.577  1.3763  0.9753  0.1576
14015TIP3    H263461   2.792   5.866  14.478  0.0772  0.5504 -1.4038
14016TIP3   OH263462   3.673   5.979   5.815  0.1521  0.1307 -0.4498
14016TIP3    H163463   3.689   6.053   5.757  1.8908  0.8034  0.8496
14016TIP3    H263464   3.598   6.006   5.869 -1.0161 -0.2185 -1.8688
14017TIP3   OH263465   3.575   1.448   3.669 -0.4662 -0.1108  0.0057
14017TIP3    H163466   3.574   1.400   3.752  0.5616  0.0022  0.0813
14017TIP3    H263467   3.546   1.383   3.605 -0.6862 -0.3686  0.3591
14018TIP3   OH263468   1.698   3.343   4.791 -0.0115  0.1481  0.0174
14018TIP3    H163469   1.734   3.260   4.759  0.9556  0.6705 -0.2748
14018TIP3    H263470   1.628   3.317   4.851  1.6455 -0.9143  1.5400
14019TIP3   OH263471   4.370   3.557   4.123  0.0589  0.1344 -0.0581
14019TIP3    H163472   4.277   3.567   4.101  0.2614  0.0168 -1.0261
14019TIP3    H263473   4.373   3.554   4.218 -0.7870  1.5690  0.0267
14020TIP3   OH263474   1.332   4.860  14.460  0.4195  0.1291  0.1346
14020TIP3    H163475   1.352   4.904  14.378 -0.9582 -1.0743 -0.8982
14020TIP3    H263476   1.254   4.904  14.493  0.7934  0.4147  0.6444
14021TIP3   OH263477   6.699   4.086  14.817  0.1767 -0.0208  0.0187
14021TIP3    H163478   6.640   4.013  14.796 -0.9643  0.0763  2.6196
14021TIP3    H263479   6.784   4.059  14.783 -0.9638 -0.9992 -2.1494
14022TIP3   OH263480   3.405   1.554   3.399  0.4014 -0.1375 -0.0510
14022TIP3    H163481   3.490   1.598   3.412  0.3007  0.5133 -1.4387
14022TIP3    H263482   3.384   1.516   3.484  2.4773 -0.9966  0.1203
14023TIP3   OH263483   5.741   2.736   5.043  0.1792  0.2840 -0.1160
14023TIP3    H163484   5.758   2.780   5.126 -1.0201 -0.1701  0.3906
14023TIP3    H263485   5.821   2.747   4.993  0.3350  1.9888  0.4692
14024TIP3   OH263486   4.155   0.220  11.288  0.0237  0.1792  0.3473
14024TIP3    H163487   4.224   0.162  11.257  1.1390  2.0998 -0.8870
14024TIP3    H263488   4.194   0.264  11.364 -0.8040 -0.6660  1.2663
14025TIP3   OH263489   2.662   0.595  11.236  0.0368 -0.4580 -0.1070
14025TIP3    H163490   2.618   0.590  11.321 -1.6477  1.6212 -0.8281
14025TIP3    H263491   2.687   0.687  11.226  1.2526 -0.8962 -1.3663
14026TIP3   OH263492   5.294   4.265   5.014 -0.4525  0.4477 -0.1691
14026TIP3    H163493   5.265   4.261   5.105  1.9671  1.6296  0.6861
14026TIP3    H263494   5.250   4.342   4.978 -0.4589  0.6878  0.3495
14027TIP3   OH263495   3.218   0.218   1.839  0.8717 -0.6757  0.1073
14027TIP3    H163496   3.201   0.221   1.745 -0.2440 -2.4214  0.2389
14027TIP3    H263497   3.142   0.173   1.876  0.6218  1.2480  2.0190
14028TIP3   OH263498   3.376   6.678   3.760 -0.0803 -0.1233 -0.1215
14028TIP3    H163499   3.352   6.616   3.691 -1.6667 -0.4302  0.6873
14028TIP3    H263500   3.293   6.699   3.803  0.9632 -0.4434  2.1075
14029TIP3   OH263501   3.368   4.257  12.514 -0.1039 -0.3681 -0.5421
14029TIP3    H163502   3.415   4.299  12.586 -2.0013  0.3934  0.2819
14029TIP3    H263503   3.304   4.322  12.485 -0.2845 -1.1698 -2.0161
14030TIP3   OH263504   6.348   2.472   2.223 -0.0770 -0.8508  0.0057
14030TIP3    H163505   6.305   2.491   2.306  0.6085  0.8692 -0.0108
14030TIP3    H263506   6.441   2.490   2.239  0.1046 -0.8292 -1.0288
14031TIP3   OH263507   6.169   5.993  16.923 -0.1917  0.0728 -0.0923
14031TIP3    H163508   6.185   5.937  16.999 -0.1090  0.6393  0.3143
14031TIP3    H263509   6.256   6.021  16.895 -0.1983 -0.3974 -0.6062
14032TIP3   OH263510   3.273   0.779   3.010 -0.0374  0.0412  0.1978
14032TIP3    H163511   3.244   0.708   3.067 -0.4446 -0.3323 -0.4713
14032TIP3    H263512   3.194   0.808   2.965  0.6441 -1.3107 -1.9929
14033TIP3   OH263513   4.494   0.208  15.962  0.3708 -0.0351  0.2573
14033TIP3    H163514   4.580   0.245  15.944 -0.1592 -0.7638 -4.3168
14033TIP3    H263515   4.433   0.276  15.932 -0.7306  0.4767  3.4463
14034TIP3   OH263516   5.406   0.974  15.957  0.4947  0.4677 -0.0159
14034TIP3    H163517   5.363   1.030  15.892  2.2929  0.9889 -0.7823
14034TIP3    H263518   5.445   1.035  16.020  1.5577  0.0647 -0.2723
14035TIP3   OH263519   2.792   4.695   3.176  0.0203 -0.1696  0.1082
14035TIP3    H163520   2.822   4.607   3.156  1.2078  0.3088 -0.2585
14035TIP3    H263521   2.752   4.727   3.095  2.7729  0.9207 -0.8725
14036TIP3   OH263522   4.764   4.940   3.863  0.2335  0.0573 -0.3451
14036TIP3    H163523   4.718   4.856   3.858  0.1214  0.2563 -2.8701
14036TIP3    H263524   4.715   4.998   3.805  1.5872  1.2665 -0.3026
14037TIP3   OH263525   3.261   4.532   6.393  0.0242 -0.3924 -0.8008
14037TIP3    H163526   3.292   4.444   6.418 -0.6981 -0.5361 -0.4097
14037TIP3    H263527   3.167   4.529   6.408  0.0586  0.5922 -0.4011
14038TIP3   OH263528   0.719   6.425   2.263  0.2378 -0.2874  0.2327
14038TIP3    H163529   0.722   6.366   2.338  0.3269  0.0106  0.4612
14038TIP3    H263530   0.636   6.405   2.220  0.7388 -1.3361 -0.2972
14039TIP3   OH263531   1.668   3.562   0.181  0.4391 -0.4148  0.5778
14039TIP3    H163532   1.651   3.499   0.250 -1.1055  0.6841  1.2155
14039TIP3    H263533   1.743   3.526   0.133  0.1438 -2.2553  1.4857
14040TIP3   OH263534   6.772   1.277  13.212 -0.8184 -0.5804 -0.2474
14040TIP3    H163535   6.732   1.191  13.204 -2.0618 -0.3081  2.6654
14040TIP3    H263536   6.702   1.339  13.190 -0.4835 -0.2451 -0.3858
14041TIP3   OH263537   2.712   0.211   4.035  0.1893 -0.1192 -0.8987
14041TIP3    H163538   2.678   0.163   3.959 -3.0176  1.4738 -0.5523
14041TIP3    H263539   2.651   0.191   4.105  0.7525  1.7550  0.1608
14042TIP3   OH263540   1.855   2.078  14.148 -0.3351  0.5507 -0.4188
14042TIP3    H163541   1.930   2.034  14.188 -0.1246  1.6870  0.4684
14042TIP3    H263542   1.843   2.034  14.064  0.4622 -0.5515  0.0338
14043TIP3   OH263543   3.765   1.164   3.777 -0.1612  0.0140  0.1714
14043TIP3    H163544   3.723   1.247   3.801 -1.0357  0.0087 -1.2943
14043TIP3    H263545   3.806   1.180   3.692  0.3387 -0.8247  0.2437
14044TIP3   OH263546   0.927   6.226  13.860  0.1951  0.7373 -0.0304
14044TIP3    H163547   0.882   6.299  13.903  0.5271  1.0853 -0.2752
14044TIP3    H263548   1.018   6.254  13.856  0.1458  0.7526 -1.0744
14045TIP3   OH263549   0.734   1.167  16.854 -0.5389  0.2790  0.0291
14045TIP3    H163550   0.779   1.250  16.868  0.8892 -0.3516 -0.7719
14045TIP3    H263551   0.779   1.126  16.780 -0.1800 -1.9414  1.4055
14046TIP3   OH263552   2.772   1.663   3.122  0.2798 -0.2076  0.5571
14046TIP3    H163553   2.740   1.737   3.070  1.5710 -0.7464 -1.0548
14046TIP3    H263554   2.694   1.609   3.136 -0.6209  1.2827  1.5041
14047TIP3   OH263555   6.399   4.360   4.332  0.0659  0.1191 -0.1109
14047TIP3    H163556   6.480   4.344   4.283  0.1853 -1.2691  0.5111
14047TIP3    H263557   6.407   4.303   4.409 -2.3444 -1.4082 -0.9668
14048TIP3   OH263558   0.508   4.960   1.889 -0.5421  0.2961 -0.2625
14048TIP3    H163559   0.419   4.933   1.867 -0.2215 -2.1303  1.2163
14048TIP3    H263560   0.562   4.885   1.867  1.3655  2.2087 -2.3322
14049TIP3   OH263561   2.686   4.913   0.372  0.1808  0.4234  0.0792
14049TIP3    H163562   2.683   4.821   0.347  0.1783  0.4915 -0.1806
14049TIP3    H263563   2.663   4.960   0.291  2.6778  0.7539 -0.4726
14050TIP3   OH263564   0.550   2.153   4.255 -0.0537  0.0458 -1.0305
14050TIP3    H163565   0.497   2.223   4.293  1.1432  0.4325 -0.0223
14050TIP3    H263566   0.544   2.082   4.319  1.3112  0.4000 -0.4958
14051TIP3   OH263567   1.125   4.289  12.256 -0.5384  0.0232  0.1340
14051TIP3    H163568   1.038   4.314  12.224 -0.4435 -0.3746 -0.4225
14051TIP3    H263569   1.182   4.293  12.180  0.0558  0.8223  0.6070
14052TIP3   OH263570   1.154   5.837  11.401 -0.3443 -0.0995 -0.5399
14052TIP3    H163571   1.140   5.756  11.451 -0.7367  0.5415  0.3983
14052TIP3    H263572   1.066   5.871  11.386 -0.0626  1.4641  1.2456
14053TIP3   OH263573   2.902   2.703  10.788  0.3588 -0.5371  0.1104
14053TIP3    H163574   2.929   2.722  10.697 -0.4740 -1.2299 -0.2845
14053TIP3    H263575   2.984   2.681  10.832  0.7756 -0.1959 -0.4690
14054TIP3   OH263576   1.332   2.152   2.579 -0.1777  0.0463 -0.2270
14054TIP3    H163577   1.280   2.143   2.659 -0.9062  0.7104 -0.6232
14054TIP3    H263578   1.423   2.143   2.608 -0.5020 -1.1252  0.4707
14055TIP3   OH263579   2.555   2.450  14.119 -0.1531 -0.1652 -0.3518
14055TIP3    H163580   2.485   2.482  14.063  0.5930  2.0028 -0.0806
14055TIP3    H263581   2.513   2.387  14.178 -1.7972  0.8560 -0.4244
14056TIP3   OH263582   2.967   5.646   3.352  0.2678  0.2844 -0.5202
14056TIP3    H163583   3.008   5.637   3.438  1.5990  0.2672 -1.1364
14056TIP3    H263584   2.976   5.739   3.330  0.8400  0.1089 -1.0638
14057TIP3   OH263585   2.387   1.189  13.665 -0.1066 -0.8078 -0.3147
14057TIP3    H163586   2.358   1.126  13.599  2.3942 -0.6041 -1.6540
14057TIP3    H263587   2.479   1.167  13.680 -0.1336  0.3623  1.7319
14058TIP3   OH263588   4.497   3.944  15.474  0.2671 -0.0651 -0.3640
14058TIP3    H163589   4.471   3.964  15.384  0.6759  1.1793 -0.2081
14058TIP3    H263590   4.415   3.925  15.519  0.0945 -1.0608 -1.0827
14059TIP3   OH263591   4.011   5.817   6.349  0.3447 -0.3863 -0.3800
14059TIP3    H163592   4.040   5.727   6.364  0.5048 -0.1641  0.6755
14059TIP3    H263593   4.039   5.837   6.260  1.1122 -1.0737 -0.2963
14060TIP3   OH263594   0.495   0.337   2.542 -0.3257 -0.3369 -0.3277
14060TIP3    H163595   0.552   0.366   2.613  1.4777 -0.6756 -1.5953
14060TIP3    H263596   0.501   0.241   2.543  2.5205 -0.2797 -3.0827
14061TIP3   OH263597   0.567   3.110   2.883 -0.1139  0.3361  0.8351
14061TIP3    H163598   0.511   3.048   2.932 -0.5696  1.4326  1.7215
14061TIP3    H263599   0.555   3.193   2.929  1.0495  0.9221  0.0678
14062TIP3   OH263600   6.364   2.916   0.803 -0.2384  0.3727 -0.0486
14062TIP3    H163601   6.324   2.975   0.740 -1.8566 -0.4506  0.1794
14062TIP3    H263602   6.341   2.952   0.889 -0.3708 -0.0177  0.0831
14063TIP3   OH263603   3.883   4.317   0.583 -0.2576 -0.5750  0.6309
14063TIP3    H163604   3.812   4.351   0.638 -0.5429 -1.6123  0.9155
14063TIP3    H263605   3.930   4.256   0.640  0.2906 -0.6075  0.1483
14064TIP3   OH263606   4.967   6.503   4.697 -0.0311  0.2557 -0.4276
14064TIP3    H163607   4.918   6.585   4.687  1.2653  1.2767  1.3151
14064TIP3    H263608   4.901   6.434   4.684 -1.7029  1.5891  0.7439
14065TIP3   OH263609   3.289   1.688  11.557 -0.8563  0.4398 -0.1024
14065TIP3    H163610   3.226   1.756  11.580  2.1664  2.9336  1.1860
14065TIP3    H263611   3.316   1.650  11.640  0.6457  0.6214 -0.4919
14066TIP3   OH263612   4.288   4.310  10.700  0.4670  0.5274 -0.2141
14066TIP3    H163613   4.362   4.339  10.646 -0.2512  4.4336  0.7786
14066TIP3    H263614   4.216   4.299  10.638  0.6003  1.4764 -0.5491
14067TIP3   OH263615   2.350   1.627   4.258  0.4149  0.1271  0.3444
14067TIP3    H163616   2.441   1.653   4.273  0.9323 -1.3126 -0.2167
14067TIP3    H263617   2.346   1.606   4.165 -0.2913 -0.5747  0.5272
14068TIP3   OH263618   1.688   1.283  14.670  0.4850 -0.1658  0.3434
14068TIP3    H163619   1.768   1.236  14.695  0.9919 -0.2264 -1.3142
14068TIP3    H263620   1.713   1.375  14.672  0.4894 -0.1643  0.2487
14069TIP3   OH263621   3.954   4.914   5.050 -0.0325 -0.1293  0.5172
14069TIP3    H163622   3.909   4.861   5.116  0.1976 -2.4101 -1.1045
14069TIP3    H263623   3.981   4.852   4.983  1.3650  1.8798 -0.8616
14070TIP3   OH263624   0.388   0.042   5.891 -0.0832 -0.5077 -0.0941
14070TIP3    H163625   0.432   0.121   5.922  0.3400 -0.9186  0.3481
14070TIP3    H263626   0.441   0.013   5.816  1.3134 -1.8742  1.3819
14071TIP3   OH263627   4.657   3.805  14.367  0.0597 -0.4999  0.6097
14071TIP3    H163628   4.609   3.846  14.295  0.1023 -1.7236 -0.1307
14071TIP3    H263629   4.745   3.842  14.362 -0.7950  1.8102  2.0181
14072TIP3   OH263630   4.105   6.019  12.803 -0.0019 -0.0960 -0.2220
14072TIP3    H163631   4.147   6.027  12.717 -1.1414 -1.9972 -0.9899
14072TIP3    H263632   4.178   6.021  12.865  0.9462  0.0410 -1.3188
14073TIP3   OH263633   0.597   1.368   4.833 -0.0725  0.6515 -0.0878
14073TIP3    H163634   0.506   1.344   4.852  0.1807  0.0722  0.4015
14073TIP3    H263635   0.619   1.316   4.755 -0.1148  0.6819 -0.1202
14074TIP3   OH263636   3.912   5.845  12.877 -0.4123  0.0458  0.4997
14074TIP3    H163637   3.900   5.831  12.971 -0.7707 -0.1487  0.4267
14074TIP3    H263638   3.991   5.898  12.871  0.7219 -1.5984  0.8089
14075TIP3   OH263639   0.999   1.613  15.909  0.1496 -0.2680  0.2373
14075TIP3    H163640   1.070   1.549  15.899  0.7122  0.6541 -1.7479
14075TIP3    H263641   0.995   1.658  15.825 -3.0184 -0.5250  0.1993
14076TIP3   OH263642   6.220   5.553   1.450  0.1804  0.1567 -0.1201
14076TIP3    H163643   6.261   5.558   1.537 -1.3524  0.0241  0.6313
14076TIP3    H263644   6.222   5.643   1.418  0.3054  0.2919  0.2642
14077TIP3   OH263645   5.021   4.589   0.642  0.1024  0.4665 -0.0996
14077TIP3    H163646   4.971   4.544   0.574  1.1897  0.4863 -0.9291
14077TIP3    H263647   4.999   4.682   0.631 -0.2344  0.3992  0.0043
14078TIP3   OH263648   5.826   0.548   2.712 -0.3734 -0.1896 -0.5789
14078TIP3    H163649   5.864   0.579   2.795  0.3228 -0.3647 -0.8285
14078TIP3    H263650   5.787   0.626   2.673  0.3360  0.1364 -0.6444
14079TIP3   OH263651   3.648   5.908   1.715  0.0773  0.2142  0.6215
14079TIP3    H163652   3.553   5.916   1.712  0.1433  0.6861 -0.5231
14079TIP3    H263653   3.680   5.985   1.668  0.9969 -0.4593  0.1264
14080TIP3   OH263654   4.993   3.471   1.736 -0.0746  0.2639  0.4788
14080TIP3    H163655   4.983   3.458   1.641 -1.7533 -1.3970  0.8645
14080TIP3    H263656   4.957   3.559   1.751  0.9904  0.9019 -0.5143
14081TIP3   OH263657   2.977   1.431  14.381  0.6449  0.5895  0.5377
14081TIP3    H163658   3.013   1.347  14.408 -1.2040  0.3097  2.2538
14081TIP3    H263659   2.948   1.417  14.291 -0.8676 -1.0301  1.2483
14082TIP3   OH263660   5.566   3.002  14.182  0.4027 -0.1367 -0.0242
14082TIP3    H163661   5.614   3.083  14.166  1.3573 -1.0514 -1.9636
14082TIP3    H263662   5.504   2.996  14.109  0.4413 -1.2093  0.0133
14083TIP3   OH263663   2.989   2.029   2.896  0.1633  0.0053 -0.0155
14083TIP3    H163664   2.925   2.036   2.825  0.3032  0.6127 -0.0830
14083TIP3    H263665   3.074   2.030   2.852  0.3576  3.1037  0.3157
14084TIP3   OH263666   5.756   0.671  14.533 -0.1886 -0.0542  0.2026
14084TIP3    H163667   5.770   0.602  14.598 -0.6660  0.2028  0.5813
14084TIP3    H263668   5.810   0.645  14.459  0.3308 -0.3680  0.6892
14085TIP3   OH263669   0.669   6.509   0.179  0.1214  0.5094 -0.0766
14085TIP3    H163670   0.764   6.509   0.169  0.0597  2.0910 -0.8317
14085TIP3    H263671   0.636   6.480   0.094 -0.0788  0.6359 -0.0431
14086TIP3   OH263672   5.550   3.339   3.699 -0.2867  0.1160  0.2683
14086TIP3    H163673   5.631   3.290   3.683 -0.4863 -0.9079  2.1292
14086TIP3    H263674   5.573   3.430   3.681  1.0386 -0.2671 -0.0725
14087TIP3   OH263675   1.421   1.298   0.659 -0.2538  0.0298 -0.0626
14087TIP3    H163676   1.412   1.219   0.713  0.4557 -0.7263 -1.0385
14087TIP3    H263677   1.346   1.294   0.599 -2.7182  2.3651  2.6891
14088TIP3   OH263678   2.282   5.850  11.992  1.0174 -0.9532  0.0095
14088TIP3    H163679   2.303   5.943  12.004  2.3559 -1.1334 -0.8266
14088TIP3    H263680   2.338   5.822  11.919  0.6655 -2.4261  0.2873
14089TIP3   OH263681   4.894   6.147  10.870 -0.5120 -0.3596  0.2387
14089TIP3    H163682   4.928   6.222  10.820 -1.0055 -0.2040  0.1363
14089TIP3    H263683   4.972   6.105  10.905 -0.3117  1.1032  1.6058
14090TIP3   OH263684   3.955   5.702   2.494  0.1139 -0.1808 -0.2559
14090TIP3    H163685   4.044   5.687   2.526 -0.5659 -2.4292  0.6581
14090TIP3    H263686   3.911   5.618   2.505 -1.5681  0.3654 -2.5590
14091TIP3   OH263687   1.437   1.644   0.104 -0.0159  0.0227  0.5883
14091TIP3    H163688   1.400   1.598   0.179 -0.6090 -0.5586 -0.0576
14091TIP3    H263689   1.486   1.578   0.056 -1.2235 -0.0611 -0.5717
14092TIP3   OH263690   1.134   4.531  15.004  0.2669 -0.3077  0.4443
14092TIP3    H163691   1.107   4.483  15.083 -2.0377  0.0860 -0.0728
14092TIP3    H263692   1.117   4.470  14.932 -1.0205  0.6430 -0.0581
14093TIP3   OH263693   1.310   5.266  16.860 -0.3161  0.0319 -0.4398
14093TIP3    H163694   1.367   5.288  16.786 -0.1470  1.5385  0.1351
14093TIP3    H263695   1.343   5.182  16.891  2.9552  1.8226  1.1821
14094TIP3   OH263696   0.695   5.298   0.560 -0.4758 -1.1318 -0.2318
14094TIP3    H163697   0.633   5.268   0.493 -0.6030 -0.8521 -0.2385
14094TIP3    H263698   0.779   5.305   0.515 -0.6428 -0.5575 -0.4594
14095TIP3   OH263699   2.756   6.061   5.324  0.3540  0.0416  0.1754
14095TIP3    H163700   2.817   6.123   5.365 -0.6082  0.8622  0.4016
14095TIP3    H263701   2.682   6.115   5.298 -0.8564 -1.1526  1.1118
14096TIP3   OH263702   5.805   3.291  14.387 -0.8214 -0.2432 -0.0920
14096TIP3    H163703   5.893   3.267  14.359 -0.0431  1.3136  0.9105
14096TIP3    H263704   5.765   3.209  14.414  1.4510 -0.5795  2.4871
14097TIP3   OH263705   4.903   0.436   4.235 -0.1007 -0.9042 -0.0028
14097TIP3    H163706   4.939   0.494   4.302 -0.1241 -0.2136 -0.5815
14097TIP3    H263707   4.859   0.367   4.284  0.5758 -0.8403  0.6967
14098TIP3   OH263708   5.036   5.492  12.813 -0.3433 -0.6793 -0.0696
14098TIP3    H163709   4.963   5.497  12.874 -1.9564 -0.7816 -1.9379
14098TIP3    H263710   5.015   5.418  12.756  0.9087 -0.3082 -1.0377
14099TIP3   OH263711   3.491   4.079  15.852  0.2215  0.0764 -0.4010
14099TIP3    H163712   3.554   4.150  15.863 -0.0196  0.1174  0.8168
14099TIP3    H263713   3.464   4.084  15.761 -1.2654  2.7972  0.1336
14100TIP3   OH263714   3.942   5.653   4.812 -0.3892 -0.2756 -0.6024
14100TIP3    H163715   3.925   5.676   4.721 -1.1968  1.1718 -0.1039
14100TIP3    H263716   4.019   5.597   4.808 -0.5787 -0.4531 -2.2004
14101TIP3   OH263717   0.846   5.946  12.063  0.2904 -0.4830  0.0151
14101TIP3    H163718   0.800   5.869  12.030 -0.0846 -1.2023  2.1426
14101TIP3    H263719   0.793   6.020  12.032 -1.8065 -1.2597  1.6072
14102TIP3   OH263720   5.402   4.466   5.225 -0.1783  0.4659  0.5882
14102TIP3    H163721   5.343   4.507   5.161 -0.3171 -2.7225 -1.4516
14102TIP3    H263722   5.489   4.486   5.192 -0.2402 -2.2364 -1.4995
14103TIP3   OH263723   3.967   3.361   2.084  0.0692  0.0164 -0.5058
14103TIP3    H163724   3.978   3.390   2.174  1.6541 -1.3023 -0.2492
14103TIP3    H263725   4.002   3.433   2.031  1.5148 -0.2789  0.0246
14104TIP3   OH263726   4.447   4.074   1.872  0.2123  0.4257  0.0485
14104TIP3    H163727   4.444   3.986   1.910  1.6446  0.6872  0.7934
14104TIP3    H263728   4.439   4.132   1.948  0.9248  0.9454 -0.2770
14105TIP3   OH263729   4.965   3.649  12.708 -0.2917  0.2196 -0.2844
14105TIP3    H163730   5.041   3.646  12.767  0.4459  2.9528 -1.0417
14105TIP3    H263731   4.889   3.642  12.767  0.4729  0.7840  0.7833
14106TIP3   OH263732   6.781   0.603  12.283 -0.2638  0.2248 -0.1543
14106TIP3    H163733   6.848   0.658  12.324 -0.2110  0.3368 -0.3834
14106TIP3    H263734   6.708   0.605  12.343  0.7182 -1.6759  1.1536
14107TIP3   OH263735   0.688   5.214   2.513  0.3597 -0.3496 -0.6318
14107TIP3    H163736   0.700   5.120   2.507 -2.0465 -0.7400  0.3148
14107TIP3    H263737   0.596   5.229   2.492  0.7255  1.8047 -0.9089
14108TIP3   OH263738   4.053   2.562  11.886 -0.1022  0.3122 -0.7259
14108TIP3    H163739   3.984   2.574  11.951 -0.1628  3.0303 -1.2591
14108TIP3    H263740   4.017   2.598  11.805  0.2772 -2.3055 -2.1108
14109TIP3   OH263741   6.531   3.682   5.657 -0.3772 -0.5324 -0.0942
14109TIP3    H163742   6.603   3.680   5.720 -0.6516  1.5017  0.3283
14109TIP3    H263743   6.461   3.631   5.699  0.2127 -1.0716  0.2440
14110TIP3   OH263744   2.560   5.945   5.659  0.0076 -0.8233  0.1282
14110TIP3    H163745   2.553   5.875   5.725  0.8708 -0.8164  0.2358
14110TIP3    H263746   2.555   5.899   5.575 -4.1952 -0.5470  0.1139
14111TIP3   OH263747   1.363   2.825  12.296  0.3772  0.0837 -0.0571
14111TIP3    H163748   1.401   2.737  12.300 -0.2273 -0.1972 -0.3881
14111TIP3    H263749   1.367   2.857  12.386 -1.6065 -1.2276  0.5151
14112TIP3   OH263750   2.462   3.236  16.150 -0.0841 -0.1329 -0.0891
14112TIP3    H163751   2.436   3.225  16.059  2.3086  0.2678 -0.8396
14112TIP3    H263752   2.426   3.321  16.176 -0.7803 -0.2604 -0.6327
14113TIP3   OH263753   5.420   2.181   2.349  0.4269 -0.0265  0.0788
14113TIP3    H163754   5.347   2.149   2.297  0.4931 -1.8390  1.0719
14113TIP3    H263755   5.433   2.271   2.319 -0.8396 -0.3764 -1.5821
14114TIP3   OH263756   3.780   3.380   2.447  0.0907 -0.4159  0.3099
14114TIP3    H163757   3.751   3.470   2.439  0.7344 -0.2614 -0.3293
14114TIP3    H263758   3.699   3.329   2.450 -0.2918  0.2744  1.9551
14115TIP3   OH263759   4.539   3.566   2.047 -0.3567 -0.2441  0.1316
14115TIP3    H163760   4.553   3.489   2.102 -0.7008 -0.3622  0.0587
14115TIP3    H263761   4.509   3.633   2.108  0.0601 -0.1326  0.2136
14116TIP3   OH263762   1.174   5.009   1.781  0.0283 -0.2270 -0.5927
14116TIP3    H163763   1.122   5.049   1.712  1.4250  1.5287 -0.6765
14116TIP3    H263764   1.151   5.058   1.860  0.4801 -0.3838 -0.3596
14117TIP3   OH263765   1.395   0.248  14.757  0.5866  0.3742  0.6882
14117TIP3    H163766   1.305   0.246  14.725  0.7870 -0.3893  0.1450
14117TIP3    H263767   1.435   0.169  14.720  1.1448  0.0723  1.9040
14118TIP3   OH263768   2.125   4.994   5.903  0.3870 -0.2359 -0.1333
14118TIP3    H163769   2.106   4.991   5.997 -0.2407 -2.0070 -0.2970
14118TIP3    H263770   2.220   4.983   5.898  0.3078 -1.1569  0.2639
14119TIP3   OH263771   3.901   3.009   0.744  0.1928  0.6440 -0.2510
14119TIP3    H163772   3.963   3.071   0.782  0.6732  0.8488 -1.3435
14119TIP3    H263773   3.862   2.965   0.819  1.3070  0.8607  0.4700
14120TIP3   OH263774   2.185   0.410  14.273  0.4642  0.2645  0.0909
14120TIP3    H163775   2.197   0.445  14.362 -0.8681 -0.5241  0.5905
14120TIP3    H263776   2.101   0.364  14.276  0.5933 -0.1086 -1.4789
14121TIP3   OH263777   5.847   1.188  15.706  0.5560  0.8827 -0.0455
14121TIP3    H163778   5.845   1.279  15.736  1.5628  0.3313  1.7238
14121TIP3    H263779   5.939   1.174  15.682  0.1531  0.7068 -1.5362
14122TIP3   OH263780   1.653   4.924   6.102 -0.0996 -0.3302 -0.3456
14122TIP3    H163781   1.625   4.859   6.038 -0.0598 -0.8618  0.1722
14122TIP3    H263782   1.715   4.878   6.158  0.9784  0.5462 -0.8158
14123TIP3   OH263783   5.401   2.469  10.617 -0.0145 -0.0958  0.5169
14123TIP3    H163784   5.331   2.407  10.638 -1.0084  1.1776  0.9581
14123TIP3    H263785   5.358   2.538  10.568  0.4267  2.0012  2.9939
14124TIP3   OH263786   1.257   0.099   3.750  0.5756 -0.0193  0.2284
14124TIP3    H163787   1.317   0.173   3.746  1.0912 -0.3825  1.1016
14124TIP3    H263788   1.308   0.029   3.791 -0.9611  0.1847  2.6002
14125TIP3   OH263789   2.380   3.910  13.849 -0.5127  0.4494  0.1205
14125TIP3    H163790   2.322   3.850  13.802  2.1744 -2.8718  0.9232
14125TIP3    H263791   2.337   3.924  13.933 -1.0558 -0.5251  0.0138
14126TIP3   OH263792   4.907   4.995  16.173  0.3772  0.9894  0.4029
14126TIP3    H163793   4.895   5.089  16.157 -2.7793  0.2344 -2.3266
14126TIP3    H263794   4.943   4.962  16.091 -0.3705 -0.4772  0.6577
14127TIP3   OH263795   5.064   1.841  13.180 -0.1154  0.6164 -0.1190
14127TIP3    H163796   5.058   1.900  13.105 -0.4729 -1.1427 -1.5062
14127TIP3    H263797   4.982   1.854  13.227 -0.1893  1.2156 -0.4041
14128TIP3   OH263798   2.286   4.808  13.747 -0.1615  0.0625 -0.2780
14128TIP3    H163799   2.216   4.850  13.797  0.7944  0.8390  0.4334
14128TIP3    H263800   2.339   4.881  13.714  0.4674 -0.5278 -0.5883
14129TIP3   OH263801   1.714   6.219  17.116 -0.1687 -0.1488  0.0514
14129TIP3    H163802   1.638   6.263  17.077 -1.2252 -1.4648  0.6022
14129TIP3    H263803   1.679   6.140  17.156  1.4546 -0.6268  0.5890
14130TIP3   OH263804   0.744   2.797  17.075  0.2986  0.3541  0.5503
14130TIP3    H163805   0.674   2.781  17.140 -0.9430 -0.2185 -0.8837
14130TIP3    H263806   0.735   2.889  17.053 -0.7140  0.0423 -0.4008
14131TIP3   OH263807   2.425   3.884  16.009 -0.7409  0.6143  0.4781
14131TIP3    H163808   2.426   3.963  15.955 -1.8142 -0.5453 -1.2725
14131TIP3    H263809   2.333   3.861  16.016 -0.5410  0.2234  2.0802
14132TIP3   OH263810   5.742   2.181   5.754  0.6760 -1.1361  0.2173
14132TIP3    H163811   5.685   2.158   5.681 -0.2683 -1.1760  0.9576
14132TIP3    H263812   5.828   2.148   5.729  0.9615  1.2215 -2.0608
14133TIP3   OH263813   4.363   4.464   2.265 -0.4419 -0.0541  0.5412
14133TIP3    H163814   4.430   4.505   2.321  1.3243 -1.2113 -0.6759
14133TIP3    H263815   4.348   4.528   2.196  0.5404 -0.4423 -0.0319
14134TIP3   OH263816   4.511   1.259   2.946 -0.6403  0.1302 -0.2903
14134TIP3    H163817   4.420   1.232   2.955 -0.2269 -0.5189  2.3670
14134TIP3    H263818   4.518   1.338   3.000  0.4083  0.0805 -0.3454
14135TIP3   OH263819   6.136   0.745   4.208 -0.3404 -0.5074 -0.1646
14135TIP3    H163820   6.198   0.804   4.252 -1.3712 -0.6022  1.4415
14135TIP3    H263821   6.112   0.792   4.128 -0.9995  1.1841  0.9939
14136TIP3   OH263822   4.679   6.379   6.489 -0.2666 -0.3341  0.0874
14136TIP3    H163823   4.750   6.342   6.541  0.6884 -0.4083 -1.2471
14136TIP3    H263824   4.606   6.318   6.502  0.5978 -1.4742 -0.3167
14137TIP3   OH263825   5.355   2.858  16.691 -0.1809  0.0632 -0.5583
14137TIP3    H163826   5.398   2.774  16.707  2.5428  1.1087 -2.0570
14137TIP3    H263827   5.360   2.903  16.776 -1.2177 -1.0572  0.1169
14138TIP3   OH263828   5.146   3.683  16.362  0.5397 -0.0157 -0.6425
14138TIP3    H163829   5.171   3.662  16.272 -1.7254 -1.9581 -0.8825
14138TIP3    H263830   5.071   3.742  16.353  1.3615  1.1470  0.0041
14139TIP3   OH263831   5.661   4.839  13.731 -0.1615  0.1700 -0.6968
14139TIP3    H163832   5.650   4.810  13.640 -0.0771 -0.0412 -0.6395
14139TIP3    H263833   5.697   4.927  13.724 -1.5771  0.7497 -0.8939
14140TIP3   OH263834   2.768   3.961   3.024 -0.0285  0.4001  0.2195
14140TIP3    H163835   2.823   3.935   3.098 -0.9468  1.3870  1.2658
14140TIP3    H263836   2.736   3.879   2.988 -0.2030 -0.0635  1.4012
14141TIP3   OH263837   1.417   2.728  16.413  0.0469 -0.3319 -0.1524
14141TIP3    H163838   1.512   2.728  16.401  0.1401  2.8497  0.0469
14141TIP3    H263839   1.405   2.718  16.507  0.1785 -0.6952 -0.1714
14142TIP3   OH263840   3.390   2.115  13.257  0.3544  0.2622  0.2502
14142TIP3    H163841   3.301   2.104  13.226 -0.1646 -0.0793  1.8086
14142TIP3    H263842   3.428   2.027  13.254 -0.2312 -0.0762  2.1164
14143TIP3   OH263843   4.705   6.735   1.073 -0.3814 -0.0678 -0.3222
14143TIP3    H163844   4.612   6.713   1.079  0.2324 -2.4494  0.9309
14143TIP3    H263845   4.736   6.684   0.998  0.5500 -1.6797  1.1377
14144TIP3   OH263846   5.210   1.696  15.128  0.4172  0.4388 -0.3013
14144TIP3    H163847   5.297   1.657  15.141  0.6746  0.6061 -1.5118
14144TIP3    H263848   5.153   1.622  15.106  0.0458  0.1992  1.3834
14145TIP3   OH263849   6.188   5.824  11.031  0.0497 -0.3776 -0.1198
14145TIP3    H163850   6.094   5.834  11.018  0.1253 -1.5822 -1.8083
14145TIP3    H263851   6.228   5.885  10.969  0.3946 -0.0391  0.4255
14146TIP3   OH263852   4.710   3.498  15.361 -0.4483 -0.4748 -0.0703
14146TIP3    H163853   4.621   3.468  15.376 -0.2193  0.0186  2.4380
14146TIP3    H263854   4.760   3.417  15.346 -1.1860 -0.7920 -0.8819
14147TIP3   OH263855   3.532   0.131  14.353 -0.3798  0.1436  0.5411
14147TIP3    H163856   3.443   0.102  14.331  0.2006 -0.2695 -1.3039
14147TIP3    H263857   3.581   0.049  14.363 -0.3597  0.3428  2.3644
14148TIP3   OH263858   3.539   3.641   2.878  0.0572  0.3501  0.1567
14148TIP3    H163859   3.513   3.647   2.970 -1.2972  0.8318 -0.2390
14148TIP3    H263860   3.514   3.553   2.851  0.5258  0.1821  0.2715
14149TIP3   OH263861   0.019   5.408  14.268  0.1933  0.2675 -0.2673
14149TIP3    H163862   0.013   5.406  14.173  1.9189 -1.1863 -0.3680
14149TIP3    H263863   0.096   5.463  14.286  0.4499 -0.2569  0.2448
14150TIP3   OH263864   1.096   2.676  13.717  0.2311  0.7872 -0.8459
14150TIP3    H163865   1.059   2.754  13.758 -0.6505  0.8125 -1.6686
14150TIP3    H263866   1.114   2.702  13.626  2.1084  0.7182 -0.5133
14151TIP3   OH263867   4.202   2.350  13.267 -0.6554  0.1088  0.0435
14151TIP3    H163868   4.152   2.290  13.211 -0.4380  0.6038 -0.6946
14151TIP3    H263869   4.192   2.315  13.355  1.5475 -2.4883 -0.6643
14152TIP3   OH263870   1.745   6.188  15.418  0.1003  0.5729  0.0670
14152TIP3    H163871   1.836   6.215  15.407 -0.4976  2.8420  0.4941
14152TIP3    H263872   1.729   6.195  15.512 -0.4400 -0.0935  0.0285
14153TIP3   OH263873   3.422   1.087   5.233  0.0840 -0.2405 -0.1346
14153TIP3    H163874   3.396   1.053   5.148 -0.6196  0.2554 -0.1185
14153TIP3    H263875   3.407   1.014   5.294  2.1047 -1.1511 -0.6529
14154TIP3   OH263876   6.067   5.543  12.822  0.0123 -0.4624  0.5783
14154TIP3    H163877   6.029   5.521  12.737 -0.3770 -2.5022  1.2544
14154TIP3    H263878   6.002   5.513  12.885  0.4432  0.7544  1.6008
14155TIP3   OH263879   3.221   4.275   3.168  0.0285 -0.0783 -0.9926
14155TIP3    H163880   3.272   4.356   3.166 -1.7720  1.1811  1.8918
14155TIP3    H263881   3.131   4.302   3.149 -0.6204 -1.3727  0.2044
14156TIP3   OH263882   2.329   1.690   1.762  0.4029  0.1699 -0.3435
14156TIP3    H163883   2.340   1.780   1.730  1.6789 -0.4199 -1.5816
14156TIP3    H263884   2.344   1.635   1.686  0.9680 -1.1564  0.7161
14157TIP3   OH263885   6.263   1.500  17.237  0.4214 -0.1938 -1.0298
14157TIP3    H163886   6.302   1.535  17.317 -0.2642  0.3214 -0.9202
14157TIP3    H263887   6.337   1.460  17.191  0.8761 -0.2428 -0.2809
14158TIP3   OH263888   6.772   0.663   6.770 -0.5526 -0.3418  0.1208
14158TIP3    H163889   6.728   0.611   6.703 -1.9987  1.6563 -0.5187
14158TIP3    H263890   6.714   0.738   6.785  1.2077  0.8070  1.4168
14159TIP3   OH263891   3.737   4.277  12.063 -0.0240  0.2660  0.9858
14159TIP3    H163892   3.806   4.235  12.013 -0.6516  0.5032 -0.0888
14159TIP3    H263893   3.780   4.351  12.106  0.8113 -0.7428  1.8976
14160TIP3   OH263894   6.560   1.400   0.704 -0.2810  0.0983 -0.3855
14160TIP3    H163895   6.576   1.311   0.672  1.4650  0.9343 -1.9705
14160TIP3    H263896   6.577   1.396   0.798 -1.4623 -1.5057 -0.2213
14161TIP3   OH263897   5.267   0.296   1.288 -0.1639  0.2100 -0.4021
14161TIP3    H163898   5.252   0.203   1.300  0.6782 -0.2260 -2.5657
14161TIP3    H263899   5.327   0.320   1.358 -1.0629 -0.6709  0.6847
14162TIP3   OH263900   0.528   3.164  17.234 -0.0232  0.1408 -0.3388
14162TIP3    H163901   0.499   3.155  17.325  0.0305  1.6264 -0.1545
14162TIP3    H263902   0.553   3.076  17.208 -0.9986 -0.4824  0.7620
14163TIP3   OH263903   4.565   0.995  13.007 -0.4165 -0.2462 -0.1430
14163TIP3    H163904   4.624   1.039  12.947 -1.2163 -0.4347 -1.0852
14163TIP3    H263905   4.506   1.065  13.038  0.1477 -0.1008  0.6240
14164TIP3   OH263906   2.576   5.015  11.377  0.6868  0.2188 -0.1762
14164TIP3    H163907   2.503   5.039  11.434  0.4549 -0.3158 -0.2395
14164TIP3    H263908   2.535   4.967  11.305  1.1783 -0.8195  0.2183
14165TIP3   OH263909   5.536   4.034   0.137  0.3258  0.3001  0.1518
14165TIP3    H163910   5.569   4.092   0.069 -0.5933  0.1896 -0.4031
14165TIP3    H263911   5.459   3.992   0.098  0.3293 -0.4619  0.9292
14166TIP3   OH263912   3.435   2.182  14.879  0.1578  0.8541 -0.0280
14166TIP3    H163913   3.426   2.089  14.901 -2.4585  1.4896  1.7869
14166TIP3    H263914   3.519   2.207  14.916 -0.0454 -0.3061  1.2596
14167TIP3   OH263915   6.386   0.563  12.179 -0.3431  0.1462  0.5094
14167TIP3    H163916   6.437   0.484  12.162 -0.3848  0.1837  0.2049
14167TIP3    H263917   6.449   0.634  12.177 -0.2160  0.0678  1.3216
14168TIP3   OH263918   3.798   3.415  17.143 -0.3252 -0.0586 -0.7063
14168TIP3    H163919   3.764   3.370  17.220 -0.2741 -0.0080 -0.6537
14168TIP3    H263920   3.734   3.395  17.074  0.0737 -0.8032 -0.8639
14169TIP3   OH263921   5.840   1.012   3.682 -0.4051  0.0481  0.1281
14169TIP3    H163922   5.911   1.022   3.619  1.9845  0.7319  2.8273
14169TIP3    H263923   5.832   0.918   3.695 -0.0535 -0.0345 -0.2594
14170TIP3   OH263924   3.898   6.573  15.850  0.3730  0.7792  0.6219
14170TIP3    H163925   3.856   6.489  15.833 -1.1200  1.3820  1.2624
14170TIP3    H263926   3.990   6.559  15.828  0.0643 -0.9141  0.3800
14171TIP3   OH263927   0.028   1.953  11.607 -0.4519 -0.1098  0.1828
14171TIP3    H163928   0.046   1.997  11.690 -2.0993 -0.6884  0.8688
14171TIP3    H263929   0.113   1.920  11.578  0.3518  1.2035  0.9846
14172TIP3   OH263930   5.660   2.253  13.444  0.0398 -0.4191 -0.8292
14172TIP3    H163931   5.579   2.298  13.419  0.9294  1.7393  0.1126
14172TIP3    H263932   5.722   2.323  13.462  0.5543 -1.8778  3.6767
14173TIP3   OH263933   0.380   1.411  13.843  0.5626  0.0935 -0.2394
14173TIP3    H163934   0.295   1.376  13.819 -0.3800 -0.3118  3.4271
14173TIP3    H263935   0.366   1.505  13.854  0.5279 -0.0038  0.5735
14174TIP3   OH263936   6.544   0.142   0.943  0.0813  0.0978 -0.3662
14174TIP3    H163937   6.622   0.183   0.982 -1.1144  0.7569  1.4098
14174TIP3    H263938   6.516   0.204   0.876  0.3367  0.5014 -0.1095
14175TIP3   OH263939   2.263   2.806   4.128 -0.5828  0.4839  0.0005
14175TIP3    H163940   2.354   2.781   4.146 -1.9187 -3.3820  1.9050
14175TIP3    H263941   2.268   2.857   4.047  3.3604  1.0989  0.5303
14176TIP3   OH263942   2.866   0.892   1.120  0.4176  0.3675  0.4011
14176TIP3    H163943   2.811   0.970   1.121 -0.7036 -0.4189  1.3722
14176TIP3    H263944   2.818   0.830   1.065  0.8308  0.0336  0.4160
14177TIP3   OH263945   3.090   4.017   1.998  0.3218  0.0334  0.2350
14177TIP3    H163946   3.054   4.030   2.086  0.7986  0.0151  0.4354
14177TIP3    H263947   3.125   4.102   1.973 -1.5438  0.5341 -0.7366
14178TIP3   OH263948   4.535   1.581   4.391 -0.0323 -0.4998 -0.4325
14178TIP3    H163949   4.444   1.552   4.389  0.1150 -0.9138 -1.7364
14178TIP3    H263950   4.563   1.567   4.481 -0.6599 -2.3313 -0.5065
14179TIP3   OH263951   3.672   5.785  13.087 -0.1355  0.0893  0.3283
14179TIP3    H163952   3.616   5.849  13.043 -0.7219 -0.9964 -0.5584
14179TIP3    H263953   3.750   5.833  13.111 -0.8968  1.3192  0.3812
14180TIP3   OH263954   3.535   5.046  15.544  0.4196  0.2664  0.0813
14180TIP3    H163955   3.606   4.983  15.534 -0.3137 -0.3395 -1.5734
14180TIP3    H263956   3.456   4.997  15.520 -0.4882  1.0864  1.3247
14181TIP3   OH263957   1.450   3.449  10.576  0.0647 -0.4367  0.1918
14181TIP3    H163958   1.493   3.366  10.558 -0.3766 -0.5450 -0.3796
14181TIP3    H263959   1.494   3.483  10.654  0.3604 -1.1198  0.3225
14182TIP3   OH263960   3.482   0.976  15.341 -0.4403  0.0262  0.6793
14182TIP3    H163961   3.430   0.973  15.422 -0.2013  0.2458  0.8397
14182TIP3    H263962   3.454   1.056  15.297 -2.1103 -1.1440 -0.4790
14183TIP3   OH263963   4.858   4.179   2.979 -0.1012  0.7201  0.1244
14183TIP3    H163964   4.787   4.242   2.967 -0.1215  0.5471 -0.6996
14183TIP3    H263965   4.910   4.185   2.898 -0.3595 -0.6205 -0.1565
14184TIP3   OH263966   1.274   6.267  12.610 -0.2138 -0.5616 -1.2348
14184TIP3    H163967   1.321   6.200  12.560  0.4956  0.1280 -1.5164
14184TIP3    H263968   1.189   6.228  12.629  1.6047 -3.1472  2.1263
14185TIP3   OH263969   4.013   5.755   5.738  0.1156 -0.1326  0.0129
14185TIP3    H163970   4.030   5.662   5.720 -0.9174 -0.2692 -0.2884
14185TIP3    H263971   3.944   5.779   5.676 -0.8404  0.3841  1.2573
14186TIP3   OH263972   6.603   3.384  11.699 -0.5707  0.8014 -0.5089
14186TIP3    H163973   6.652   3.301  11.698 -1.1243  0.4402  1.3051
14186TIP3    H263974   6.668   3.450  11.675  0.4034  0.1110  0.1861
14187TIP3   OH263975   6.534   4.174   2.497  0.1274  0.3258  0.1472
14187TIP3    H163976   6.527   4.138   2.409 -3.4966  1.0364  0.0624
14187TIP3    H263977   6.549   4.268   2.484 -1.3478  0.5868  0.2475
14188TIP3   OH263978   3.228   6.461  16.490 -0.2653 -0.2522  0.4846
14188TIP3    H163979   3.162   6.497  16.431  0.9631  0.4364 -0.5078
14188TIP3    H263980   3.194   6.477  16.577 -1.0711  0.7487 -0.0103
14189TIP3   OH263981   4.511   0.991   5.684 -0.0916  0.4061  0.0359
14189TIP3    H163982   4.478   0.902   5.681  0.3332  0.2949 -1.7012
14189TIP3    H263983   4.584   0.987   5.746  0.4498 -0.6326 -0.6609
14190TIP3   OH263984   6.514   4.083  16.105  0.2851  0.0252 -0.0938
14190TIP3    H163985   6.495   4.017  16.172 -1.4460 -0.6923 -1.2548
14190TIP3    H263986   6.514   4.034  16.023  0.9000  1.1566 -0.7767
14191TIP3   OH263987   0.101   0.445   3.032  0.6954 -0.1030 -0.4305
14191TIP3    H163988   0.076   0.432   2.941  1.1940  1.2605 -0.7834
14191TIP3    H263989   0.193   0.471   3.029  0.5713  0.4821  0.4081
14192TIP3   OH263990   0.646   6.167  16.853  0.3069 -0.6004  0.2595
14192TIP3    H163991   0.565   6.175  16.903 -0.9631 -0.6159 -1.7672
14192TIP3    H263992   0.667   6.257  16.827 -0.4685 -0.8888 -1.3992
14193TIP3   OH263993   6.367   1.217   5.423  0.0198 -0.2863  0.1235
14193TIP3    H163994   6.393   1.269   5.347  1.4510  1.0667  1.4984
14193TIP3    H263995   6.433   1.147   5.427  0.2578 -0.0424  0.4376
14194TIP3   OH263996   1.438   2.993  13.074  0.7283  0.0999  0.2431
14194TIP3    H163997   1.525   2.958  13.057  1.1766  1.9865 -1.6869
14194TIP3    H263998   1.380   2.918  13.067  2.2443 -1.3047  2.2248
14195TIP3   OH263999   2.653   2.854  14.023  0.5312 -0.0335 -0.4621
14195TIP3    H164000   2.622   2.943  14.040 -0.4645 -0.1510 -1.5725
14195TIP3    H264001   2.627   2.837  13.932 -0.0544 -1.7665  0.0090
14196TIP3   OH264002   3.802   3.249  16.854  0.4904 -0.0535 -0.7677
14196TIP3    H164003   3.872   3.243  16.919  1.5175  1.3878 -1.6901
14196TIP3    H264004   3.727   3.285  16.902  0.7003 -0.6074 -0.0146
14197TIP3   OH264005   4.551   0.662   4.002  0.2901  0.0649 -0.6227
14197TIP3    H164006   4.490   0.635   3.933 -0.1877 -1.4212  0.3426
14197TIP3    H264007   4.574   0.581   4.046  1.6921  0.8318  0.0791
14198TIP3   OH264008   4.173   0.054   1.669 -0.1895  0.2661 -0.0606
14198TIP3    H164009   4.165   0.014   1.756  1.7984 -0.8709 -0.3670
14198TIP3    H264010   4.190  -0.020   1.610 -0.0792  1.1828 -1.2075
14199TIP3   OH264011   5.096   4.389   4.852  0.0071  0.2892  0.1454
14199TIP3    H164012   5.011   4.349   4.836  0.2432 -1.2864  2.5811
14199TIP3    H264013   5.076   4.479   4.878 -0.9242 -0.0429  0.5795
14200TIP3   OH264014   4.678   4.136   1.711  0.1255  0.0114  0.0501
14200TIP3    H164015   4.677   4.125   1.806  1.1278 -1.6790 -0.0948
14200TIP3    H264016   4.590   4.111   1.683 -0.2782  0.8515  0.5662
14201TIP3   OH264017   0.849   6.357   6.474 -0.0810  0.3964 -0.4478
14201TIP3    H164018   0.941   6.333   6.459  0.3136  0.5172  1.6868
14201TIP3    H264019   0.852   6.450   6.496 -0.5848  0.1159  0.8091
14202TIP3   OH264020   6.284   6.022  13.094  0.1968  0.2811 -0.3056
14202TIP3    H164021   6.325   6.085  13.154 -0.6430  0.2088  0.3521
14202TIP3    H264022   6.312   6.050  13.007  0.1642  1.3259  0.0097
14203TIP3   OH264023   3.785   6.031  11.541 -0.0720 -0.5956  0.0975
14203TIP3    H164024   3.866   6.058  11.585 -0.0740 -1.5590  0.7049
14203TIP3    H264025   3.805   5.944  11.505  0.1625  0.4402 -2.4384
14204TIP3   OH264026   0.276   2.794  12.894  0.7778 -0.1751  0.6300
14204TIP3    H164027   0.236   2.874  12.859 -0.4772 -0.4381  1.4271
14204TIP3    H264028   0.202   2.735  12.910  1.6967 -1.5264 -0.0023
14205TIP3   OH264029   0.303   1.858  12.292  0.2070 -0.0975  0.5235
14205TIP3    H164030   0.370   1.924  12.274 -0.2118  0.0848 -0.4111
14205TIP3    H264031   0.343   1.799  12.356  1.5757 -0.4853 -0.6752
14206TIP3   OH264032   4.401   0.867   4.845  0.2250 -0.3452 -0.0506
14206TIP3    H164033   4.448   0.855   4.927 -0.2161  0.5608  0.3447
14206TIP3    H264034   4.406   0.961   4.828  0.8628 -0.6113 -1.3969
14207TIP3   OH264035   3.572   3.287  15.239  0.4910 -0.3540  0.2040
14207TIP3    H164036   3.479   3.275  15.254  0.3678  1.1795  0.7446
14207TIP3    H264037   3.605   3.328  15.319  1.5925 -0.6629 -0.0731
14208TIP3   OH264038   0.883   1.946   5.434 -0.0651 -0.1334 -0.3186
14208TIP3    H164039   0.850   1.865   5.473  3.0790 -0.8474  0.9708
14208TIP3    H264040   0.895   1.924   5.341 -0.3331 -0.7677 -0.2062
14209TIP3   OH264041   2.182   1.906   0.735  0.1870 -0.1451 -0.4184
14209TIP3    H164042   2.191   1.878   0.827  1.0846 -0.9187 -0.7381
14209TIP3    H264043   2.218   1.833   0.684  4.0176  2.2120 -1.2359
14210TIP3   OH264044   0.039   2.994  16.943 -0.0982 -0.4911  0.4804
14210TIP3    H164045   0.009   3.079  16.910  0.1132 -0.1666  1.1027
14210TIP3    H264046   0.057   3.010  17.036  3.5508 -0.2322 -0.2061
14211TIP3   OH264047   1.459   4.932  13.927 -0.4549  0.0113  0.0027
14211TIP3    H164048   1.409   5.012  13.911 -0.6700 -0.5072 -2.0042
14211TIP3    H264049   1.434   4.906  14.016 -0.8636  1.8119  0.4364
14212TIP3   OH264050   0.395   1.427  17.071 -0.1198 -0.3138 -0.0082
14212TIP3    H164051   0.326   1.363  17.085 -1.6056  0.4888 -3.0737
14212TIP3    H264052   0.476   1.379  17.085 -1.2578 -2.1564  0.3874
14213TIP3   OH264053   6.194   0.899   2.551  0.1680  0.0079 -0.4654
14213TIP3    H164054   6.129   0.879   2.484 -1.3106  1.4260  0.5036
14213TIP3    H264055   6.261   0.951   2.506  0.0063 -0.4040 -1.1856
14214TIP3   OH264056   4.882   6.765   2.402 -0.5243  0.0547  0.1015
14214TIP3    H164057   4.806   6.821   2.415 -0.7647 -0.2527  0.0441
14214TIP3    H264058   4.943   6.817   2.350 -0.0141  0.8971  1.5218
14215TIP3   OH264059   4.597   5.114  13.008 -0.2171 -0.2240  0.1760
14215TIP3    H164060   4.587   5.053  12.935  1.3032  0.0012 -0.2498
14215TIP3    H264061   4.524   5.175  12.998 -0.1280 -0.2926 -1.0791
14216TIP3   OH264062   3.178   5.823  15.916  0.0633  0.0692 -0.2969
14216TIP3    H164063   3.223   5.772  15.849 -0.4785 -1.0098  0.1389
14216TIP3    H264064   3.249   5.860  15.969  0.4978  1.0595 -1.5325
14217TIP3   OH264065   5.056   4.112  16.475  0.2415  0.1062  0.1632
14217TIP3    H164066   5.149   4.098  16.491 -0.2000 -2.3964  0.7342
14217TIP3    H264067   5.021   4.137  16.560  0.4622  1.5367 -0.1572
14218TIP3   OH264068   1.815   4.215   3.869 -0.5164  0.1677  0.2667
14218TIP3    H164069   1.854   4.129   3.857  0.0607  0.5266 -0.4750
14218TIP3    H264070   1.727   4.207   3.833 -1.5179 -0.9425  2.8995
14219TIP3   OH264071   2.210   4.508   0.814 -0.0518 -0.3523  0.0925
14219TIP3    H164072   2.180   4.475   0.899 -0.7969  0.2459  0.0639
14219TIP3    H264073   2.249   4.593   0.833  0.0846 -0.3661 -0.1179
14220TIP3   OH264074   2.983   0.783  14.354  0.6292 -0.3728  0.8868
14220TIP3    H164075   3.047   0.850  14.332 -1.0233  0.0155 -3.0925
14220TIP3    H264076   3.017   0.702  14.315 -0.5989 -0.4554 -0.0339
14221TIP3   OH264077   6.456   5.121   0.266  0.4790  0.7330  0.5052
14221TIP3    H164078   6.548   5.133   0.240  0.2380 -1.0195 -1.2703
14221TIP3    H264079   6.459   5.056   0.336  0.5988  0.4751  0.2656
14222TIP3   OH264080   6.191   4.509  11.944  0.3641 -0.3692 -0.0026
14222TIP3    H164081   6.133   4.487  11.871  0.5870 -1.4428  0.1256
14222TIP3    H264082   6.140   4.486  12.022  0.6127 -0.4660  0.1326
14223TIP3   OH264083   1.284   4.474   5.755  0.2792  0.4436  0.0527
14223TIP3    H164084   1.353   4.483   5.820  0.9326 -2.8222 -0.1054
14223TIP3    H264085   1.266   4.380   5.751 -0.6654  0.6844 -3.5258
14224TIP3   OH264086   6.014   5.032   2.442 -0.3963  0.3916 -0.2870
14224TIP3    H164087   6.032   5.125   2.458 -2.2494  0.8847 -0.9202
14224TIP3    H264088   6.081   4.985   2.493  0.1227  2.0571  0.6002
14225TIP3   OH264089   0.773   3.797   1.014 -0.1948  0.4007  0.1575
14225TIP3    H164090   0.743   3.785   0.924  0.4171  0.0205 -0.0044
14225TIP3    H264091   0.693   3.811   1.064 -0.7289 -1.3834 -0.1349
14226TIP3   OH264092   0.370   1.602  16.400 -0.0957 -0.3075  0.8116
14226TIP3    H164093   0.356   1.655  16.322  1.2431 -1.2637 -0.0974
14226TIP3    H264094   0.282   1.579  16.430 -0.6049 -1.0413 -1.1855
14227TIP3   OH264095   1.124   0.175   1.810 -0.2193 -0.2335 -0.2631
14227TIP3    H164096   1.120   0.141   1.720  0.7933 -0.9820 -0.0224
14227TIP3    H264097   1.078   0.109   1.862  0.2500 -0.3833 -0.0463
14228TIP3   OH264098   2.659   4.466   4.903 -0.4800 -0.1491 -0.0098
14228TIP3    H164099   2.658   4.407   4.978 -0.5522  0.6344  0.6142
14228TIP3    H264100   2.617   4.417   4.833  0.9508 -1.4603  0.0229
14229TIP3   OH264101   6.172   5.907  12.384  0.0265  0.2195 -0.0699
14229TIP3    H164102   6.229   5.984  12.386  0.5473 -0.1699  0.2151
14229TIP3    H264103   6.116   5.921  12.308  2.5244 -0.8231 -2.1650
14230TIP3   OH264104   2.960   1.237   1.241  0.1102 -0.2522 -0.0815
14230TIP3    H164105   2.892   1.178   1.210 -0.6617  0.4077  0.3273
14230TIP3    H264106   2.912   1.312   1.277  1.0853  1.0015 -1.3313
14231TIP3   OH264107   2.937   1.760   2.356  0.0086  0.0389 -0.2486
14231TIP3    H164108   2.897   1.674   2.370 -0.5345  0.1861 -0.8982
14231TIP3    H264109   2.894   1.817   2.420  3.2930 -1.0287  3.1181
14232TIP3   OH264110   6.677   5.295  15.066  0.2190 -0.1094 -0.1100
14232TIP3    H164111   6.625   5.373  15.084 -1.1913 -1.4165  1.7217
14232TIP3    H264112   6.691   5.255  15.152  0.8536 -1.8908 -1.0032
14233TIP3   OH264113   4.932   3.369  13.110 -1.2305 -0.3029 -0.8542
14233TIP3    H164114   4.874   3.418  13.169 -0.6375 -0.0258 -0.4878
14233TIP3    H264115   4.947   3.286  13.155  2.2953  1.3768  1.2819
14234TIP3   OH264116   5.401   0.444   6.498  0.1134 -0.1444 -0.2290
14234TIP3    H164117   5.413   0.467   6.406  1.5162 -1.7138 -0.4678
14234TIP3    H264118   5.308   0.423   6.506  0.2625 -1.3947 -1.6210
14235TIP3   OH264119   1.114   0.467  16.287 -0.5215 -0.5505  0.3511
14235TIP3    H164120   1.115   0.409  16.363 -0.5230 -1.6916 -0.5166
14235TIP3    H264121   1.185   0.436  16.232 -0.5077  0.2895 -0.1086
14236TIP3   OH264122   2.863   1.484   0.991 -0.0744  0.0601 -0.4147
14236TIP3    H164123   2.955   1.489   0.965  0.1554  1.1676  0.5214
14236TIP3    H264124   2.817   1.539   0.927  0.3742  2.0928  0.9379
14237TIP3   OH264125   1.226   6.388   5.725  0.4081 -0.6536  0.0872
14237TIP3    H164126   1.233   6.315   5.664  0.4666  1.4287 -2.4837
14237TIP3    H264127   1.304   6.381   5.780  1.0237 -1.8264 -0.9064
14238TIP3   OH264128   3.071   5.675  13.662  0.2258  0.0370 -0.5074
14238TIP3    H164129   3.125   5.610  13.708  0.3692 -0.3153 -1.1618
14238TIP3    H264130   3.080   5.652  13.570  0.1321  0.8796 -0.7364
14239TIP3   OH264131   6.420   6.376  15.457  0.0415 -0.0278 -0.0062
14239TIP3    H164132   6.486   6.343  15.518 -0.2390 -0.4445  0.0777
14239TIP3    H264133   6.341   6.385  15.511  0.2046  1.0928  0.0407
14240TIP3   OH264134   2.294   3.332  17.044 -0.2717 -0.8019  0.2952
14240TIP3    H164135   2.313   3.363  17.132 -1.6405 -0.2858  0.4285
14240TIP3    H264136   2.208   3.370  17.023 -0.2237 -1.3766 -1.0362
14241TIP3   OH264137   5.808   4.159   0.341 -0.3781  0.0391 -0.1511
14241TIP3    H164138   5.817   4.129   0.250  0.1000 -1.2651  0.3162
14241TIP3    H264139   5.897   4.172   0.371 -0.5582  1.0880 -0.0628
14242TIP3   OH264140   4.968   6.719   2.735  0.4005  0.1159 -0.3728
14242TIP3    H164141   4.955   6.806   2.697 -1.4670  0.0620  0.1046
14242TIP3    H264142   4.999   6.737   2.824 -1.1496  0.3168  0.1359
14243TIP3   OH264143   2.886   6.083  16.646 -0.4247  0.0785  0.8348
14243TIP3    H164144   2.971   6.057  16.682  0.0960  0.4494 -0.1013
14243TIP3    H264145   2.897   6.075  16.551 -1.3803  0.2939  0.7062
14244TIP3   OH264146   5.482   2.134   3.778  0.0248  0.2268  0.3757
14244TIP3    H164147   5.541   2.113   3.850 -0.5377  1.3433  1.1687
14244TIP3    H264148   5.508   2.221   3.750  0.7374 -0.5036 -1.2863
14245TIP3   OH264149   5.331   4.184  16.620 -0.0474  0.3341 -0.0258
14245TIP3    H164150   5.296   4.142  16.699 -1.5480  2.0177  0.2433
14245TIP3    H264151   5.399   4.243  16.652  1.3656 -1.1135 -0.3042
14246TIP3   OH264152   3.664   5.043  16.706  0.1406 -0.4171 -0.2272
14246TIP3    H164153   3.665   4.951  16.680  1.5739 -0.3447 -0.4775
14246TIP3    H264154   3.721   5.046  16.783 -2.4899 -0.2905  1.7872
14247TIP3   OH264155   6.242   1.472  16.530  0.5722 -0.0583  0.2797
14247TIP3    H164156   6.162   1.478  16.478  0.7880  0.5367 -0.0033
14247TIP3    H264157   6.268   1.563  16.544  1.0536 -0.2399  0.5873
14248TIP3   OH264158   0.683   2.704   0.677 -0.8445 -0.1073  0.4590
14248TIP3    H164159   0.741   2.755   0.734 -0.9694  0.1438  0.3602
14248TIP3    H264160   0.678   2.618   0.719 -1.0300  0.1133  0.8904
14249TIP3   OH264161   6.465   2.789  13.568  1.0495 -0.2979  0.2082
14249TIP3    H164162   6.386   2.758  13.611  2.6431 -2.5484  1.5768
14249TIP3    H264163   6.451   2.770  13.475 -0.2885 -0.0079  0.3399
14250TIP3   OH264164   6.779   5.753  16.969 -0.8424 -0.0926 -0.7261
14250TIP3    H164165   6.837   5.741  17.044 -1.1885 -1.4023 -0.6422
14250TIP3    H264166   6.777   5.847  16.954  0.4401  0.0510 -0.0519
14251TIP3   OH264167   6.144   2.789  16.981  0.1344 -0.1805  0.1415
14251TIP3    H164168   6.228   2.798  16.937 -0.7497  0.7218 -1.4067
14251TIP3    H264169   6.131   2.694  16.989  1.9598 -0.3065  1.7156
14252TIP3   OH264170   6.452   0.767  10.733 -0.1846 -0.0010  0.7949
14252TIP3    H164171   6.516   0.804  10.794 -0.7096 -0.0146  1.3566
14252TIP3    H264172   6.496   0.690  10.696  0.7251  0.8818 -0.0091
14253TIP3   OH264173   6.782   1.731   3.069 -0.6750  0.0190  0.1583
14253TIP3    H164174   6.787   1.730   2.974  0.3639 -0.8800  0.2060
14253TIP3    H264175   6.799   1.640   3.095  0.0574  0.4574  1.2462
14254TIP3   OH264176   5.837   3.913   2.511 -0.0797 -0.0505  0.3902
14254TIP3    H164177   5.864   3.946   2.597  3.4338 -2.4216  0.2903
14254TIP3    H264178   5.833   3.818   2.522  0.0957 -0.3537 -1.9768
14255TIP3   OH264179   2.566   4.580  14.262 -0.2874  0.3035 -0.1272
14255TIP3    H164180   2.470   4.587  14.262 -0.1977  1.9713 -2.2362
14255TIP3    H264181   2.595   4.655  14.314 -0.0426  2.2202 -2.9269
14256TIP3   OH264182   1.082   3.561  14.139  0.2886 -0.5080 -0.0818
14256TIP3    H164183   1.021   3.600  14.202 -0.1704 -1.5034  0.1044
14256TIP3    H264184   1.074   3.467  14.154  1.3526 -0.6753 -0.5488
14257TIP3   OH264185   4.919   0.481   1.633 -0.1994 -0.0107  0.4135
14257TIP3    H164186   5.006   0.500   1.598  1.3667 -3.7553  2.0200
14257TIP3    H264187   4.861   0.489   1.558  2.0459 -0.8713 -1.4659
14258TIP3   OH264188   3.800   0.051   1.875  0.1951  0.0112 -0.0582
14258TIP3    H164189   3.729   0.115   1.879 -0.4846 -0.8521  1.7651
14258TIP3    H264190   3.760  -0.028   1.838  0.1631 -0.5132  1.0812
14259TIP3   OH264191   6.528   6.039  14.588  0.1651 -0.0889  0.4522
14259TIP3    H164192   6.492   6.118  14.628 -1.6047 -0.6535  0.0311
14259TIP3    H264193   6.576   5.996  14.658  1.4369  1.5178  0.5931
14260TIP3   OH264194   5.108   3.908   1.572 -0.1741  0.2757 -0.3489
14260TIP3    H164195   5.164   3.953   1.634  0.7025 -0.1962 -0.7879
14260TIP3    H264196   5.168   3.868   1.509 -0.8388 -2.3725  0.5999
14261TIP3   OH264197   0.392   5.678  11.174 -0.4114  0.2031  0.0478
14261TIP3    H164198   0.417   5.641  11.259 -0.4114 -0.1568 -0.1093
14261TIP3    H264199   0.296   5.683  11.177 -0.4109  0.1991  0.0709
14262TIP3   OH264200   1.053   0.934  13.730  0.0796 -0.4035  0.2189
14262TIP3    H164201   1.074   0.866  13.667 -0.9298  0.0419 -0.6151
14262TIP3    H264202   1.129   0.938  13.788  0.1630 -2.1788  0.2398
14263TIP3   OH264203   4.894   2.601  13.348  0.6476  0.2516 -0.2740
14263TIP3    H164204   4.885   2.657  13.425 -0.7846  0.9596 -0.9142
14263TIP3    H264205   4.925   2.660  13.279  0.0455  0.0571 -0.7183
14264TIP3   OH264206   5.717   0.233   3.405  0.0953 -0.1971  0.1994
14264TIP3    H164207   5.756   0.147   3.420  1.9303  0.7336  0.9699
14264TIP3    H264208   5.782   0.295   3.440 -0.4072  1.5669 -1.8563
14265TIP3   OH264209   1.667   6.323   5.333  0.5788  0.1611  0.3663
14265TIP3    H164210   1.632   6.325   5.244  0.3452  0.2651  0.4600
14265TIP3    H264211   1.718   6.404   5.340 -0.0374  0.5326  0.5822
14266TIP3   OH264212   5.490   3.915  15.824 -0.0092  0.5575  0.2454
14266TIP3    H164213   5.427   3.935  15.893  1.9076  0.5182  2.0589
14266TIP3    H264214   5.492   3.819  15.820 -0.5544  0.5676 -0.2758
14267TIP3   OH264215   0.177   1.987  17.041 -0.5114 -0.3267 -0.2846
14267TIP3    H164216   0.136   1.961  17.124 -0.7344 -1.5660 -0.7713
14267TIP3    H264217   0.182   2.082  17.046  0.5592 -0.4460  1.6767
14268TIP3   OH264218   0.344   3.988  15.302 -0.2447  0.4771  0.6073
14268TIP3    H164219   0.281   4.012  15.235  0.2113 -1.0109 -0.3872
14268TIP3    H264220   0.426   4.027  15.273 -0.0424 -0.1861  0.2736
14269TIP3   OH264221   5.539   4.630  16.491 -0.1341 -0.4260  0.3651
14269TIP3    H164222   5.589   4.549  16.488 -0.6960 -0.7816  0.4418
14269TIP3    H264223   5.450   4.604  16.468  0.0346  0.4505 -1.3772
14270TIP3   OH264224   6.463   6.609   3.374 -0.0063  0.6422  0.3477
14270TIP3    H164225   6.409   6.534   3.349  2.0960 -0.6236 -0.4726
14270TIP3    H264226   6.447   6.674   3.305 -1.4467  0.7796  0.7943
14271TIP3   OH264227   4.544   4.758  17.039 -0.2019 -0.4862  0.0955
14271TIP3    H164228   4.476   4.692  17.056 -0.3012 -0.5771 -0.6191
14271TIP3    H264229   4.542   4.769  16.944 -1.8541  2.3221  0.4147
14272TIP3   OH264230   6.577   4.433   3.068 -0.4507  0.7643 -0.1290
14272TIP3    H164231   6.614   4.355   3.027 -1.2939 -0.8114  2.0470
14272TIP3    H264232   6.648   4.468   3.122  0.6900  2.8923 -2.8349
14273TIP3   OH264233   0.564   1.596   0.762  0.1089  0.1948 -0.0042
14273TIP3    H164234   0.518   1.664   0.811  0.4811  1.0856 -0.8617
14273TIP3    H264235   0.657   1.615   0.776  0.2374 -1.3339  1.3702
14274TIP3   OH264236   4.446   5.044  14.804  0.0022  0.3350  0.1979
14274TIP3    H164237   4.536   5.016  14.787  0.0953  1.0654 -0.5637
14274TIP3    H264238   4.408   5.056  14.717 -1.0761 -0.6978  0.5070
14275TIP3   OH264239   0.871   6.764   2.734 -0.6124  0.5143 -0.8183
14275TIP3    H164240   0.817   6.778   2.812  2.2117 -0.4956  1.4054
14275TIP3    H264241   0.828   6.693   2.687  0.4959 -2.5578  2.6421
14276TIP3   OH264242   5.995   4.279  10.627 -0.6153 -0.0843  0.4541
14276TIP3    H164243   6.036   4.201  10.591  1.3347  0.6614  1.0072
14276TIP3    H264244   6.061   4.348  10.617 -0.7761  0.6012  3.6125
14277TIP3   OH264245   4.889   4.870  15.287 -0.3175 -0.2590 -0.4470
14277TIP3    H164246   4.794   4.872  15.275 -0.3339  0.4018 -0.2386
14277TIP3    H264247   4.913   4.962  15.302  0.6891 -0.0607 -3.0108
14278TIP3   OH264248   5.279   2.642  13.447 -0.2604 -0.4931 -0.4981
14278TIP3    H164249   5.305   2.705  13.380  1.3004 -0.6313 -0.0365
14278TIP3    H264250   5.188   2.665  13.468  0.3246  1.6977 -0.2491
14279TIP3   OH264251   2.682   4.506  13.301 -0.4901 -0.1224  0.3612
14279TIP3    H164252   2.696   4.420  13.341 -1.4110  0.1627  1.3105
14279TIP3    H264253   2.593   4.503  13.266 -0.6354  0.5443  0.6596
14280TIP3   OH264254   0.168   3.634  14.124 -0.2622 -0.3105  0.1319
14280TIP3    H164255   0.128   3.548  14.113 -2.2626  0.5514  0.4079
14280TIP3    H264256   0.181   3.642  14.219  3.8180 -1.9633 -0.1859
14281TIP3   OH264257   2.099   5.443  12.396  0.0692  0.2323  0.0411
14281TIP3    H164258   2.039   5.369  12.398 -0.4230  0.5486 -2.2025
14281TIP3    H264259   2.060   5.506  12.457 -1.3713  0.0480 -0.6566
14282TIP3   OH264260   3.785   6.261   0.896  0.6821 -0.1102  0.0497
14282TIP3    H164261   3.828   6.340   0.864  0.5989 -0.1294 -0.1081
14282TIP3    H264262   3.848   6.223   0.958  0.8672 -0.1011 -0.1316
14283TIP3   OH264263   0.857   4.806   5.224  0.7170  1.0867 -0.3059
14283TIP3    H164264   0.803   4.883   5.206  0.5928  1.0513 -0.0880
14283TIP3    H264265   0.940   4.842   5.257  1.5583  1.2179 -2.4891
14284TIP3   OH264266   5.984   1.534   5.645  0.4002 -0.5293 -0.3490
14284TIP3    H164267   6.016   1.563   5.730  2.3015  1.2812 -1.6197
14284TIP3    H264268   6.044   1.465   5.618  0.7953  0.0341 -0.9308
14285TIP3   OH264269   5.427   4.310   4.124  0.2395 -0.1646  0.2920
14285TIP3    H164270   5.478   4.303   4.204 -0.2299 -0.4457  0.5656
14285TIP3    H264271   5.390   4.223   4.111 -0.8424  0.2535  0.5328
14286TIP3   OH264272   0.986   0.629   5.152 -0.1399 -0.0103 -0.3299
14286TIP3    H164273   0.953   0.649   5.064  0.2019 -0.4090 -0.5521
14286TIP3    H264274   1.041   0.704   5.174  1.0412 -0.6313 -1.1104
14287TIP3   OH264275   0.078   6.484  15.932 -0.4257 -0.0471 -0.0301
14287TIP3    H164276   0.124   6.425  15.992  0.9982  3.4671  2.4766
14287TIP3    H264277  -0.006   6.441  15.916  1.0819 -3.3752  0.6119
14288TIP3   OH264278   4.280   1.419   4.228  0.1482  0.3044 -0.5081
14288TIP3    H164279   4.361   1.374   4.253  0.5821  0.7064 -1.1753
14288TIP3    H264280   4.278   1.414   4.133  0.5803  2.3038 -0.6544
14289TIP3   OH264281   5.749   4.448   5.722  0.2015 -0.4089 -0.0200
14289TIP3    H164282   5.804   4.499   5.782  0.7157 -0.2838 -0.5944
14289TIP3    H264283   5.728   4.368   5.772 -1.0301  0.5800  1.0652
14290TIP3   OH264284   2.769   4.288  12.719  0.3342  0.8541 -0.0116
14290TIP3    H164285   2.791   4.195  12.731  1.4350  0.6866 -2.7177
14290TIP3    H264286   2.676   4.294  12.739  0.4873 -0.6376  1.2259
14291TIP3   OH264287   2.777   1.979  13.428  0.0288  0.0312 -0.4270
14291TIP3    H164288   2.856   2.003  13.379 -0.1793  1.0922 -0.2453
14291TIP3    H264289   2.727   1.924  13.367  0.2699  0.4708 -1.0219
14292TIP3   OH264290   4.891   1.675   3.349 -0.0645  0.3503 -0.5800
14292TIP3    H164291   4.871   1.623   3.427  1.9443  0.3181 -0.0504
14292TIP3    H264292   4.954   1.621   3.301  1.4307  1.9099 -0.4189
14293TIP3   OH264293   4.402   6.450  11.251 -0.1950 -0.4960 -0.1837
14293TIP3    H164294   4.409   6.531  11.199  0.5047  0.2098  1.0043
14293TIP3    H264295   4.485   6.405  11.237 -0.7000 -1.1681 -1.0823
14294TIP3   OH264296   6.366   3.192  12.398  0.0626  0.6105  0.2026
14294TIP3    H164297   6.369   3.240  12.316 -0.0667  1.1269  0.4995
14294TIP3    H264298   6.273   3.175  12.414  0.2450 -1.5926 -0.9729
14295TIP3   OH264299   6.600   0.020  15.712  0.0811  0.2322  0.7388
14295TIP3    H164300   6.562  -0.067  15.697 -1.1443  1.2180 -2.2411
14295TIP3    H264301   6.657   0.008  15.788 -0.5778 -3.0062  0.8180
14296TIP3   OH264302   3.037   5.477   0.295  0.0589 -0.3752 -0.8008
14296TIP3    H164303   3.066   5.568   0.285  3.3783 -1.4364 -1.7446
14296TIP3    H264304   3.071   5.432   0.217 -0.9006 -2.5574 -0.0106
14297TIP3   OH264305   2.523   4.265   3.946 -0.1194  0.0310 -0.2241
14297TIP3    H164306   2.533   4.189   3.888  0.8470  0.8582 -1.1620
14297TIP3    H264307   2.612   4.289   3.970 -0.4698  0.3400  0.7681
14298TIP3   OH264308   2.313   5.712  15.902  0.1409  0.0697 -0.1953
14298TIP3    H164309   2.371   5.710  15.826 -0.9562  0.5053 -1.0506
14298TIP3    H264310   2.333   5.631  15.949  0.2490 -0.6161 -1.3906
14299TIP3   OH264311   3.877   1.957  16.423 -0.1593  0.0193  0.3217
14299TIP3    H164312   3.878   2.008  16.343  0.0133 -2.6726 -1.4640
14299TIP3    H264313   3.966   1.962  16.457 -0.6304  2.5039  1.2711
14300TIP3   OH264314   4.782   3.547  12.915 -0.1995 -0.1777  0.7306
14300TIP3    H164315   4.735   3.500  12.984  1.3336 -0.7580  1.3960
14300TIP3    H264316   4.832   3.479  12.869 -0.0478  0.4223 -0.0083
14301TIP3   OH264317   1.164   2.829   2.576 -0.1919  0.0220  0.3541
14301TIP3    H164318   1.098   2.899   2.580  0.8236  0.9532  0.9280
14301TIP3    H264319   1.184   2.820   2.483  0.9460  1.7041  0.4216
14302TIP3   OH264320   0.182   6.198  14.937 -0.3444 -0.1689 -0.1452
14302TIP3    H164321   0.169   6.279  14.986 -1.4212 -0.2697 -0.2468
14302TIP3    H264322   0.277   6.188  14.930 -0.2155  1.2602 -0.4216
14303TIP3   OH264323   2.491   4.328  12.757 -0.0952 -0.8232 -0.2882
14303TIP3    H164324   2.405   4.307  12.720  0.4677 -0.5802 -1.7628
14303TIP3    H264325   2.486   4.297  12.847 -1.1398 -2.4164 -0.8637
14304TIP3   OH264326   0.794   4.722   3.166  0.3753 -0.4310 -0.6677
14304TIP3    H164327   0.701   4.697   3.168  0.1081  0.6183  0.6136
14304TIP3    H264328   0.805   4.777   3.243  2.9559 -3.6910  1.4205
14305TIP3   OH264329   1.356   3.572   3.911 -1.3183 -0.3562  0.3814
14305TIP3    H164330   1.399   3.654   3.889 -2.3432  0.9298  2.9742
14305TIP3    H264331   1.263   3.594   3.918 -1.3010 -1.1142  3.6949
14306TIP3   OH264332   5.951   3.333  10.610 -0.0975  0.0676  0.5306
14306TIP3    H164333   6.012   3.303  10.543 -0.4237 -2.3860  1.2834
14306TIP3    H264334   5.909   3.410  10.572  1.5237  0.2041 -1.0626
14307TIP3   OH264335   0.417   1.403  12.423 -0.4283 -0.0502 -0.8086
14307TIP3    H164336   0.487   1.349  12.459 -0.6320  1.0822  1.3218
14307TIP3    H264337   0.377   1.348  12.355  0.9308 -1.6242 -0.3591
14308TIP3   OH264338   6.193   2.428   2.895  0.1509  0.4202 -0.0844
14308TIP3    H164339   6.213   2.514   2.860 -0.2108  0.5292 -0.0256
14308TIP3    H264340   6.256   2.415   2.966  0.1197  0.6900 -0.0097
14309TIP3   OH264341   2.446   6.502  14.239 -0.3595 -0.0008  0.1659
14309TIP3    H164342   2.403   6.466  14.162 -2.0579  0.6497  0.7879
14309TIP3    H264343   2.461   6.427  14.296  0.7116 -0.4515 -0.7001
14310TIP3   OH264344   4.171   2.146  16.033 -0.0066  0.0229  0.5370
14310TIP3    H164345   4.084   2.138  15.995  0.3776 -1.4418 -0.0963
14310TIP3    H264346   4.212   2.218  15.985 -0.5613  0.1263  0.2135
14311TIP3   OH264347   5.866   1.234  16.447 -0.4811 -0.6239  0.0217
14311TIP3    H164348   5.828   1.147  16.462 -1.7602 -0.0613  0.1492
14311TIP3    H264349   5.851   1.281  16.529 -1.0906  0.1771 -0.5477
14312TIP3   OH264350   6.438   5.502  14.434 -0.5573 -0.9156  0.1108
14312TIP3    H164351   6.511   5.564  14.429 -0.5394 -0.7400  1.9804
14312TIP3    H264352   6.472   5.422  14.394 -0.1820 -0.0728 -1.2584
14313TIP3   OH264353   2.134   1.645   6.478  0.5476  0.3304  0.8041
14313TIP3    H164354   2.225   1.675   6.479  0.8496 -0.5563  0.1388
14313TIP3    H264355   2.139   1.553   6.451 -0.3969 -0.2482  2.5162
14314TIP3   OH264356   4.569   4.801  15.510 -0.6215 -0.3097 -0.0794
14314TIP3    H164357   4.540   4.866  15.446 -1.6519 -0.0211  0.6634
14314TIP3    H264358   4.634   4.848  15.564 -0.7723 -0.1364 -0.0486
14315TIP3   OH264359   2.547   5.341  13.955  0.0411  0.1552  0.1075
14315TIP3    H164360   2.514   5.394  13.882 -4.2813 -2.2092  0.1522
14315TIP3    H264361   2.529   5.394  14.033  3.3739  2.0681 -0.3089
14316TIP3   OH264362   2.578   4.680  16.966  0.5277  0.1313  0.4905
14316TIP3    H164363   2.631   4.612  17.006 -0.4085 -0.8233  0.1107
14316TIP3    H264364   2.636   4.757  16.964  1.6420 -0.6869  0.7503
14317TIP3   OH264365   2.771   4.259  11.660  0.2420  0.1787  0.3446
14317TIP3    H164366   2.840   4.215  11.709  0.9727 -0.1084 -0.9162
14317TIP3    H264367   2.803   4.262  11.570 -2.0344 -1.3647 -0.5866
14318TIP3   OH264368   6.034   2.972   3.075 -0.9430  0.3505 -0.5493
14318TIP3    H164369   6.076   3.050   3.040 -2.0423  0.1513 -2.3903
14318TIP3    H264370   6.039   2.908   3.003  0.3712 -1.4435  1.0826
14319TIP3   OH264371   0.229   0.746  14.498  0.1095 -0.7586 -0.4105
14319TIP3    H164372   0.179   0.798  14.561  1.5994 -0.9712  1.0015
14319TIP3    H264373   0.196   0.657  14.509 -0.9254 -0.4872 -1.2681
14320TIP3   OH264374   0.994   4.232  11.328 -0.1511 -0.0007  0.1072
14320TIP3    H164375   0.974   4.313  11.280  1.3054  0.6885  0.6035
14320TIP3    H264376   1.050   4.182  11.268 -1.7595 -1.0551 -0.5407
14321TIP3   OH264377   2.041   0.214  11.354 -0.1522 -0.4309 -0.4408
14321TIP3    H164378   1.965   0.203  11.411  0.3156 -1.9499 -0.0860
14321TIP3    H264379   2.079   0.126  11.347  2.3732  0.5234  0.5191
14322TIP3   OH264380   3.385   6.190   5.447  0.6124 -0.2484 -0.6253
14322TIP3    H164381   3.426   6.236   5.520 -0.5401  0.5854 -0.4838
14322TIP3    H264382   3.427   6.225   5.369 -0.1320  0.9250 -0.5081
14323TIP3   OH264383   2.710   0.042  13.053  0.0034  0.1379 -0.2789
14323TIP3    H164384   2.794   0.087  13.067 -1.1015  1.7514  1.2420
14323TIP3    H264385   2.708   0.026  12.958  2.1795 -0.2669 -0.2974
14324TIP3   OH264386   3.994   4.314   4.723 -0.1198  0.0300 -0.0080
14324TIP3    H164387   3.958   4.308   4.635  2.9006  1.2966 -1.4222
14324TIP3    H264388   4.047   4.394   4.721  1.0137 -0.6108  2.5525
14325TIP3   OH264389   6.026   6.530   4.190  0.0102  0.0139  0.7132
14325TIP3    H164390   5.961   6.552   4.123  0.5304  0.1549  0.2567
14325TIP3    H264391   5.974   6.519   4.270 -0.6775 -0.6985  0.1780
14326TIP3   OH264392   2.884   4.598  15.231  0.0482 -0.1400 -0.6273
14326TIP3    H164393   2.899   4.605  15.137  1.9853  3.6282 -0.1244
14326TIP3    H264394   2.802   4.645  15.247  0.0290 -0.2658 -0.3391
14327TIP3   OH264395   2.829   3.618  16.205 -0.2135  0.3241  0.1253
14327TIP3    H164396   2.873   3.694  16.242  2.9756 -1.0740 -0.5853
14327TIP3    H264397   2.843   3.627  16.110  0.3486 -1.1722  0.0496
14328TIP3   OH264398   4.100   0.015  12.925  0.2983 -0.0820 -0.2312
14328TIP3    H164399   4.166  -0.036  12.972 -0.9118 -0.4671  1.0997
14328TIP3    H264400   4.131   0.017  12.834  1.7169 -0.9243  0.2220
14329TIP3   OH264401   2.955   1.398  14.102  0.2830 -0.5929 -0.2251
14329TIP3    H164402   2.865   1.372  14.080 -0.3618  0.2424  1.3826
14329TIP3    H264403   3.007   1.320  14.083 -0.9549 -1.4950  0.0262
14330TIP3   OH264404   0.451   2.105  15.889 -0.4810 -0.4801 -0.0361
14330TIP3    H164405   0.387   2.175  15.889 -0.0712 -0.1016 -0.7801
14330TIP3    H264406   0.464   2.083  15.797  1.5201  0.4350  0.0000
14331TIP3   OH264407   1.619   2.671  17.156 -0.3363 -0.3163  0.3165
14331TIP3    H164408   1.704   2.642  17.123 -0.6176 -0.2763 -0.4581
14331TIP3    H264409   1.617   2.642  17.247  0.5499 -0.2316  0.3682
14332TIP3   OH264410   2.237   0.688   6.861 -0.0223  0.1370 -0.4730
14332TIP3    H164411   2.258   0.691   6.767  0.9820  0.3492 -0.2490
14332TIP3    H264412   2.247   0.596   6.885 -0.9976 -0.0438 -0.7240
14333TIP3   OH264413   6.199   0.246  17.212  0.2265 -0.0166 -0.1441
14333TIP3    H164414   6.180   0.330  17.255  0.1703  0.8303 -1.7661
14333TIP3    H264415   6.280   0.262  17.163  1.0410 -1.3725  0.7046
14334TIP3   OH264416   6.474   2.522   5.102  0.3613 -0.4636  0.4135
14334TIP3    H164417   6.532   2.483   5.167 -1.0633  0.0439  2.0471
14334TIP3    H264418   6.457   2.610   5.135  0.3916  0.1449 -1.1672
14335TIP3   OH264419   4.903   1.622   3.929  0.6242 -0.5324  0.1055
14335TIP3    H164420   4.837   1.567   3.886  1.8529 -1.2586 -0.8738
14335TIP3    H264421   4.852   1.693   3.969 -0.6617 -0.5606 -1.4298
14336TIP3   OH264422   4.567   5.738   5.204 -0.3343 -0.1686  0.6832
14336TIP3    H164423   4.605   5.801   5.143  0.1772 -0.9339  0.1954
14336TIP3    H264424   4.617   5.658   5.190 -1.2889 -0.8227  0.9399
14337TIP3   OH264425   6.135   2.755  16.531  0.3006 -0.0443  0.4053
14337TIP3    H164426   6.219   2.797  16.552 -1.1515  2.3170  1.6730
14337TIP3    H264427   6.133   2.753  16.436  1.1768  1.1806  0.3487
14338TIP3   OH264428   3.497   5.633  10.595  0.0014 -0.4035 -0.0976
14338TIP3    H164429   3.447   5.682  10.660 -1.1069 -0.7995 -0.6402
14338TIP3    H264430   3.583   5.620  10.636 -0.4636 -0.0586  1.0070
14339TIP3   OH264431   6.186   6.656   3.555 -0.2011  0.7270 -0.0205
14339TIP3    H164432   6.196   6.577   3.609 -0.9042 -0.3996 -1.4904
14339TIP3    H264433   6.179   6.727   3.618  0.1986 -0.4161  1.3509
14340TIP3   OH264434   3.500   4.896   2.435  0.0550  0.2267  0.4271
14340TIP3    H164435   3.440   4.950   2.384  0.2340 -0.0365 -0.0643
14340TIP3    H264436   3.446   4.863   2.507  0.0530  1.3958  0.9656
14341TIP3   OH264437   6.232   5.082   2.819 -0.4082 -0.7820  0.3532
14341TIP3    H164438   6.288   5.071   2.742 -0.7538 -0.4835  0.0632
14341TIP3    H264439   6.292   5.073   2.893  0.3548  1.4146  0.0199
14342TIP3   OH264440   1.656   5.088  15.436 -0.2991 -0.2212 -0.0331
14342TIP3    H164441   1.645   5.075  15.530 -1.5416 -3.0783 -0.5135
14342TIP3    H264442   1.573   5.128  15.407  0.2177  0.9827  0.1178
14343TIP3   OH264443   3.260   2.356   0.237 -0.0528 -0.0867  0.0191
14343TIP3    H164444   3.249   2.407   0.157  0.1513  0.1040  0.1114
14343TIP3    H264445   3.196   2.285   0.229  0.4310 -0.4581 -0.6168
14344TIP3   OH264446   0.479   2.741  13.081 -0.0116  0.0953 -0.4396
14344TIP3    H164447   0.424   2.764  13.006  0.1863 -1.5688 -1.1159
14344TIP3    H264448   0.568   2.740  13.046  0.1812  0.2874  0.0498
14345TIP3   OH264449   5.239   5.143   0.249  0.3840  0.1540  0.3422
14345TIP3    H164450   5.317   5.194   0.272 -0.4394  0.8313  1.6920
14345TIP3    H264451   5.166   5.193   0.287 -0.7953 -0.0089 -1.6631
14346TIP3   OH264452   3.937   4.828  13.714  0.3684  0.1882 -0.6517
14346TIP3    H164453   4.007   4.776  13.674 -0.0472  0.1658 -1.3683
14346TIP3    H264454   3.952   4.820  13.808  1.4333  0.3292 -0.8030
14347TIP3   OH264455   4.738   4.265   0.723  0.1448 -0.2229 -0.1781
14347TIP3    H164456   4.662   4.228   0.767 -0.5521 -0.3062 -1.4345
14347TIP3    H264457   4.774   4.328   0.786 -1.6854  0.7216 -0.0291
14348TIP3   OH264458   2.358   3.082   5.413  0.3491 -0.1044 -0.0640
14348TIP3    H164459   2.323   3.074   5.324  0.2858 -0.1320 -0.0359
14348TIP3    H264460   2.349   3.175   5.433 -0.4016 -0.2398  0.2359
14349TIP3   OH264461   2.495   5.493  14.168  0.3202 -0.4876  0.7693
14349TIP3    H164462   2.405   5.506  14.199  0.1785  0.6822 -0.0934
14349TIP3    H264463   2.540   5.575  14.187  0.9299 -0.6999  0.2832
14350TIP3   OH264464   0.224   4.138  12.720  0.2733 -0.4629  0.5137
14350TIP3    H164465   0.202   4.213  12.664 -1.7215 -2.0046 -0.8156
14350TIP3    H264466   0.139   4.107  12.752  1.2944 -0.4865  3.2692
14351TIP3   OH264467   1.736   1.517  12.878 -0.5140  0.2582  0.3970
14351TIP3    H164468   1.812   1.475  12.918  1.2795 -0.2006 -3.3131
14351TIP3    H264469   1.701   1.452  12.818 -3.4580  0.7225  1.5295
14352TIP3   OH264470   4.408   6.301  10.883 -0.1305 -0.1169  0.5691
14352TIP3    H164471   4.485   6.289  10.938 -0.9036 -2.5162  1.1936
14352TIP3    H264472   4.409   6.394  10.861  2.2337  0.1465  1.5901
14353TIP3   OH264473   3.801   6.550  10.969  0.0181 -0.0400  0.6378
14353TIP3    H164474   3.779   6.624  10.913 -1.8691 -1.2834 -0.3134
14353TIP3    H264475   3.897   6.546  10.968  0.0968  1.8434  0.0172
14354TIP3   OH264476   4.070   2.843  16.565  0.1545 -0.3380 -0.4305
14354TIP3    H164477   4.139   2.908  16.581 -0.6513 -0.2623  3.0997
14354TIP3    H264478   4.002   2.893  16.519  1.3010  0.2506 -1.5297
14355TIP3   OH264479   4.166   4.227  14.771 -0.1825 -0.2241 -0.3177
14355TIP3    H164480   4.222   4.264  14.702  1.1208 -1.6034 -0.0187
14355TIP3    H264481   4.102   4.174  14.724  2.2795 -3.2720 -0.3987
14356TIP3   OH264482   6.660   6.616   4.733  0.2832 -0.7147 -0.3447
14356TIP3    H164483   6.708   6.685   4.779  0.3908 -1.0596  0.0677
14356TIP3    H264484   6.568   6.635   4.751  0.2868 -0.3415 -0.7167
14357TIP3   OH264485   2.768   0.817  11.479 -0.2142  0.0061 -0.0351
14357TIP3    H164486   2.801   0.728  11.488 -1.1436 -0.2812  0.6003
14357TIP3    H264487   2.771   0.853  11.568 -2.2479 -0.2558  0.1542
14358TIP3   OH264488   0.705   4.129  13.470 -0.2630  0.0910 -0.0445
14358TIP3    H164489   0.787   4.085  13.448 -1.0260 -1.7334  0.5950
14358TIP3    H264490   0.732   4.206  13.520  1.1042  0.0035 -0.6262
14359TIP3   OH264491   6.541   3.768  12.638  0.0262  0.6011 -0.4967
14359TIP3    H164492   6.528   3.863  12.650 -2.4472  0.0910  1.2266
14359TIP3    H264493   6.636   3.757  12.637  0.3538  2.8607  1.5850
14360TIP3   OH264494   4.746   6.411   0.261 -0.5354  0.2433 -0.2128
14360TIP3    H164495   4.711   6.329   0.225 -2.7505  1.1539 -0.2691
14360TIP3    H264496   4.669   6.469   0.267  0.6798  1.7551  1.3881
14361TIP3   OH264497   6.082   5.753   5.236  0.6807 -0.1759  0.3492
14361TIP3    H164498   6.144   5.754   5.308 -0.5626 -0.9770  1.4394
14361TIP3    H264499   6.000   5.723   5.274 -0.7453  2.1079 -0.7905
14362TIP3   OH264500   0.031   3.019  11.872 -0.2227 -0.1755  0.1186
14362TIP3    H164501   0.052   2.944  11.817  0.3312 -1.8208  2.4997
14362TIP3    H264502  -0.064   3.017  11.881 -0.2740 -0.1508 -0.4123
14363TIP3   OH264503   2.307   0.483   1.659  0.8040  0.1837 -0.3395
14363TIP3    H164504   2.402   0.479   1.665  0.8013 -1.6635 -1.0777
14363TIP3    H264505   2.276   0.434   1.735  0.4893 -0.5129 -0.8998
14364TIP3   OH264506   5.435   6.300   6.247  0.1937  0.2749  0.2879
14364TIP3    H164507   5.369   6.369   6.238  0.4535  0.4758 -0.0877
14364TIP3    H264508   5.391   6.231   6.296  0.3291  1.2359  1.8098
14365TIP3   OH264509   1.491   3.508  12.293  0.5446 -0.0718  0.3649
14365TIP3    H164510   1.406   3.486  12.331  0.2444  0.9611  0.2994
14365TIP3    H264511   1.475   3.512  12.198  0.4574  0.9852  0.4154
14366TIP3   OH264512   0.722   0.883   5.393  0.5979  0.1686 -0.0366
14366TIP3    H164513   0.792   0.895   5.458  0.2671 -0.0500  0.3620
14366TIP3    H264514   0.733   0.793   5.363  0.1763 -0.0297  0.3965
14367TIP3   OH264515   3.285   2.972  12.049 -0.3499  0.5232 -0.2044
14367TIP3    H164516   3.254   3.062  12.041 -0.9428  0.2755 -0.6798
14367TIP3    H264517   3.331   2.971  12.133 -2.4641  0.6506  1.0104
14368TIP3   OH264518   4.974   4.670  16.320  0.4441  0.5445 -0.2063
14368TIP3    H164519   4.953   4.745  16.376  0.4020  0.4506 -0.0976
14368TIP3    H264520   5.030   4.706  16.251  0.6133  0.6336 -0.0231
14369TIP3   OH264521   6.006   0.075  17.069 -0.3916 -0.0463  0.2052
14369TIP3    H164522   5.955   0.126  17.005  2.0588  0.5678 -1.3386
14369TIP3    H264523   6.072   0.137  17.101 -0.3924 -0.9224  1.9145
14370TIP3   OH264524   6.533   6.383   0.719 -0.5294  0.1793  0.1676
14370TIP3    H164525   6.474   6.372   0.645  0.0779  2.4767 -0.7295
14370TIP3    H264526   6.501   6.323   0.786 -1.5289 -1.4075 -1.6869
14371TIP3   OH264527   3.579   6.579   4.482 -0.6925 -0.0035 -0.4713
14371TIP3    H164528   3.522   6.526   4.539  0.9622  0.6668  1.9071
14371TIP3    H264529   3.518   6.626   4.425 -2.3731 -1.4946  0.0338
14372TIP3   OH264530   4.591   5.264   5.743  0.3608 -0.1739 -0.0060
14372TIP3    H164531   4.536   5.188   5.762  0.5698 -0.1668  0.6154
14372TIP3    H264532   4.648   5.272   5.819  0.5779  0.3936 -0.2295
14373TIP3   OH264533   0.881   2.365   3.615 -0.0162  0.4422  0.2908
14373TIP3    H164534   0.830   2.294   3.655 -1.7509  0.9630 -0.9428
14373TIP3    H264535   0.859   2.442   3.668 -0.4803  0.6597 -0.2163
14374TIP3   OH264536   4.602   5.795  13.365 -0.0991 -0.1882  0.0459
14374TIP3    H164537   4.596   5.762  13.275  2.3746 -0.1565 -0.1580
14374TIP3    H264538   4.658   5.872  13.358 -0.5568  0.2919  1.5093
14375TIP3   OH264539   1.890   0.639  13.218  0.0584  0.2202 -0.5831
14375TIP3    H164540   1.845   0.582  13.156  0.5194  0.2583 -0.9548
14375TIP3    H264541   1.959   0.584  13.256 -0.3704  0.1275  0.0698
14376TIP3   OH264542   4.307   2.667   3.046  0.0199 -0.3253 -0.1620
14376TIP3    H164543   4.321   2.678   3.140 -0.2537  1.3375 -0.2914
14376TIP3    H264544   4.212   2.669   3.035  0.0575 -0.1919 -0.4957
14377TIP3   OH264545   6.370   1.795  13.753  0.3255 -0.1069  0.0957
14377TIP3    H164546   6.303   1.807  13.820 -0.3704 -3.3319  0.0411
14377TIP3    H264547   6.328   1.821  13.671  0.1315  0.7532  0.4697
14378TIP3   OH264548   4.477   6.701   5.088  0.4473 -0.5414 -0.1038
14378TIP3    H164549   4.488   6.664   5.175 -1.4610 -2.1280 -0.4854
14378TIP3    H264550   4.560   6.681   5.043  0.5928 -1.7032  0.6581
14379TIP3   OH264551   6.724   1.712  16.733  0.5506  0.1027  0.4879
14379TIP3    H164552   6.791   1.647  16.712 -0.0158 -0.2319 -0.2496
14379TIP3    H264553   6.767   1.796  16.717  0.3307 -0.1353 -1.3592
14380TIP3   OH264554   1.557   5.428   1.118  0.5740  0.3163  0.0077
14380TIP3    H164555   1.473   5.409   1.159  1.2153 -0.3847  1.0249
14380TIP3    H264556   1.563   5.365   1.045 -0.4633  1.4116 -1.0520
14381TIP3   OH264557   2.117   4.268  17.129 -0.2846 -0.0846  0.0315
14381TIP3    H164558   2.051   4.321  17.085 -0.9239 -0.5379  0.4479
14381TIP3    H264559   2.188   4.260  17.064  0.0974  1.7921  0.1754
14382TIP3   OH264560   6.226   4.551   6.043  0.0836  0.6990  0.3777
14382TIP3    H164561   6.271   4.518   6.121 -0.9015  1.3221  1.2181
14382TIP3    H264562   6.180   4.629   6.072  0.4250  1.4568 -1.0482
14383TIP3   OH264563   5.167   2.372  16.333  0.4315 -0.2546  0.4099
14383TIP3    H164564   5.159   2.281  16.304 -1.9998 -0.1803  0.7137
14383TIP3    H264565   5.162   2.367  16.429  0.2588  0.1958  0.4230
14384TIP3   OH264566   6.150   3.240   4.274 -0.5256  0.0237 -0.2217
14384TIP3    H164567   6.192   3.193   4.202  0.3751 -1.6253  1.3412
14384TIP3    H264568   6.200   3.321   4.283  0.3847 -0.5249 -0.3725
14385TIP3   OH264569   1.055   5.668  13.196 -0.6259  0.4774 -0.4457
14385TIP3    H164570   1.005   5.717  13.262 -0.4442  1.0003 -0.6873
14385TIP3    H264571   1.089   5.592  13.242 -1.8379 -0.0061 -0.3237
14386TIP3   OH264572   4.354   6.057  14.717 -0.1793  0.3574  0.2317
14386TIP3    H164573   4.337   5.976  14.765 -2.0901 -0.9524 -2.5283
14386TIP3    H264574   4.384   6.029  14.631 -3.8414  2.4177 -1.8673
14387TIP3   OH264575   0.009   4.807  13.412  0.7927 -0.0872 -0.1667
14387TIP3    H164576  -0.005   4.731  13.469  0.5423  0.6090  0.7200
14387TIP3    H264577   0.038   4.876  13.472  1.0674  0.5018 -0.9713
14388TIP3   OH264578   0.683   3.570   3.574 -0.2073  1.0192  0.4785
14388TIP3    H164579   0.588   3.573   3.576 -0.5109 -2.2039 -3.0187
14388TIP3    H264580   0.706   3.489   3.619  0.6782  0.3876 -1.0620
14389TIP3   OH264581   0.459   0.352  15.253 -0.1750  0.3202  0.0811
14389TIP3    H164582   0.530   0.287  15.249 -2.5869 -2.4420  0.7535
14389TIP3    H264583   0.407   0.336  15.175 -0.9536  1.3058  0.3881
14390TIP3   OH264584   0.906   2.241   5.908  0.4646  0.1522  0.5661
14390TIP3    H164585   0.911   2.222   5.814  0.3019  0.5343  0.4808
14390TIP3    H264586   0.945   2.164   5.950  2.4374  0.8527  0.0893
14391TIP3   OH264587   5.117   2.067  17.042 -0.0558  0.3664 -0.0984
14391TIP3    H164588   5.062   2.012  17.096  0.3063 -0.0720 -0.1756
14391TIP3    H264589   5.135   2.015  16.964  1.2659  0.1269  0.3579
14392TIP3   OH264590   3.135   4.268  15.292  0.1897 -0.2097  0.0207
14392TIP3    H164591   3.189   4.344  15.313 -0.1356 -0.4848  1.9572
14392TIP3    H264592   3.175   4.231  15.214  1.8693  0.4997  0.5277
14393TIP3   OH264593   5.456   1.516  14.110 -0.3492 -0.6111 -0.3429
14393TIP3    H164594   5.376   1.477  14.144 -0.0878 -1.1883 -0.3840
14393TIP3    H264595   5.430   1.603  14.080 -0.7985 -0.4921  0.3720
14394TIP3   OH264596   1.853   4.921  15.779 -0.3023  0.1711  0.1717
14394TIP3    H164597   1.779   4.977  15.754  1.1352  1.1796 -1.9898
14394TIP3    H264598   1.896   4.969  15.850  1.1748  2.1152 -1.9624
14395TIP3   OH264599   4.143   1.845   4.536 -0.2815  0.2333 -0.1545
14395TIP3    H164600   4.177   1.787   4.468  0.3962  1.8876 -1.2503
14395TIP3    H264601   4.085   1.905   4.489  0.1308  1.3322  0.7338
14396TIP3   OH264602   2.921   6.496  14.288 -0.1448 -0.7158 -0.4086
14396TIP3    H164603   2.888   6.449  14.365 -2.4699 -2.4934 -2.4163
14396TIP3    H264604   2.853   6.560  14.268  0.9651  0.5012 -0.3573
14397TIP3   OH264605   2.302   1.252   0.398  0.2112  0.8677 -0.0753
14397TIP3    H164606   2.334   1.165   0.377  0.8451  0.5568  2.0211
14397TIP3    H264607   2.279   1.291   0.314  0.1137 -1.2435 -1.0418
14398TIP3   OH264608   2.378   5.305  11.554  0.1802  0.6370  0.2780
14398TIP3    H164609   2.289   5.269  11.565 -0.1286  1.2724 -0.1214
14398TIP3    H264610   2.399   5.288  11.462 -1.4594  4.7922 -0.9645
14399TIP3   OH264611   4.328   3.494  16.952  0.0176  0.0844  0.0016
14399TIP3    H164612   4.363   3.578  16.981 -0.2069 -0.2625  1.3217
14399TIP3    H264613   4.322   3.442  17.032  0.3122 -1.2440 -0.8253
14400TIP3   OH264614   1.398   1.522  16.181  0.0671  0.1516  0.4253
14400TIP3    H164615   1.306   1.516  16.155  0.2562 -0.5036 -0.0984
14400TIP3    H264616   1.413   1.445  16.236  0.1876  0.4918  0.8675
14401TIP3   OH264617   0.221   3.279  14.772 -0.1167  0.5079 -0.1151
14401TIP3    H164618   0.292   3.236  14.819  0.8201  1.8796 -0.2448
14401TIP3    H264619   0.166   3.208  14.740  1.2224 -0.5583 -0.0504
14402TIP3   OH264620   1.776   3.366   4.104 -0.0518 -0.0142 -0.0053
14402TIP3    H164621   1.723   3.414   4.168  1.1763  1.3449  0.0161
14402TIP3    H264622   1.866   3.388   4.127  0.4529 -0.7246 -1.2753
14403TIP3   OH264623   3.018   4.876   6.509  0.0085  0.5961  0.5984
14403TIP3    H164624   2.975   4.804   6.556 -1.4230  1.5726  0.8355
14403TIP3    H264625   3.110   4.851   6.505  0.1278  0.3549  3.7035
14404TIP3   OH264626   6.157   2.546   0.286 -0.9418 -0.1525  0.2067
14404TIP3    H164627   6.132   2.527   0.196  1.3853  0.6885 -0.6558
14404TIP3    H264628   6.172   2.640   0.288 -1.3303 -0.0993  1.5713
14405TIP3   OH264629   3.695   2.455   3.759  0.4051  0.0252  0.2315
14405TIP3    H164630   3.693   2.450   3.855 -1.1592 -1.2670  0.1574
14405TIP3    H264631   3.685   2.548   3.740 -2.8497 -0.0375  1.3173
14406TIP3   OH264632   1.501   3.775   0.042  0.0502  0.0389 -0.4230
14406TIP3    H164633   1.568   3.828   0.084  0.7139 -0.5393 -0.7331
14406TIP3    H264634   1.501   3.693   0.092 -0.0323 -0.1753 -0.7722
14407TIP3   OH264635   3.501   2.288  11.767  0.1370 -0.3544  0.2597
14407TIP3    H164636   3.510   2.253  11.678  1.3502 -0.9021  0.5802
14407TIP3    H264637   3.550   2.226  11.821  0.8104  0.8786  1.0781
14408TIP3   OH264638   5.631   3.140  13.922  0.1613  0.0835  0.2094
14408TIP3    H164639   5.700   3.099  13.975 -0.2410 -0.3393  0.4087
14408TIP3    H264640   5.634   3.232  13.948 -0.1281 -0.1421  1.0830
14409TIP3   OH264641   6.651   3.725  17.120  0.5816 -0.1168 -0.0302
14409TIP3    H164642   6.664   3.695  17.210  1.7153  0.3706 -0.0303
14409TIP3    H264643   6.656   3.820  17.125  2.6065 -0.1537 -0.9044
14410TIP3   OH264644   3.189   3.861  11.541 -0.5268  0.1925  0.0613
14410TIP3    H164645   3.209   3.767  11.546 -0.4004  0.2451  0.4995
14410TIP3    H264646   3.129   3.877  11.614 -1.2580  0.2726 -0.5503
14411TIP3   OH264647   4.794   2.872   6.408 -0.3306  0.4919 -0.0898
14411TIP3    H164648   4.751   2.955   6.426 -0.6520  0.2855  0.0944
14411TIP3    H264649   4.739   2.831   6.340 -0.0428  0.5376 -0.3482
14412TIP3   OH264650   1.515   5.124  11.230  0.0541 -0.4280  0.3912
14412TIP3    H164651   1.482   5.194  11.174  0.2848  0.9375  1.9489
14412TIP3    H264652   1.491   5.043  11.183  0.3851  0.6771 -1.7461
14413TIP3   OH264653   1.977   1.798   3.649 -0.1350  0.7912  0.2411
14413TIP3    H164654   2.050   1.833   3.597 -0.5434  2.2694  0.6380
14413TIP3    H264655   1.940   1.875   3.692 -0.8350 -0.1999  1.4202
14414TIP3   OH264656   3.732   3.970  12.699  0.1069 -0.3961 -0.3229
14414TIP3    H164657   3.684   3.987  12.780  0.2378  1.4469 -0.6102
14414TIP3    H264658   3.677   3.909  12.651 -1.7486  1.3065 -0.4310
14415TIP3   OH264659   6.640   2.541   1.410 -0.1010 -0.4500  0.2536
14415TIP3    H164660   6.575   2.591   1.461 -0.6363  0.2758 -1.1092
14415TIP3    H264661   6.616   2.450   1.424 -1.4257 -0.1872 -0.2113
14416TIP3   OH264662   3.071   3.207  12.423 -0.0172 -0.4058 -0.1275
14416TIP3    H164663   3.153   3.180  12.380 -0.5038 -2.7662  0.3471
14416TIP3    H264664   3.008   3.139  12.399 -0.8455 -0.6550  2.6185
14417TIP3   OH264665   4.554   6.693  14.953  0.0818  1.2098 -0.0343
14417TIP3    H164666   4.475   6.643  14.972  1.2110  0.6460  3.6070
14417TIP3    H264667   4.597   6.646  14.881 -0.2371 -1.5177  1.5207
14418TIP3   OH264668   1.422   3.410   4.531 -0.2764  0.2019  0.4456
14418TIP3    H164669   1.438   3.491   4.579  0.6146 -0.2337  0.9163
14418TIP3    H264670   1.415   3.343   4.599 -1.3430 -0.0678  0.0802
14419TIP3   OH264671   4.170   2.543   3.508  0.0619  0.1250  0.0486
14419TIP3    H164672   4.154   2.607   3.578  0.9380  0.9926 -0.5235
14419TIP3    H264673   4.233   2.587   3.450  1.7953 -1.8331  0.4017
14420TIP3   OH264674   1.023   5.207  16.799  0.1770 -0.3695  0.9828
14420TIP3    H164675   1.118   5.199  16.797  0.1401 -0.4742 -0.2319
14420TIP3    H264676   1.005   5.264  16.874  1.1487 -0.9834  1.6888
14421TIP3   OH264677   2.012   6.288  11.742  0.7314 -0.3834  0.9208
14421TIP3    H164678   1.997   6.377  11.711  2.6418 -0.1971  0.4500
14421TIP3    H264679   1.925   6.254  11.762  0.0140  1.7102  1.4606
14422TIP3   OH264680   5.401   1.307  11.857 -0.1211  0.5028 -0.7912
14422TIP3    H164681   5.312   1.336  11.838 -0.2877  0.4228 -0.1476
14422TIP3    H264682   5.425   1.252  11.782 -0.0936  1.6396 -1.6291
14423TIP3   OH264683   0.181   3.734  15.753 -0.1458  0.0071 -0.5544
14423TIP3    H164684   0.101   3.755  15.801 -0.2108  0.3996 -0.8306
14423TIP3    H264685   0.190   3.805  15.690  0.3467 -0.1128 -0.6169
14424TIP3   OH264686   1.543   3.605   2.112 -0.1400  0.2203 -0.1920
14424TIP3    H164687   1.573   3.556   2.035  0.9198 -0.6054  0.7228
14424TIP3    H264688   1.609   3.586   2.179 -2.1768 -0.8446  1.5796
14425TIP3   OH264689   0.632   3.712  13.555 -0.2880  0.0752 -0.1497
14425TIP3    H164690   0.711   3.756  13.588  0.0541 -0.0397 -0.8179
14425TIP3    H264691   0.563   3.742  13.614  0.0384  1.1045 -0.2668
14426TIP3   OH264692   3.859   0.227   0.926  0.5864 -0.2042  0.0158
14426TIP3    H164693   3.885   0.316   0.953 -0.0551  0.6285 -2.0008
14426TIP3    H264694   3.775   0.212   0.969 -0.8983  1.4848 -2.1622
14427TIP3   OH264695   5.727   1.109  13.893 -0.9284  0.5714 -0.4689
14427TIP3    H164696   5.807   1.129  13.942  1.1509 -1.3520 -2.9451
14427TIP3    H264697   5.714   1.186  13.837  0.3817  0.0428 -1.5305
14428TIP3   OH264698   2.947   1.492   5.621 -0.1891  0.3210  0.8540
14428TIP3    H164699   2.867   1.519   5.667  0.3985  0.6641  1.6915
14428TIP3    H264700   2.985   1.425   5.677  0.0707  0.1024  0.4172
14429TIP3   OH264701   5.348   3.274  13.718  0.4881  0.9811  0.1745
14429TIP3    H164702   5.411   3.201  13.714  1.0125  1.4791 -0.7412
14429TIP3    H264703   5.342   3.305  13.628  0.0698  1.9174  0.5244
14430TIP3   OH264704   3.827   6.256   2.480  0.5846  0.4145  0.7653
14430TIP3    H164705   3.921   6.269   2.468  0.5703 -0.6227 -0.7358
14430TIP3    H264706   3.809   6.172   2.438 -1.2292  1.2026 -0.1200
14431TIP3   OH264707   6.177   4.895  16.684 -0.5458 -0.0239 -0.0937
14431TIP3    H164708   6.119   4.950  16.738  2.0875  1.0981  1.6904
14431TIP3    H264709   6.258   4.890  16.734  1.1241 -1.0560 -2.8200
14432TIP3   OH264710   5.688   1.912   3.294  0.8131  0.1494 -0.4737
14432TIP3    H164711   5.603   1.907   3.338  1.2850  1.4099  0.5992
14432TIP3    H264712   5.746   1.856   3.347  1.2161  1.1288  0.1240
14433TIP3   OH264713   5.177   1.027   5.433 -0.6015 -0.2931  0.2391
14433TIP3    H164714   5.104   0.980   5.393 -0.6808  0.2191 -0.2215
14433TIP3    H264715   5.210   1.084   5.364  1.1219 -1.5267  0.0130
14434TIP3   OH264716   0.428   4.868   0.076  0.1448 -0.3991  0.0843
14434TIP3    H164717   0.447   4.778   0.099  1.6076  0.4693  2.3824
14434TIP3    H264718   0.358   4.894   0.136  0.5357  0.3614  0.2137
14435TIP3   OH264719   4.819   0.566  10.664  0.2128 -0.1962 -0.1817
14435TIP3    H164720   4.858   0.645  10.627 -2.1195 -0.1307 -2.6979
14435TIP3    H264721   4.881   0.496  10.644  1.5670  0.7330  0.7056
14436TIP3   OH264722   6.079   5.002  12.197  0.0488 -0.7107 -0.4854
14436TIP3    H164723   6.132   4.954  12.134  2.5142 -0.4772  1.3626
14436TIP3    H264724   6.055   4.937  12.262  1.3833  0.0158  0.7549
14437TIP3   OH264725   0.428   1.807  13.029  0.1327 -0.0744 -0.2452
14437TIP3    H164726   0.509   1.846  13.063  0.8701 -0.8900 -1.0295
14437TIP3    H264727   0.365   1.879  13.031  0.9613  0.6639  0.0823
14438TIP3   OH264728   6.718   2.726  12.382 -0.1473  0.4397  0.1581
14438TIP3    H164729   6.791   2.667  12.399 -0.5904 -0.3000 -0.4714
14438TIP3    H264730   6.741   2.773  12.302  1.6520  3.4676  2.3524
14439TIP3   OH264731   5.290   2.380  12.663 -0.3628  0.0436  0.7898
14439TIP3    H164732   5.317   2.338  12.745 -2.3643  0.1811  1.5503
14439TIP3    H264733   5.283   2.308  12.601  1.7447  0.0124  0.5568
14440TIP3   OH264734   1.290   1.422  13.858 -0.2184  0.4284 -0.4801
14440TIP3    H164735   1.200   1.402  13.885 -0.7843  1.0562 -1.8585
14440TIP3    H264736   1.306   1.364  13.784  0.3049  0.7248 -0.5997
14441TIP3   OH264737   0.362   4.773   4.964 -0.3094  0.4229  0.3327
14441TIP3    H164738   0.269   4.796   4.964 -0.4431 -0.0719 -1.2825
14441TIP3    H264739   0.389   4.781   4.873 -0.0293 -4.3380 -0.1273
14442TIP3   OH264740   3.258   2.210   3.489  0.3732  0.0863  0.0399
14442TIP3    H164741   3.194   2.280   3.476  0.1604 -0.0914  0.1221
14442TIP3    H264742   3.307   2.238   3.567 -0.2275 -0.2348  0.5394
14443TIP3   OH264743   1.670   2.212   4.251 -0.8559 -0.1642  0.2474
14443TIP3    H164744   1.611   2.137   4.245 -1.7988  0.6852 -1.4514
14443TIP3    H264745   1.621   2.278   4.300 -0.1319 -0.5471  1.5005
14444TIP3   OH264746   4.839   4.043   1.291 -0.5967 -0.1897 -0.3160
14444TIP3    H164747   4.826   4.010   1.380 -0.8339  0.5785 -0.0590
14444TIP3    H264748   4.924   4.008   1.265  0.2917  0.9926  0.8811
14445TIP3   OH264749   6.271   3.470   0.169 -0.3278 -0.4743 -0.2938
14445TIP3    H164750   6.202   3.467   0.103  1.2527 -0.2713 -1.9775
14445TIP3    H264751   6.240   3.534   0.233 -1.4506  0.0061 -1.3016
14446TIP3   OH264752   1.572   0.280  13.487  0.0777  0.0851  0.3368
14446TIP3    H164753   1.570   0.338  13.411 -1.5425  1.2390  1.2350
14446TIP3    H264754   1.558   0.193  13.450  1.0910  0.4172 -0.8686
14447TIP3   OH264755   5.981   2.987   0.382  0.3606 -0.1394  0.3128
14447TIP3    H164756   5.934   3.009   0.302  0.2880 -0.5220  0.2505
14447TIP3    H264757   6.071   3.014   0.364  0.3008 -0.0249  0.1809
14448TIP3   OH264758   5.384   1.544  16.938  0.2188 -0.2800 -0.3667
14448TIP3    H164759   5.473   1.526  16.908 -0.2691  1.6468 -3.2213
14448TIP3    H264760   5.358   1.465  16.985  3.4553 -0.8179  0.6308
14449TIP3   OH264761   6.205   0.876   0.974  0.2054  0.1240  0.2471
14449TIP3    H164762   6.247   0.958   1.001 -0.1086  0.6564 -0.8633
14449TIP3    H264763   6.111   0.896   0.976  0.0657 -0.6449  1.3716
14450TIP3   OH264764   2.363   4.443   3.247  0.1550  0.0281  0.6051
14450TIP3    H164765   2.375   4.519   3.190  0.5626  0.7185  1.5948
14450TIP3    H264766   2.291   4.394   3.207 -1.2090  1.7931  0.8681
14451TIP3   OH264767   4.368   2.628  16.813 -0.1159  0.1248  0.2824
14451TIP3    H164768   4.379   2.625  16.718 -2.1372 -1.0088  0.0581
14451TIP3    H264769   4.438   2.572  16.847 -0.0454 -0.3263 -0.5901
14452TIP3   OH264770   6.471   0.691  13.515 -0.1803  0.2781 -0.9152
14452TIP3    H164771   6.488   0.784  13.530 -1.3558  0.2349  0.9597
14452TIP3    H264772   6.558   0.652  13.509  0.4237  1.0085  1.8712
14453TIP3   OH264773   5.593   4.596  16.784  0.0274 -0.1559 -0.1209
14453TIP3    H164774   5.558   4.604  16.695  1.9157 -2.8831 -1.1818
14453TIP3    H264775   5.661   4.663  16.789 -0.7638  0.6802 -0.3647
14454TIP3   OH264776   3.784   1.935  13.416 -0.1116  0.4066  0.4365
14454TIP3    H164777   3.767   2.006  13.354 -0.7577  0.1988  0.3702
14454TIP3    H264778   3.851   1.970  13.475 -1.5805  1.6706  1.3955
14455TIP3   OH264779   6.270   3.454  15.527 -0.3844  0.0719 -0.4142
14455TIP3    H164780   6.334   3.517  15.495 -0.4062  0.1648 -0.2806
14455TIP3    H264781   6.246   3.487  15.614  0.9222 -1.0881  0.4069
14456TIP3   OH264782   6.419   5.937  12.707 -0.5939  0.0583 -0.0282
14456TIP3    H164783   6.507   5.905  12.726 -0.5516 -0.5033 -1.1629
14456TIP3    H264784   6.362   5.886  12.765 -0.3996 -1.2037 -0.9258
14457TIP3   OH264785   1.546   4.610  13.361 -0.6196  0.1022  0.5459
14457TIP3    H164786   1.617   4.665  13.328 -0.9193  0.6227  0.7541
14457TIP3    H264787   1.528   4.549  13.290 -0.9781  0.9422 -0.1004
14458TIP3   OH264788   0.445   4.407   2.537  0.1706  0.3977  0.0698
14458TIP3    H164789   0.504   4.355   2.483  1.8298  2.5353 -0.2849
14458TIP3    H264790   0.493   4.418   2.620 -0.9817 -0.2027  0.8336
14459TIP3   OH264791   3.654   0.069  12.948 -0.2434  0.1090 -0.1004
14459TIP3    H164792   3.565   0.040  12.966 -0.5619  1.5172  0.6328
14459TIP3    H264793   3.644   0.146  12.892  0.4714  0.6900  0.5420
14460TIP3   OH264794   0.260   4.953  13.469  0.3519 -0.0955  0.6317
14460TIP3    H164795   0.181   5.001  13.491  0.3779 -0.6001  1.8580
14460TIP3    H264796   0.230   4.863  13.453  0.3400  0.2350 -1.3654
14461TIP3   OH264797   2.708   5.036   4.366  0.4866  0.1537 -0.3139
14461TIP3    H164798   2.674   5.088   4.294  1.0690 -0.0200 -0.7158
14461TIP3    H264799   2.803   5.035   4.353  0.8882  2.3997  1.9556
14462TIP3   OH264800   3.412   4.908  11.984 -0.5782  1.0132 -0.1489
14462TIP3    H164801   3.389   4.916  11.892 -0.2350  0.1381 -0.3229
14462TIP3    H264802   3.457   4.823  11.990 -0.5519  1.0854  0.8093
14463TIP3   OH264803   6.375   4.771  10.236  0.1294 -0.3526  0.1949
14463TIP3    H164804   6.308   4.713  10.273  0.3534 -0.3442  0.6153
14463TIP3    H264805   6.360   4.855  10.277  0.0247 -0.1970 -0.1558
14464TIP3   OH264806   2.018   4.769  16.418 -0.1363  0.7872 -0.1426
14464TIP3    H164807   2.070   4.698  16.454  0.4986  1.0975 -0.4350
14464TIP3    H264808   1.956   4.725  16.359 -0.2840  0.4096  0.2911
14465TIP3   OH264809   6.020   1.037  13.368  0.9783  0.4353 -0.4118
14465TIP3    H164810   5.993   1.040  13.276 -1.2321  0.3795  0.2009
14465TIP3    H264811   5.946   1.074  13.416  2.0166  0.2634  1.3666
14466TIP3   OH264812   0.241   6.036  14.070  0.0551  0.0952 -0.5554
14466TIP3    H164813   0.245   5.975  14.144  0.4408  0.7527 -0.0296
14466TIP3    H264814   0.329   6.071  14.063 -0.8499  2.7949  1.0085
14467TIP3   OH264815   2.069   4.453   3.268  0.1086  0.1429 -0.8145
14467TIP3    H164816   2.078   4.536   3.222 -3.5154  0.6437 -0.7286
14467TIP3    H264817   2.074   4.477   3.361  0.8601 -0.0116 -0.8073
14468TIP3   OH264818   3.661   5.533  12.462  0.1106  0.4197 -0.5625
14468TIP3    H164819   3.721   5.462  12.442  0.8586  0.7011  0.6325
14468TIP3    H264820   3.593   5.493  12.517 -0.1918  0.3431 -0.9898
14469TIP3   OH264821   5.569   6.139  13.598 -0.0722  0.0917 -0.3037
14469TIP3    H164822   5.515   6.126  13.520 -0.8922  0.6543  0.1715
14469TIP3    H264823   5.622   6.216  13.578  0.5606 -0.4401 -0.7547
14470TIP3   OH264824   2.140   3.189  14.346 -0.0044  0.2631 -0.1902
14470TIP3    H164825   2.134   3.227  14.434  1.4718 -0.4620  0.2445
14470TIP3    H264826   2.186   3.257  14.295  1.2118 -0.2599  0.1900
14471TIP3   OH264827   2.596   0.991   2.347 -0.2516 -0.1682  0.4182
14471TIP3    H164828   2.542   0.937   2.405 -0.1365  0.2326  0.8996
14471TIP3    H264829   2.557   1.078   2.352 -0.7533 -0.3173 -0.7662
14472TIP3   OH264830   5.663   4.851  10.837 -0.1549 -0.2449  0.5247
14472TIP3    H164831   5.745   4.898  10.852 -0.9026  0.7886  1.4958
14472TIP3    H264832   5.689   4.769  10.795  1.4597 -0.3645  1.7104
14473TIP3   OH264833   4.910   3.865  14.376  0.6210  0.2896  0.2098
14473TIP3    H164834   4.993   3.817  14.378  1.3632  1.5432 -0.0427
14473TIP3    H264835   4.934   3.953  14.348 -0.9906  0.2931 -1.2256
14474TIP3   OH264836   5.819   6.631   4.361  0.6524  0.3717  0.7068
14474TIP3    H164837   5.809   6.715   4.317  1.0853  0.6833  1.2033
14474TIP3    H264838   5.729   6.599   4.371  0.5973 -0.0276 -1.0194
14475TIP3   OH264839   2.023   2.520   0.144  0.4470  0.0050  0.6888
14475TIP3    H164840   2.007   2.565   0.227  0.4526 -0.1181  0.7565
14475TIP3    H264841   1.992   2.582   0.077  1.1649  0.4264  0.7434
14476TIP3   OH264842   2.687   1.630  13.808  0.2769 -0.0806  0.5414
14476TIP3    H164843   2.775   1.648  13.775 -0.2590  0.7882 -0.4484
14476TIP3    H264844   2.696   1.550  13.860  1.4113 -0.6722 -0.5420
14477TIP3   OH264845   1.889   1.898   3.175  0.1405 -0.0861  0.3275
14477TIP3    H164846   1.970   1.857   3.145  0.1720 -0.1186  0.4575
14477TIP3    H264847   1.889   1.884   3.270 -0.7740 -1.4532  0.1394
14478TIP3   OH264848   4.036   2.597   3.094 -0.1082 -0.5816 -0.5267
14478TIP3    H164849   3.945   2.569   3.106 -0.8610  2.0686  0.4655
14478TIP3    H264850   4.079   2.572   3.176  0.0106 -1.7226 -0.9430
14479TIP3   OH264851   6.173   6.067  10.547 -0.2070 -0.1634  0.1637
14479TIP3    H164852   6.162   6.111  10.462  2.5229  0.5921  0.1419
14479TIP3    H264853   6.151   6.133  10.612  0.9414  0.3116  0.0788
14480TIP3   OH264854   4.280   2.923   4.388  0.1762 -0.2233 -0.7902
14480TIP3    H164855   4.361   2.904   4.340 -0.1966 -0.8541 -1.1887
14480TIP3    H264856   4.212   2.924   4.320 -0.1842  0.0895 -0.4310
14481TIP3   OH264857   6.666   3.979   0.263  0.4373  0.2289 -0.3416
14481TIP3    H164858   6.627   4.012   0.182  1.6504  0.1615 -0.9695
14481TIP3    H264859   6.598   3.992   0.330 -0.9938 -0.7223 -1.5749
14482TIP3   OH264860   3.386   3.696   2.567 -0.3715 -0.3108 -0.0186
14482TIP3    H164861   3.457   3.697   2.631 -1.8346  1.5337  1.6411
14482TIP3    H264862   3.419   3.747   2.493  0.0370  0.5158  0.7314
14483TIP3   OH264863   4.998   1.922   3.808 -0.2744  0.1175 -0.2114
14483TIP3    H164864   4.993   1.846   3.866 -0.5883  0.0642 -0.3054
14483TIP3    H264865   5.029   1.887   3.725  5.1830  0.9441  1.2679
14484TIP3   OH264866   4.218   4.033   2.510  0.8816  0.1623  0.4937
14484TIP3    H164867   4.164   4.083   2.448  1.0547 -1.1143 -0.7165
14484TIP3    H264868   4.308   4.044   2.476  0.7558 -2.2534 -0.7343
14485TIP3   OH264869   4.914   4.356  15.732  0.4900 -0.4705  0.1030
14485TIP3    H164870   4.965   4.344  15.652  0.8082  0.3750  0.1787
14485TIP3    H264871   4.857   4.279  15.736 -2.5449  1.4288 -3.1689
14486TIP3   OH264872   6.331   2.644   2.006  0.1456  0.6805  0.1835
14486TIP3    H164873   6.345   2.561   2.051 -3.1469  0.9444  1.8515
14486TIP3    H264874   6.309   2.619   1.916 -0.3881 -0.2525  0.5645
14487TIP3   OH264875   1.076   5.556   1.832 -0.1565 -0.0070 -0.9158
14487TIP3    H164876   1.028   5.473   1.836  2.1900 -1.3717  0.2057
14487TIP3    H264877   1.061   5.596   1.918  0.3918 -0.2690 -0.6937
14488TIP3   OH264878   6.263   2.121  12.859  0.2360 -0.2467  0.2549
14488TIP3    H164879   6.334   2.089  12.915  2.0052  1.6239 -0.8405
14488TIP3    H264880   6.234   2.043  12.811  4.6876 -0.3203 -2.6450
14489TIP3   OH264881   0.200   2.523  14.168 -1.2481 -0.1000 -0.1006
14489TIP3    H164882   0.170   2.433  14.183 -1.4304 -0.2237 -1.1912
14489TIP3    H264883   0.296   2.515  14.162 -1.3801 -0.5389 -2.1889
14490TIP3   OH264884   2.984   1.026   5.210  1.0106  0.3750  0.2223
14490TIP3    H164885   3.058   1.085   5.224  0.9285  0.6890 -0.6676
14490TIP3    H264886   3.006   0.948   5.260  1.3427  0.9702  1.0154
14491TIP3   OH264887   4.018   0.973  13.122 -0.4498  0.0343 -0.2947
14491TIP3    H164888   3.995   1.057  13.161 -0.3913 -0.6498  1.2495
14491TIP3    H264889   4.025   0.913  13.196  1.2552 -0.9343 -1.1957
14492TIP3   OH264890   2.266   0.597  15.456 -0.1772  0.0031  0.4017
14492TIP3    H164891   2.331   0.602  15.526 -0.3606 -1.7146  0.7240
14492TIP3    H264892   2.186   0.632  15.495 -0.2620 -0.8901  1.0594
14493TIP3   OH264893   2.219   4.298  14.643  0.4568 -0.7283 -0.2110
14493TIP3    H164894   2.312   4.319  14.645  0.0381  1.3483 -1.0669
14493TIP3    H264895   2.176   4.371  14.687 -0.7381 -2.0115  0.8362
14494TIP3   OH264896   4.551   5.040   0.391 -0.4000 -0.0084 -0.0587
14494TIP3    H164897   4.491   5.027   0.318  1.5760 -0.8240 -1.6224
14494TIP3    H264898   4.591   5.126   0.375 -0.0452 -0.1403  0.0945
14495TIP3   OH264899   1.768   6.767   0.216 -0.2507 -0.1134 -0.2028
14495TIP3    H164900   1.710   6.840   0.192 -1.0301  0.0001  1.9121
14495TIP3    H264901   1.815   6.799   0.293  0.1757 -1.4558  0.0994
14496TIP3   OH264902   2.234   1.828  15.655  0.1501  0.2548 -0.5679
14496TIP3    H164903   2.167   1.795  15.715  1.7271 -1.0435  0.5208
14496TIP3    H264904   2.312   1.777  15.676  0.7459 -0.2614 -3.7644
14497TIP3   OH264905   6.635   4.025   4.829 -1.0295  0.0077 -0.2300
14497TIP3    H164906   6.619   3.983   4.745 -2.4126  1.1576 -0.5603
14497TIP3    H264907   6.627   3.955   4.894  0.9408 -1.0582 -1.1230
14498TIP3   OH264908   2.183   5.662   5.181 -0.1857 -0.2346  0.0755
14498TIP3    H164909   2.111   5.624   5.131 -1.8870  0.0666  2.2220
14498TIP3    H264910   2.159   5.754   5.191 -0.2389 -0.4513  2.0515
14499TIP3   OH264911   2.396   1.782   3.627 -0.2911  0.0337  0.3068
14499TIP3    H164912   2.362   1.714   3.685 -2.0655  0.5452 -0.1113
14499TIP3    H264913   2.420   1.854   3.686  3.2499 -1.5355  0.9424
14500TIP3   OH264914   5.025   6.322  10.707 -0.4014  0.3673  0.0632
14500TIP3    H164915   5.078   6.393  10.741 -0.4484  1.7816 -2.7033
14500TIP3    H264916   4.944   6.364  10.678 -0.4404 -0.7726 -1.5839
14501TIP3   OH264917   3.958   1.103   1.260 -0.2961 -0.0720 -0.1200
14501TIP3    H164918   3.977   1.184   1.212 -0.0404  1.0640  1.8283
14501TIP3    H264919   4.043   1.074   1.293 -0.2101 -1.8252 -1.8063
14502TIP3   OH264920   5.590   0.216   6.046 -0.2687  0.0000 -0.0977
14502TIP3    H164921   5.577   0.164   5.967 -2.0435  0.3793 -0.0758
14502TIP3    H264922   5.517   0.278   6.046 -0.3226 -0.0348  1.8794
14503TIP3   OH264923   4.377   3.240   4.877  0.4651 -0.3591  0.2463
14503TIP3    H164924   4.471   3.250   4.893  0.7607 -0.2594 -1.4897
14503TIP3    H264925   4.355   3.314   4.820 -0.5671 -0.6646  0.2586
14504TIP3   OH264926   1.682   1.452   3.914 -0.6046  0.6651  0.1085
14504TIP3    H164927   1.692   1.358   3.922  1.0383  0.9354  1.3774
14504TIP3    H264928   1.716   1.472   3.827  0.4622  0.2897  0.4426
14505TIP3   OH264929   1.442   1.484   6.551  0.3238 -0.1525 -0.4043
14505TIP3    H164930   1.428   1.394   6.523  1.1736 -0.5973  0.5635
14505TIP3    H264931   1.382   1.496   6.625  0.3238  0.0353 -0.4340
14506TIP3   OH264932   0.214   1.645  14.146 -0.5974 -0.5908 -0.3662
14506TIP3    H164933   0.212   1.741  14.147 -1.1970 -0.5404 -2.8762
14506TIP3    H264934   0.280   1.622  14.211  0.2892  1.5636 -0.4570
14507TIP3   OH264935   6.591   2.566   6.116  0.4692 -0.3572  0.0363
14507TIP3    H164936   6.668   2.537   6.164 -0.3817 -1.3327  0.8417
14507TIP3    H264937   6.525   2.498   6.133 -1.1834  1.4385  0.9744
14508TIP3   OH264938   5.030   0.997  14.304  0.4523 -0.4239 -0.1466
14508TIP3    H164939   4.941   0.960  14.303  0.3285 -0.1374 -0.7377
14508TIP3    H264940   5.088   0.921  14.300  0.1892 -0.5604 -2.4786
14509TIP3   OH264941   1.213   5.172  16.537  0.6667  0.4087 -0.0700
14509TIP3    H164942   1.306   5.181  16.514 -0.0191  2.0128 -2.4252
14509TIP3    H264943   1.186   5.260  16.562 -0.2298 -0.0702  0.6619
14510TIP3   OH264944   5.490   1.197   0.968  0.0059  0.2181 -0.0854
14510TIP3    H164945   5.444   1.117   0.995 -1.5085  1.4932  1.2329
14510TIP3    H264946   5.571   1.195   1.018 -0.5574  0.0825  0.8345
14511TIP3   OH264947   6.597   2.047   1.923 -0.0264 -1.0534  0.1831
14511TIP3    H164948   6.621   2.027   2.014  1.0902  0.2612  0.1987
14511TIP3    H264949   6.679   2.037   1.874 -0.5113 -1.2507 -0.5834
14512TIP3   OH264950   4.323   4.899  15.639  0.0676 -0.2028  0.1173
14512TIP3    H164951   4.396   4.850  15.601  0.6439  1.3610 -0.8714
14512TIP3    H264952   4.357   4.935  15.720 -0.0370 -0.5723  0.3290
14513TIP3   OH264953   1.763   6.346  12.766 -0.0408  0.3942 -0.4914
14513TIP3    H164954   1.682   6.321  12.721  0.8973 -1.8450 -1.0311
14513TIP3    H264955   1.767   6.441  12.758 -0.3178  0.1640 -4.5398
14514TIP3   OH264956   5.298   3.192   1.226  0.0222  0.4181  0.4266
14514TIP3    H164957   5.384   3.205   1.266  0.3475  1.3774 -0.5606
14514TIP3    H264958   5.316   3.139   1.149 -0.5912 -1.3275  1.4508
14515TIP3   OH264959   2.145   4.017  14.942 -0.5132 -0.4040 -0.3193
14515TIP3    H164960   2.069   3.971  14.978  0.3200 -1.8008 -0.3370
14515TIP3    H264961   2.210   4.015  15.012 -0.1180 -0.1088 -0.6756
14516TIP3   OH264962   2.273   3.291   4.555  0.5678 -0.2114 -0.0565
14516TIP3    H164963   2.364   3.266   4.568  0.2773 -0.6903  1.0704
14516TIP3    H264964   2.251   3.345   4.632 -0.7770 -2.0151  0.8514
14517TIP3   OH264965   4.683   3.912  16.400  0.1847  0.0276 -0.2889
14517TIP3    H164966   4.609   3.918  16.461 -0.7835 -1.1290 -1.3168
14517TIP3    H264967   4.650   3.950  16.318  0.5270 -0.9699 -0.9116
14518TIP3   OH264968   5.634   5.723  15.586 -0.8332 -0.4782 -0.2367
14518TIP3    H164969   5.717   5.692  15.548 -0.9151  0.7517 -1.4706
14518TIP3    H264970   5.601   5.786  15.522 -1.5713  0.7773  1.3619
14519TIP3   OH264971   4.371   4.525   6.053  0.0196  0.0018 -0.1539
14519TIP3    H164972   4.381   4.507   5.960  1.3503  0.9800 -0.2045
14519TIP3    H264973   4.460   4.544   6.084 -0.3870 -0.4372  1.3363
14520TIP3   OH264974   2.856   1.341  12.830  0.8401 -0.0133  0.0149
14520TIP3    H164975   2.808   1.260  12.844  0.5378 -0.0314 -1.0279
14520TIP3    H264976   2.878   1.372  12.917 -0.2104 -0.5295  0.4684
14521TIP3   OH264977   6.719   3.833  13.459 -0.3175  0.8325 -0.0743
14521TIP3    H164978   6.717   3.904  13.522  2.1974  0.6615  0.2281
14521TIP3    H264979   6.681   3.871  13.379 -0.6490  1.9675  0.6150
14522TIP3   OH264980   1.997   0.297   1.762 -0.2157 -0.0638  0.3278
14522TIP3    H164981   2.039   0.304   1.848 -2.0703 -1.9446  1.4259
14522TIP3    H264982   1.960   0.384   1.747  1.1294  0.6211  0.8752
14523TIP3   OH264983   1.068   3.697  15.433  0.8361 -0.0013  0.1105
14523TIP3    H164984   0.989   3.651  15.460  0.4626 -0.3517 -1.4957
14523TIP3    H264985   1.139   3.652  15.478  0.1584  0.0694  1.2631
14524TIP3   OH264986   6.261   5.995   6.270  0.4866  0.5370 -0.2366
14524TIP3    H164987   6.249   6.088   6.251  0.3679  0.6385  0.3240
14524TIP3    H264988   6.181   5.954   6.239  0.7588  0.5466 -0.9670
14525TIP3   OH264989   1.073   3.878   2.761  0.3000  0.5892 -0.2342
14525TIP3    H164990   1.128   3.825   2.703  0.1070 -0.1162  0.2209
14525TIP3    H264991   1.117   3.963   2.765  0.3287  0.6358 -1.3836
14526TIP3   OH264992   6.776   5.626  13.853  0.4295  0.3588  0.7582
14526TIP3    H164993   6.748   5.622  13.762  1.6313 -0.4955  0.4204
14526TIP3    H264994   6.779   5.720  13.873 -2.6941  0.4967  0.8301
14527TIP3   OH264995   2.280   3.326   1.991 -0.0106  0.1181  0.0263
14527TIP3    H164996   2.290   3.240   1.951  0.4305  0.1054  0.1623
14527TIP3    H264997   2.282   3.387   1.918 -2.2770 -0.1190 -0.2602
14528TIP3   OH264998   5.078   3.675  15.884  0.0536  0.3399 -0.0037
14528TIP3    H164999   5.019   3.694  15.957  0.0893  0.7315 -0.0738
14528TIP3    H265000   5.027   3.619  15.826  0.4624 -1.0404  0.9349
14529TIP3   OH265001   6.417   2.005  16.248  0.2743  0.2949  0.1258
14529TIP3    H165002   6.483   1.977  16.311  0.6812 -2.8333 -1.6359
14529TIP3    H265003   6.411   1.934  16.185 -1.1582  2.7318 -2.6156
14530TIP3   OH265004   0.065   3.772  10.440  0.3764  0.3300 -0.1282
14530TIP3    H165005   0.109   3.818  10.511  0.9317  1.1285 -0.9738
14530TIP3    H265006   0.091   3.820  10.361 -1.1347  0.1558 -0.7476
14531TIP3   OH265007   6.012   2.987   1.740 -0.0979  0.1904 -0.1365
14531TIP3    H165008   6.012   3.049   1.667 -0.6976  0.7483  0.3351
14531TIP3    H265009   6.099   2.996   1.778  0.6283 -0.9240 -1.4600
14532TIP3   OH265010   3.885   2.951   5.158 -0.1808 -0.1311  0.3316
14532TIP3    H165011   3.873   2.894   5.234  0.2874 -0.3066  0.2732
14532TIP3    H265012   3.979   2.949   5.141 -0.3154 -0.3111 -0.4169
14533TIP3   OH265013   3.227   4.035   1.123 -0.3171 -0.2498  0.0943
14533TIP3    H165014   3.219   4.129   1.143  1.6158  1.1394 -4.8428
14533TIP3    H265015   3.138   4.008   1.102 -0.4178  1.3919 -1.7514
14534TIP3   OH265016   5.898   5.790   1.284 -0.1000  0.7672  0.0339
14534TIP3    H165017   5.877   5.860   1.223  1.2177  0.6441 -0.5687
14534TIP3    H265018   5.934   5.720   1.229  3.1673  1.4919  1.1810
14535TIP3   OH265019   3.188   0.105  16.025  0.0283  0.5393 -0.7792
14535TIP3    H165020   3.251   0.033  16.020 -0.7555 -0.2612  0.6106
14535TIP3    H265021   3.109   0.070  15.983 -0.8160  0.0617  1.1598
14536TIP3   OH265022   1.364   3.758  16.636 -0.5985  0.1146  0.4356
14536TIP3    H165023   1.275   3.755  16.671 -0.3755 -3.0527  0.9107
14536TIP3    H265024   1.417   3.794  16.707 -1.3623  1.1298  0.4927
14537TIP3   OH265025   0.743   0.911  14.675  0.0614 -0.3375 -0.1061
14537TIP3    H165026   0.681   0.840  14.659 -0.4425  0.0798 -0.0262
14537TIP3    H265027   0.690   0.980  14.716  0.2628  0.6006 -1.4006
14538TIP3   OH265028   3.833   2.314  14.441 -0.1110  0.4625 -0.3774
14538TIP3    H165029   3.903   2.337  14.381  0.3222 -1.0529 -0.4700
14538TIP3    H265030   3.877   2.275  14.516 -0.7642  0.8229  0.2020
14539TIP3   OH265031   6.603   3.698  15.858  0.6551 -0.2212 -0.5053
14539TIP3    H165032   6.600   3.625  15.796  1.1485 -1.6544  1.1302
14539TIP3    H265033   6.512   3.714  15.880  0.5373 -0.2890 -0.9283
14540TIP3   OH265034   1.191   1.523  15.632  0.0804  0.4656 -0.4849
14540TIP3    H165035   1.203   1.498  15.540 -0.7937 -0.7005 -0.2901
14540TIP3    H265036   1.154   1.611  15.627 -0.3797  0.2365 -1.2576
14541TIP3   OH265037   1.923   4.379  14.427 -0.0079  0.2941 -0.1575
14541TIP3    H165038   2.012   4.413  14.436  0.0167 -0.1376  1.3777
14541TIP3    H265039   1.907   4.378  14.333  1.1537  1.5617 -0.3873
14542TIP3   OH265040   2.723   4.521   1.519  0.3280 -0.1336  0.5297
14542TIP3    H165041   2.815   4.544   1.534 -0.1328  1.7081  0.7052
14542TIP3    H265042   2.724   4.470   1.438  1.4269  0.5139  0.1260
14543TIP3   OH265043   0.592   6.066   3.618 -0.1892 -0.2820  0.5291
14543TIP3    H165044   0.566   5.974   3.619 -0.0689 -0.3134  0.6728
14543TIP3    H265045   0.677   6.068   3.661  0.6355 -0.3503 -1.0544
14544TIP3   OH265046   1.317   2.039   5.245  0.3082  0.1551 -0.0369
14544TIP3    H165047   1.349   2.033   5.335  0.8788  1.3952 -0.1386
14544TIP3    H265048   1.374   2.105   5.204  1.0331 -1.4519 -1.7316
14545TIP3   OH265049   1.519   0.844  17.238 -0.0396  0.1094 -0.2763
14545TIP3    H165050   1.611   0.870  17.243 -0.0037  0.0943 -0.8076
14545TIP3    H265051   1.477   0.915  17.189 -0.4555  0.4913  0.6181
14546TIP3   OH265052   2.448   4.944  10.825 -0.1365 -0.4527 -0.7323
14546TIP3    H165053   2.426   5.030  10.861 -1.4081 -1.2303  0.4355
14546TIP3    H265054   2.505   4.962  10.751  0.0718  1.3678 -0.1523
14547TIP3   OH265055   5.923   4.040  13.027  0.1442 -0.5360 -0.0227
14547TIP3    H165056   5.991   4.016  13.090 -0.5147 -1.1447  0.4639
14547TIP3    H265057   5.870   3.961  13.017 -1.5053  0.4190  0.9167
14548TIP3   OH265058   1.851   5.407   0.911 -0.2466  0.0915 -0.4803
14548TIP3    H165059   1.771   5.357   0.928 -0.0922 -0.4079 -1.2005
14548TIP3    H265060   1.922   5.353   0.947 -0.1388  0.0984 -0.6827
14549TIP3   OH265061   0.989   0.642  15.569  0.2001 -0.4566  0.5983
14549TIP3    H165062   0.983   0.686  15.484  0.0048  0.4487  1.0731
14549TIP3    H265063   0.935   0.563  15.559  0.2382 -0.3953 -0.1354
14550TIP3   OH265064   0.842   3.060   4.219 -0.5034  1.0129 -0.3709
14550TIP3    H165065   0.771   3.122   4.231 -1.8014 -0.6410  0.7785
14550TIP3    H265066   0.913   3.093   4.274 -0.8698  1.9246 -0.4440
14551TIP3   OH265067   5.278   2.540   1.999  0.2130 -0.5199  0.0272
14551TIP3    H165068   5.344   2.522   1.933 -2.0178  0.4125 -2.5728
14551TIP3    H265069   5.199   2.495   1.967 -1.3939  1.4288  1.1421
14552TIP3   OH265070   3.898   0.331  13.662  0.6167 -0.1378  0.7347
14552TIP3    H165071   3.992   0.322  13.643  0.4330 -0.4478 -0.0448
14552TIP3    H265072   3.887   0.424  13.680  1.0244 -0.0464  0.5389
14553TIP3   OH265073   2.581   0.221  12.362 -0.1704  0.3485  0.2696
14553TIP3    H165074   2.497   0.175  12.369 -0.4812  0.8402 -0.2164
14553TIP3    H265075   2.561   0.299  12.311  0.5313  0.6052  0.3923
14554TIP3   OH265076   2.919   0.772  13.847 -0.1761 -0.0294 -0.0878
14554TIP3    H165077   2.936   0.795  13.939  0.5492 -0.3060 -0.1508
14554TIP3    H265078   2.872   0.847  13.812  0.0464  0.3211  0.3562
14555TIP3   OH265079   1.712   4.938   1.005 -0.2578  0.2907 -0.4959
14555TIP3    H165080   1.743   4.872   0.944 -0.0933  0.0001 -0.0965
14555TIP3    H265081   1.784   4.951   1.066  0.1176  1.6117 -1.2063
14556TIP3   OH265082   2.213   4.453   4.076  0.0576 -0.0267 -0.1196
14556TIP3    H165083   2.201   4.543   4.046  0.5529  0.4184  1.0015
14556TIP3    H265084   2.280   4.417   4.019  1.2023  0.9043  0.6212
14557TIP3   OH265085   3.913   4.736   5.247  0.1714 -0.5494 -0.3779
14557TIP3    H165086   3.880   4.651   5.217  0.9461 -1.3873  1.0834
14557TIP3    H265087   3.924   4.725   5.341  0.6970  1.0465 -0.2433
14558TIP3   OH265088   4.999   5.047  10.508  0.1680 -0.1466  0.4444
14558TIP3    H165089   4.907   5.053  10.481  0.7591  1.1059 -1.3750
14558TIP3    H265090   5.016   5.129  10.556  1.4417  1.6523 -2.8910
14559TIP3   OH265091   1.982   6.301  15.432  0.2627 -0.3944  0.1782
14559TIP3    H165092   2.040   6.242  15.384  0.4499 -0.0863  0.0197
14559TIP3    H265093   2.010   6.389  15.405 -0.5716 -0.2558 -0.2314
14560TIP3   OH265094   1.207   6.404   0.626  0.3388 -0.3813 -0.4849
14560TIP3    H165095   1.192   6.492   0.662  1.5407 -0.5718  0.4890
14560TIP3    H265096   1.121   6.376   0.596 -0.6294 -0.1000  1.9672
14561TIP3   OH265097   1.849   3.394   0.670 -0.3320 -0.0857  0.4064
14561TIP3    H165098   1.759   3.420   0.691 -1.0299 -0.7983 -1.4974
14561TIP3    H265099   1.839   3.323   0.606  1.5829  0.0456 -0.0853
14562TIP3   OH265100   3.892   4.706  10.296  0.0595  0.5796 -0.6088
14562TIP3    H165101   3.907   4.629  10.351  0.9163  0.5059 -0.9348
14562TIP3    H265102   3.802   4.696  10.265 -0.2626  0.3687  0.3751
14563TIP3   OH265103   0.084   0.435  14.926  0.1292  0.2145 -0.1068
14563TIP3    H165104  -0.010   0.422  14.941 -0.4218  2.4130 -1.4617
14563TIP3    H265105   0.104   0.519  14.965  1.1732  0.5380 -1.2961
14564TIP3   OH265106   5.477   1.444   5.753  0.1006 -0.1215  0.1160
14564TIP3    H165107   5.429   1.371   5.714  0.6324  0.4683 -1.6878
14564TIP3    H265108   5.532   1.476   5.682 -0.2528  2.1449  0.8415
14565TIP3   OH265109   3.973   3.026  11.992 -0.4583  0.3828  0.2894
14565TIP3    H165110   3.979   3.116  12.024 -2.1915  0.5559  0.1887
14565TIP3    H265111   3.929   3.034  11.907  0.3811 -0.4624 -0.2297
14566TIP3   OH265112   3.876   1.422   5.257 -0.1690 -0.7080 -0.5639
14566TIP3    H165113   3.810   1.448   5.321  0.9933 -0.0380  0.3923
14566TIP3    H265114   3.845   1.339   5.221 -2.0910  0.1655 -0.9540
14567TIP3   OH265115   3.604   0.653  14.634 -1.1316  0.1765  0.4919
14567TIP3    H165116   3.570   0.654  14.724  0.0785  0.3452  0.9630
14567TIP3    H265117   3.639   0.742  14.621 -1.7631  0.3033 -0.3222
14568TIP3   OH265118   6.736   2.778   5.245  0.2269  0.1965 -0.2752
14568TIP3    H165119   6.733   2.807   5.336 -0.2094  1.0583 -0.5645
14568TIP3    H265120   6.791   2.699   5.247 -0.7195 -0.4522  0.9120
14569TIP3   OH265121   0.704   2.493   2.666  0.1968 -0.3457 -0.3865
14569TIP3    H165122   0.747   2.429   2.723 -2.0003  2.0091  4.2341
14569TIP3    H265123   0.772   2.558   2.649  0.4243 -0.1932  1.0260
14570TIP3   OH265124   2.486   5.362   4.387  0.5575  0.4882  0.0833
14570TIP3    H165125   2.554   5.408   4.338  0.0762  2.6041  1.3514
14570TIP3    H265126   2.534   5.313   4.454  0.8949  1.6231  0.6897
14571TIP3   OH265127   2.168   2.011  14.891  0.2435  0.7961  0.4168
14571TIP3    H165128   2.252   2.057  14.884  1.5126 -1.5937 -1.2311
14571TIP3    H265129   2.193   1.920  14.909 -1.9830  0.0039 -0.3226
14572TIP3   OH265130   2.100   1.187   1.851 -0.0536  0.2179 -0.1656
14572TIP3    H165131   2.017   1.234   1.855  1.3289  2.6893  0.3632
14572TIP3    H265132   2.135   1.193   1.939  0.6495 -0.9599 -0.3476
14573TIP3   OH265133   3.555   0.526   1.798  0.3991 -0.2256 -0.1295
14573TIP3    H165134   3.581   0.467   1.870 -2.0723  0.1375  1.1215
14573TIP3    H265135   3.607   0.496   1.723  1.6274 -1.8575  1.3093
14574TIP3   OH265136   2.513   3.437  10.966 -0.1531 -0.1504  0.3706
14574TIP3    H165137   2.423   3.405  10.974 -0.2091 -0.0691  0.0742
14574TIP3    H265138   2.539   3.459  11.055 -0.7501  0.7004  0.3417
14575TIP3   OH265139   3.703   6.535   1.183  0.3065 -0.2360  0.1589
14575TIP3    H165140   3.613   6.514   1.159 -0.0608  0.0754  1.2280
14575TIP3    H265141   3.730   6.466   1.244 -0.2875  1.3041  2.2577
14576TIP3   OH265142   4.090   4.626  13.558 -0.1225 -0.0883  0.0033
14576TIP3    H165143   4.149   4.644  13.484 -0.8678 -0.0659 -0.5920
14576TIP3    H265144   4.011   4.592  13.518  0.3733 -2.4593  0.9790
14577TIP3   OH265145   2.561   3.089  15.751 -0.3285 -0.4378  0.1547
14577TIP3    H165146   2.542   3.170  15.799 -2.2052 -1.0238  0.4201
14577TIP3    H265147   2.490   3.082  15.687 -0.3251 -2.0132  0.3123
14578TIP3   OH265148   2.936   0.075   5.911  0.4737  0.2070 -0.1323
14578TIP3    H165149   3.019   0.045   5.947  1.1516  1.3917 -0.6933
14578TIP3    H265150   2.872   0.060   5.981  0.6172 -3.2270 -0.6292
14579TIP3   OH265151   1.774   4.977  11.071 -0.0187  0.0744 -0.2883
14579TIP3    H165152   1.811   4.950  10.987  0.2296  0.0759 -0.1801
14579TIP3    H265153   1.680   4.969  11.060  0.0544 -0.8600 -0.2537
14580TIP3   OH265154   1.827   4.764   2.247 -0.0756  0.1589 -0.4190
14580TIP3    H165155   1.886   4.692   2.271  0.2710  0.4816 -0.2916
14580TIP3    H265156   1.771   4.727   2.178  0.7311  0.0507 -1.0269
14581TIP3   OH265157   1.659   6.357   5.594  0.1505 -0.1240 -0.9181
14581TIP3    H165158   1.660   6.327   5.503  1.3884  1.8308 -1.5864
14581TIP3    H265159   1.747   6.392   5.609 -0.2933  0.3184  0.7653
14582TIP3   OH265160   0.042   0.793  11.707 -0.1642 -0.1600 -0.3390
14582TIP3    H165161   0.022   0.868  11.762  0.7858 -0.4841  0.4515
14582TIP3    H265162   0.113   0.822  11.650  0.4236 -0.5493  0.1859
14583TIP3   OH265163   3.644   3.117  16.079  0.5811  0.1625 -0.3517
14583TIP3    H165164   3.686   3.117  15.993 -0.8297 -0.0066 -1.0633
14583TIP3    H265165   3.693   3.181  16.130  3.1055 -1.6298 -0.4290
14584TIP3   OH265166   4.507   5.073   3.059 -0.4128  0.6660  0.2617
14584TIP3    H165167   4.576   5.117   3.109 -0.4466 -0.4286  1.2788
14584TIP3    H265168   4.520   5.104   2.969  1.2651  0.6435  0.4771
14585TIP3   OH265169   4.752   4.596  10.721  0.2821  0.4754 -0.0434
14585TIP3    H165170   4.753   4.649  10.642 -0.3284  0.0072 -0.3662
14585TIP3    H265171   4.782   4.510  10.693 -3.9804 -0.9144 -0.6701
14586TIP3   OH265172   4.779   0.401   2.351  0.1499  0.0879 -0.5993
14586TIP3    H165173   4.798   0.436   2.438 -0.1017 -3.0639  0.7785
14586TIP3    H265174   4.863   0.400   2.306  0.9928 -1.7156  0.9459
14587TIP3   OH265175   3.787   5.599  14.671 -0.5643 -0.2146  0.7252
14587TIP3    H165176   3.753   5.629  14.587  0.4914  2.4476  1.1960
14587TIP3    H265177   3.881   5.590  14.657 -0.4094  0.0637  1.5560
14588TIP3   OH265178   6.696   1.089   1.894 -0.6281 -0.3603  0.0483
14588TIP3    H165179   6.729   1.030   1.961  0.8549 -0.2947 -0.6071
14588TIP3    H265180   6.621   1.044   1.855 -0.5615 -1.0442  0.7247
14589TIP3   OH265181   6.430   0.917  11.293  0.4355 -0.0567  0.2012
14589TIP3    H165182   6.476   0.993  11.330  1.0151 -0.5423  0.4840
14589TIP3    H265183   6.484   0.890  11.219 -1.0158  1.2605 -1.3790
14590TIP3   OH265184   0.320   1.149   2.548 -0.1391 -0.0996 -0.0705
14590TIP3    H165185   0.411   1.153   2.518  0.4538  0.5126  1.7617
14590TIP3    H265186   0.269   1.145   2.467  1.3809  2.2961 -1.2035
14591TIP3   OH265187   2.354   2.825  14.554 -0.5129  0.5898  0.0138
14591TIP3    H165188   2.380   2.912  14.523 -0.3247  0.1023 -1.2209
14591TIP3    H265189   2.397   2.764  14.494 -0.7538 -0.3588  0.7892
14592TIP3   OH265190   0.953   0.255   6.113  0.2437 -0.1092 -0.6235
14592TIP3    H165191   1.017   0.194   6.075  0.4043  0.5070 -1.3501
14592TIP3    H265192   1.004   0.305   6.176  0.3268 -0.0628 -0.7275
14593TIP3   OH265193   4.358   4.561  15.614 -0.2854  0.0165  0.2336
14593TIP3    H165194   4.449   4.539  15.598  0.0114  2.4751 -1.6972
14593TIP3    H265195   4.359   4.604  15.700  0.2922 -0.3407  0.4099
14594TIP3   OH265196   1.011   0.619   3.394 -0.1284  0.1557  0.5930
14594TIP3    H165197   0.957   0.698   3.383 -0.0361  0.2835  1.0636
14594TIP3    H265198   1.096   0.652   3.423  0.0777 -0.0787  0.2609
14595TIP3   OH265199   5.417   1.050  15.336  0.1786 -0.2177 -0.5307
14595TIP3    H165200   5.476   1.086  15.270  0.9448  0.2538  0.4073
14595TIP3    H265201   5.329   1.068  15.302  0.5648  1.2728 -0.7549
14596TIP3   OH265202   2.291   5.487  14.834  0.1572 -0.6961  0.5165
14596TIP3    H165203   2.268   5.414  14.892  1.1041 -1.8735 -0.5667
14596TIP3    H265204   2.222   5.487  14.768 -0.3283 -0.0327  1.0110
14597TIP3   OH265205   2.230   6.732   2.752 -0.3321  0.4207 -0.5932
14597TIP3    H165206   2.142   6.755   2.723  0.3983  0.5497 -2.8433
14597TIP3    H265207   2.280   6.813   2.744  0.1081  0.2343  0.2198
14598TIP3   OH265208   2.882   1.825  16.626  0.6905 -0.1204  0.2952
14598TIP3    H165209   2.797   1.801  16.661  0.2395  0.0217 -0.6883
14598TIP3    H265210   2.877   1.920  16.612  0.7247 -0.2326 -0.5099
14599TIP3   OH265211   5.408   3.306   5.943  0.2146 -0.1302 -0.2123
14599TIP3    H165212   5.357   3.341   6.016  1.7991 -0.1842  0.9284
14599TIP3    H265213   5.445   3.383   5.900  1.6346 -0.2443  0.7823
14600TIP3   OH265214   3.058   3.335  13.024 -0.2031 -0.4531  0.3219
14600TIP3    H165215   3.106   3.413  12.997  1.6846 -1.0679  1.8200
14600TIP3    H265216   3.040   3.349  13.117 -0.1480 -1.6489  0.5181
14601TIP3   OH265217   4.754   4.641  13.823  0.5324  0.3749  0.6310
14601TIP3    H165218   4.789   4.617  13.738  1.1276  2.1390  0.3597
14601TIP3    H265219   4.817   4.607  13.886  1.1090  0.7895  0.2794
14602TIP3   OH265220   6.618   5.260  12.175  0.1799 -0.2797  0.1577
14602TIP3    H165221   6.619   5.307  12.092 -1.4488  3.0705  1.9464
14602TIP3    H265222   6.710   5.245  12.195  0.6422  0.3942 -1.3946
14603TIP3   OH265223   4.733   1.869  14.501 -0.0910 -0.0710 -0.2434
14603TIP3    H165224   4.726   1.810  14.426 -0.4457 -0.7654  0.3310
14603TIP3    H265225   4.790   1.823  14.562  0.6218  0.7209 -0.2897
14604TIP3   OH265226   1.536   3.193  10.556 -0.5482  0.1554  0.1158
14604TIP3    H165227   1.610   3.131  10.561 -1.0207 -0.2770  2.3454
14604TIP3    H265228   1.462   3.139  10.529 -0.3202  0.3588 -0.9421
14605TIP3   OH265229   2.828   6.674   2.991  0.3866  0.1769  0.7701
14605TIP3    H165230   2.797   6.595   3.037 -1.6974 -0.5667 -1.7616
14605TIP3    H265231   2.816   6.745   3.054  1.9138 -1.4463  2.9555
14606TIP3   OH265232   1.847   5.960  14.348  0.4723  0.4956  0.2407
14606TIP3    H165233   1.927   6.008  14.370  1.5617 -0.8893 -0.6191
14606TIP3    H265234   1.818   5.921  14.431  1.2072  0.2437  0.3805
14607TIP3   OH265235   3.337   2.209   1.164 -0.1376  0.3757 -0.0645
14607TIP3    H165236   3.335   2.301   1.192  3.2760  1.4584 -2.9558
14607TIP3    H265237   3.401   2.168   1.222 -0.9815  0.0033  0.6203
14608TIP3   OH265238   0.160   5.720  15.052  0.0239  0.3315  0.2349
14608TIP3    H165239   0.176   5.685  15.140  2.1323 -1.0831 -0.6746
14608TIP3    H265240   0.218   5.795  15.044  1.7395 -1.0806 -0.8460
14609TIP3   OH265241   4.864   5.560  14.634 -0.2922 -0.3031  0.1064
14609TIP3    H165242   4.838   5.639  14.588  0.7035 -1.5817 -2.8054
14609TIP3    H265243   4.840   5.575  14.725  0.3857  3.5382 -0.2833
14610TIP3   OH265244   1.920   5.949  11.756  0.1969  0.5375  0.1884
14610TIP3    H165245   1.999   5.987  11.794 -0.1583  1.3035  0.1775
14610TIP3    H265246   1.850   6.010  11.779  0.0395  1.2431 -1.9997
14611TIP3   OH265247   2.793   2.586  14.709  0.5748  0.3958  0.0155
14611TIP3    H165248   2.764   2.656  14.651  1.0122 -0.0115 -0.6917
14611TIP3    H265249   2.888   2.588  14.704  0.6077  0.1849  0.5151
14612TIP3   OH265250   4.275   0.786  11.263  0.0818 -0.5230 -0.0065
14612TIP3    H165251   4.336   0.849  11.300  1.3104 -1.0734 -1.0759
14612TIP3    H265252   4.299   0.702  11.304 -1.3063 -0.3849  1.1344
14613TIP3   OH265253   1.048   5.457   2.953 -0.3561  0.0104 -0.2394
14613TIP3    H165254   1.096   5.403   2.891 -0.4314 -2.2969  1.6241
14613TIP3    H265255   1.099   5.538   2.960 -0.2006  0.1818 -3.0223
14614TIP3   OH265256   0.125   2.205  15.851 -0.1310  0.5593 -0.5433
14614TIP3    H165257   0.097   2.272  15.790  0.2897  1.0579 -0.1922
14614TIP3    H265258   0.190   2.248  15.906 -0.8940  0.2659  0.6046
14615TIP3   OH265259   6.063   4.300  13.029  0.7035 -0.5219  0.3368
14615TIP3    H165260   5.991   4.286  13.090 -2.2595  0.0824 -2.8861
14615TIP3    H265261   6.092   4.212  13.004  0.5861 -0.7625  1.0422
14616TIP3   OH265262   0.443   4.563   1.829 -0.5680 -0.1637 -0.3208
14616TIP3    H165263   0.413   4.506   1.900 -1.2031  1.6611  0.9345
14616TIP3    H265264   0.538   4.557   1.832 -0.5835 -0.0202  0.7930
14617TIP3   OH265265   4.589   1.384  16.176  0.8845 -0.3516 -0.2633
14617TIP3    H165266   4.640   1.390  16.257  0.3366  0.6896  0.0177
14617TIP3    H265267   4.653   1.404  16.107  1.4399 -1.6266 -0.1356
14618TIP3   OH265268   2.390   0.846   5.531 -0.8444  0.1688 -0.7137
14618TIP3    H165269   2.442   0.885   5.601  1.5732 -2.6913 -0.8322
14618TIP3    H265270   2.300   0.849   5.564 -0.3745  3.1541  0.4451
14619TIP3   OH265271   0.203   1.235  16.933 -0.1522 -0.3561  0.5802
14619TIP3    H165272   0.194   1.211  17.025 -0.4066 -0.0154  0.6476
14619TIP3    H265273   0.161   1.163  16.885 -1.3834  0.2061  0.7949
14620TIP3   OH265274   3.450   3.406   0.660 -0.0844 -0.0066  0.3829
14620TIP3    H165275   3.471   3.416   0.567 -1.8960  0.5037  0.0188
14620TIP3    H265276   3.466   3.492   0.698  2.1570 -0.6106  0.8686
14621TIP3   OH265277   5.748   0.126  14.471 -0.1769  0.0940  0.3502
14621TIP3    H165278   5.835   0.118  14.509 -1.1474 -0.1416  2.6186
14621TIP3    H265279   5.754   0.200  14.410  1.3057  0.7663  1.3047
14622TIP3   OH265280   5.803   4.673   3.858  0.4825  0.3683  0.2147
14622TIP3    H165281   5.771   4.748   3.807  0.1284 -1.0347 -1.6625
14622TIP3    H265282   5.854   4.713   3.928 -0.2905  2.4061 -0.3365
14623TIP3   OH265283   4.851   4.074  15.812  0.3112 -0.3806  0.6592
14623TIP3    H165284   4.823   3.984  15.797  0.3322 -0.2443 -0.2102
14623TIP3    H265285   4.947   4.071  15.807  0.2658 -0.1172 -0.4905
14624TIP3   OH265286   2.656   2.104  17.175 -0.2185  0.1659  0.4221
14624TIP3    H165287   2.716   2.178  17.185  1.6553 -1.0786 -1.3359
14624TIP3    H265288   2.677   2.067  17.089 -1.5030 -2.0922  1.0427
14625TIP3   OH265289   2.552   3.253   3.141 -0.2965  0.2497  0.0799
14625TIP3    H165290   2.493   3.291   3.076 -0.3649  0.4253  0.2451
14625TIP3    H265291   2.564   3.162   3.112 -1.5243 -0.1087  0.6548
14626TIP3   OH265292   0.483   1.618   4.552 -0.1425 -0.5906 -0.7947
14626TIP3    H165293   0.415   1.625   4.620 -0.4620 -0.6308 -1.1088
14626TIP3    H265294   0.434   1.603   4.471  0.3017 -1.6129 -0.8733
14627TIP3   OH265295   3.835   4.503  13.500  0.1971  0.4239  0.7613
14627TIP3    H165296   3.793   4.543  13.576  1.1456  0.4044  1.3161
14627TIP3    H265297   3.830   4.409  13.518  1.0276  0.4430  1.1510
14628TIP3   OH265298   1.415   0.739  11.981  0.3686 -1.0537  0.2483
14628TIP3    H165299   1.454   0.664  11.935  0.2913 -0.6816 -0.4326
14628TIP3    H265300   1.438   0.815  11.927  0.2093 -0.6202  0.7866
14629TIP3   OH265301   4.196   5.736   5.047  0.0974  0.5010  0.0474
14629TIP3    H165302   4.175   5.823   5.082  1.0898  0.8807 -0.3043
14629TIP3    H265303   4.258   5.699   5.110  1.5452  1.0112 -1.0511
14630TIP3   OH265304   5.015   0.826  15.385 -0.1664 -0.0282 -0.2477
14630TIP3    H165305   5.090   0.791  15.336  1.2121 -0.3692  2.0184
14630TIP3    H265306   5.055   0.880  15.453 -1.9742 -0.5829  1.2944
14631TIP3   OH265307   0.148   5.982  13.017  0.1311  0.3810 -0.0163
14631TIP3    H165308   0.148   6.057  13.077  1.2548 -0.8369  1.5471
14631TIP3    H265309   0.055   5.962  13.005 -0.0973 -0.6034  2.9537
14632TIP3   OH265310   2.048   3.492  16.185 -0.1864  0.2071 -0.6427
14632TIP3    H165311   2.062   3.415  16.129 -1.2929 -0.2945 -0.2457
14632TIP3    H265312   1.975   3.467  16.242  2.5171 -0.2533  2.7816
14633TIP3   OH265313   3.147   0.721  11.517  0.3255 -0.0368  0.0399
14633TIP3    H165314   3.177   0.712  11.427  2.0256 -2.9708  0.8470
14633TIP3    H265315   3.174   0.640  11.560 -2.5744  0.2846  2.6101
14634TIP3   OH265316   1.229   5.789  10.653  0.0930  0.1663  0.3293
14634TIP3    H165317   1.204   5.881  10.653 -0.0066  0.1393  0.3024
14634TIP3    H265318   1.325   5.790  10.661 -0.0216  0.2294  1.8568
14635TIP3   OH265319   2.241   5.425   1.867  0.5038  0.0395  0.5028
14635TIP3    H165320   2.269   5.362   1.801 -0.7905  0.5874 -0.5851
14635TIP3    H265321   2.177   5.377   1.920  1.8428 -0.5277  1.6344
14636TIP3   OH265322   4.770   2.387  13.475 -0.1525 -0.8899 -0.1118
14636TIP3    H165323   4.829   2.448  13.430  0.2854 -1.4435 -0.3090
14636TIP3    H265324   4.707   2.442  13.520  1.2920 -0.2272  1.1656
14637TIP3   OH265325   5.166   3.000  12.370 -0.5679 -0.1748 -0.3541
14637TIP3    H165326   5.112   3.014  12.448  0.2334 -1.8887  0.5270
14637TIP3    H265327   5.247   3.047  12.388 -0.9642  0.6862 -0.8036
14638TIP3   OH265328   3.223   2.653  16.398 -0.7818  0.4582  0.7984
14638TIP3    H165329   3.186   2.712  16.332 -1.3446  1.5994  2.1057
14638TIP3    H265330   3.315   2.680  16.405 -0.1592 -1.0481 -0.9897
14639TIP3   OH265331   0.889   3.657   1.785 -0.1991  0.1282  0.0939
14639TIP3    H165332   0.958   3.675   1.848 -0.7047  1.0457  0.3946
14639TIP3    H265333   0.824   3.607   1.834  1.1690 -2.5484 -0.7211
14640TIP3   OH265334   2.950   3.233   3.564 -0.5315 -0.3269 -0.1297
14640TIP3    H165335   2.880   3.185   3.607  1.4423 -2.0753  1.2862
14640TIP3    H265336   2.969   3.306   3.623 -0.1388 -0.7600  0.2913
14641TIP3   OH265337   3.413   2.489  12.262 -0.1733 -0.0610 -0.3893
14641TIP3    H165338   3.457   2.440  12.192 -0.8416  0.4107 -1.1467
14641TIP3    H265339   3.336   2.437  12.284 -0.0357 -0.1413 -0.0892
14642TIP3   OH265340   0.984   5.750   5.431 -0.4626 -0.5482 -0.0938
14642TIP3    H165341   0.920   5.741   5.361 -1.1678 -1.1904  0.6296
14642TIP3    H265342   0.933   5.760   5.511  0.3380  1.1281  0.2299
14643TIP3   OH265343   3.663   5.854  14.723 -0.5023  0.2086  0.0381
14643TIP3    H165344   3.712   5.775  14.744 -0.3173  0.7379  1.6863
14643TIP3    H265345   3.701   5.921  14.780 -0.1848  1.6531 -1.8427
14644TIP3   OH265346   1.653   1.139   1.974 -0.1902 -0.1314  0.1424
14644TIP3    H165347   1.722   1.087   2.016  0.8536  0.6691 -0.5857
14644TIP3    H265348   1.650   1.107   1.884 -0.9413 -0.3299  0.2324
14645TIP3   OH265349   3.288   3.639  16.645 -0.2992  0.2838  0.1321
14645TIP3    H165350   3.207   3.688  16.654 -0.9764 -0.5299 -1.3626
14645TIP3    H265351   3.266   3.550  16.670  0.6947  0.5084  1.9022
14646TIP3   OH265352   3.947   1.094   1.677  0.0177  0.4821 -0.1731
14646TIP3    H165353   3.863   1.125   1.709 -0.4406 -0.1202 -0.7870
14646TIP3    H265354   3.936   1.088   1.582  0.2800 -1.0292 -0.1128
14647TIP3   OH265355   4.603   4.809  13.985  0.4471  0.0366 -0.0396
14647TIP3    H165356   4.665   4.751  13.941  0.3047 -0.0729 -0.0964
14647TIP3    H265357   4.578   4.872  13.917  0.7759  0.3059  0.0846
14648TIP3   OH265358   4.778   0.110  15.882  0.1645 -0.3969  0.0859
14648TIP3    H165359   4.691   0.097  15.845  0.1877 -2.6929  0.7362
14648TIP3    H265360   4.813   0.186  15.836 -2.1598  0.5452 -0.2074
14649TIP3   OH265361   2.783   0.522  10.574 -0.3005 -0.0971  0.3267
14649TIP3    H165362   2.708   0.462  10.568 -0.7225  0.5033 -0.5604
14649TIP3    H265363   2.773   0.564  10.659 -1.4657  0.5991 -0.1360
14650TIP3   OH265364   1.675   3.249   3.256  0.3710 -0.2202 -0.1887
14650TIP3    H165365   1.697   3.198   3.178 -0.0814  0.5255 -0.8222
14650TIP3    H265366   1.744   3.315   3.262 -0.6750  0.9887 -1.1392
14651TIP3   OH265367   6.086   5.276  11.986  0.6407 -0.0053 -0.2677
14651TIP3    H165368   6.044   5.192  11.966  0.6741  0.3965 -2.1795
14651TIP3    H265369   6.013   5.338  11.991  0.6070 -0.1537  1.2406
14652TIP3   OH265370   3.403   3.735  12.696  0.0481  0.2074 -0.4804
14652TIP3    H165371   3.495   3.739  12.721 -1.0099  0.8672  3.7445
14652TIP3    H265372   3.384   3.822  12.660  0.6329  0.7108  0.4076
14653TIP3   OH265373   3.866   1.357  11.725  0.2297  0.3837 -0.6203
14653TIP3    H165374   3.774   1.379  11.713 -0.2234 -1.1434 -0.0735
14653TIP3    H265375   3.879   1.279  11.670  1.1705  0.5510 -0.6397
14654TIP3   OH265376   2.550   6.282  13.285 -0.4130 -0.0982  0.8764
14654TIP3    H165377   2.483   6.214  13.287 -0.6641  0.1657  2.0346
14654TIP3    H265378   2.503   6.361  13.256  0.0705 -0.6067 -1.3600
14655TIP3   OH265379   4.119   2.360   1.454 -0.0005 -0.3461 -0.0313
14655TIP3    H165380   4.041   2.318   1.491  0.1116 -0.0231  0.5674
14655TIP3    H265381   4.178   2.373   1.528  1.6247 -2.7483 -0.8463
14656TIP3   OH265382   5.722   3.538  14.198 -0.1683 -0.3701 -0.1212
14656TIP3    H165383   5.693   3.629  14.192  2.0636  0.4089  0.6373
14656TIP3    H265384   5.802   3.541  14.249  0.7351 -2.6047 -1.3231
14657TIP3   OH265385   1.642   2.241   3.080 -0.5014 -0.2110  0.6463
14657TIP3    H165386   1.582   2.303   3.039 -1.2986 -1.8391 -0.6921
14657TIP3    H265387   1.725   2.254   3.034 -1.0579 -1.1369 -0.6429
14658TIP3   OH265388   3.736   2.581   1.247 -0.2624  0.4031  0.0751
14658TIP3    H165389   3.685   2.662   1.237 -2.7373 -1.0533  0.3445
14658TIP3    H265390   3.727   2.559   1.340  0.7480  0.0216  0.0911
14659TIP3   OH265391   2.498   2.499   5.610 -0.2658  0.1515  0.8766
14659TIP3    H165392   2.576   2.444   5.624  0.5493  1.0459 -0.0265
14659TIP3    H265393   2.430   2.459   5.664  0.7357 -0.8424  1.4212
14660TIP3   OH265394   2.121   6.394  13.352 -0.0202  0.4339 -0.0125
14660TIP3    H165395   2.106   6.485  13.378 -0.2382  0.6175 -0.7847
14660TIP3    H265396   2.058   6.378  13.282 -0.1265 -0.3806  0.2652
14661TIP3   OH265397   0.190   5.593   5.002 -0.0270  0.1562 -0.2635
14661TIP3    H165398   0.239   5.613   5.082  0.0322 -1.1530  0.0306
14661TIP3    H265399   0.234   5.644   4.934 -1.0117  2.4669  0.7953
14662TIP3   OH265400   4.118   2.987   2.173  0.1007 -0.4579 -0.1741
14662TIP3    H165401   4.132   3.002   2.080 -0.0125 -0.3050 -0.1660
14662TIP3    H265402   4.201   3.014   2.214  0.6440 -1.7899 -0.3593
14663TIP3   OH265403   0.601   4.722  13.165 -0.0938 -0.1643  0.5986
14663TIP3    H165404   0.617   4.795  13.225  2.5781 -0.8443  0.7572
14663TIP3    H265405   0.601   4.644  13.220  0.1352 -0.5782  0.0220
14664TIP3   OH265406   3.765   2.992  13.621  0.3823  0.6747  0.2678
14664TIP3    H165407   3.684   2.943  13.609  0.8554 -0.3156  1.0835
14664TIP3    H265408   3.819   2.936  13.677  2.2883  0.5816 -1.6365
14665TIP3   OH265409   0.619   6.261  16.125 -1.1672  0.1089  0.1282
14665TIP3    H165410   0.616   6.224  16.036 -0.7059  0.6839 -0.1286
14665TIP3    H265411   0.669   6.197  16.176  0.1078  0.6197 -0.4443
14666TIP3   OH265412   1.010   0.118   3.952 -0.4747 -0.1594  0.0584
14666TIP3    H165413   1.099   0.115   3.918 -0.6681 -0.9857 -0.3696
14666TIP3    H265414   0.956   0.078   3.884 -0.6981 -3.0444  1.8754
14667TIP3   OH265415   1.163   3.865  13.365 -0.0441 -0.0965  0.1920
14667TIP3    H165416   1.232   3.911  13.413  0.5893 -0.7038 -0.1311
14667TIP3    H265417   1.205   3.835  13.284 -0.2044 -1.9663  0.7626
14668TIP3   OH265418   1.081   2.396  12.087  0.0936 -0.5266  0.2152
14668TIP3    H165419   1.157   2.345  12.058  0.3472 -0.6225  1.0266
14668TIP3    H265420   1.118   2.483  12.107  0.2723 -0.9969  2.0358
14669TIP3   OH265421   5.059   2.203   0.227  0.6506 -0.0009 -0.4830
14669TIP3    H165422   4.981   2.189   0.173  1.7848  1.7354 -2.6114
14669TIP3    H265423   5.132   2.200   0.166  2.2416 -0.7973  1.3746
14670TIP3   OH265424   0.174   5.563   0.171  0.0177 -0.3425 -0.2075
14670TIP3    H165425   0.262   5.524   0.178  0.0068 -0.0599  1.6722
14670TIP3    H265426   0.115   5.492   0.196 -0.2731 -0.3944 -1.0262
14671TIP3   OH265427   6.515   2.832   2.275 -0.1296  0.1496 -0.6291
14671TIP3    H165428   6.564   2.753   2.297 -0.4576  0.1488  0.0910
14671TIP3    H265429   6.522   2.838   2.179  1.2852  0.1645 -0.5391
14672TIP3   OH265430   1.395   0.837  11.618 -0.1273 -0.2398  0.1719
14672TIP3    H165431   1.479   0.829  11.573 -0.4618  1.4291 -0.7661
14672TIP3    H265432   1.418   0.871  11.705  0.1097  0.8801 -0.3218
14673TIP3   OH265433   2.015   1.016   3.436 -0.1909  0.5107 -0.4441
14673TIP3    H165434   1.928   1.045   3.407 -0.7174 -1.5520 -1.0158
14673TIP3    H265435   1.997   0.953   3.505  0.8631 -0.0788 -0.7116
14674TIP3   OH265436   2.301   5.308  12.516 -0.6469  0.1012 -0.1684
14674TIP3    H165437   2.223   5.361  12.500  0.6964  2.8157  1.8975
14674TIP3    H265438   2.284   5.266  12.601  0.8615  2.1481  1.1742
14675TIP3   OH265439   2.546   1.259  14.835  0.0676  0.2733  0.1159
14675TIP3    H165440   2.458   1.243  14.870  0.2695 -3.2730 -0.8766
14675TIP3    H265441   2.586   1.173  14.830  3.6812  1.8352  0.6017
14676TIP3   OH265442   6.324   6.003   6.623 -0.6342  0.2854 -0.2620
14676TIP3    H165443   6.336   6.077   6.681 -1.5590 -2.1757  3.2186
14676TIP3    H265444   6.231   6.004   6.600 -0.7622 -0.1029  0.2333
14677TIP3   OH265445   4.697   5.961  14.857  0.8122  0.3146 -0.0233
14677TIP3    H165446   4.780   5.924  14.888 -0.3841 -0.6020  2.2415
14677TIP3    H265447   4.721   6.044  14.817  2.7288  0.4911  1.4087
14678TIP3   OH265448   0.004   0.302   0.061  0.1358  0.0612 -0.5408
14678TIP3    H165449  -0.054   0.376   0.079 -0.1086 -0.4992  1.1317
14678TIP3    H265450   0.018   0.262   0.147  1.8716 -0.6508 -1.1352
14679TIP3   OH265451   1.553   1.653   0.449 -0.4927  0.5368 -0.4656
14679TIP3    H165452   1.616   1.666   0.379 -0.7387 -1.1097 -0.9950
14679TIP3    H265453   1.604   1.621   0.523 -0.8653 -2.2080 -1.3375
14680TIP3   OH265454   4.949   4.313  15.997 -0.1420  0.4657 -0.5737
14680TIP3    H165455   4.973   4.220  15.995 -1.2271  0.2022 -1.3131
14680TIP3    H265456   4.941   4.338  15.905 -0.6774  1.0777 -0.3656
14681TIP3   OH265457   6.646   4.263  13.439 -0.2524  0.4520 -0.3729
14681TIP3    H165458   6.710   4.193  13.423 -1.1548 -0.3383 -0.5732
14681TIP3    H265459   6.679   4.308  13.517 -0.3483 -1.0159  0.5283
14682TIP3   OH265460   0.409   2.022  15.533 -0.5315 -0.1461  0.3403
14682TIP3    H165461   0.465   1.946  15.522 -2.1859 -1.2551 -0.5294
14682TIP3    H265462   0.343   1.994  15.597  1.6347  2.1394  3.7797
14683TIP3   OH265463   5.955   2.219  16.229  0.4033  0.1122  0.2522
14683TIP3    H165464   5.917   2.270  16.300  0.6703 -0.7174  1.0017
14683TIP3    H265465   6.022   2.165  16.272  0.7972 -0.1451 -0.6815
14684TIP3   OH265466   3.133   4.527   1.236  0.0607 -0.2575  0.3183
14684TIP3    H165467   3.118   4.472   1.159 -0.1084 -0.2027  0.3140
14684TIP3    H265468   3.197   4.477   1.288 -0.4978 -0.7107  0.5713
14685TIP3   OH265469   4.673   1.099  10.505 -0.2501 -0.0594  0.2876
14685TIP3    H165470   4.720   1.162  10.559  0.0784  0.3922 -0.5272
14685TIP3    H265471   4.595   1.146  10.477  1.2393  0.8746 -2.4285
14686TIP3   OH265472   1.075   6.233  15.775  0.0208 -0.8528  0.7170
14686TIP3    H165473   1.153   6.199  15.818  1.2522  0.2285 -0.6137
14686TIP3    H265474   1.088   6.213  15.682  0.1686  2.0395  0.0771
14687TIP3   OH265475   3.962   1.019   6.198 -0.0083 -0.4709 -0.0325
14687TIP3    H165476   4.019   1.089   6.231  0.5005 -0.9906  0.2086
14687TIP3    H265477   3.986   0.943   6.251 -2.4784 -0.1861  1.6020
14688TIP3   OH265478   1.510   6.254   3.262 -0.2200 -0.1168  0.0656
14688TIP3    H165479   1.465   6.334   3.289  0.3626 -0.0374  0.8244
14688TIP3    H265480   1.560   6.227   3.339  0.2967 -0.7147 -0.4651
14689TIP3   OH265481   4.532   5.640  17.087  0.3469 -0.1709  0.3249
14689TIP3    H165482   4.554   5.564  17.033 -1.0009  0.1425 -0.7092
14689TIP3    H265483   4.545   5.715  17.028  1.2741  0.3822  1.2075
14690TIP3   OH265484   4.143   6.076   3.251 -0.2408 -0.0474  0.5170
14690TIP3    H165485   4.229   6.051   3.284 -0.1361 -0.8594 -0.3662
14690TIP3    H265486   4.135   6.169   3.274  0.6238 -0.1176  1.1236
14691TIP3   OH265487   3.973   2.179  14.978 -0.4146  0.4670 -0.5311
14691TIP3    H165488   3.938   2.157  14.892 -1.0784 -2.0189  0.3402
14691TIP3    H265489   3.908   2.146  15.040  0.7033  0.9936  0.9631
14692TIP3   OH265490   6.670   6.028  10.590 -0.3866 -0.3412 -0.9052
14692TIP3    H165491   6.759   6.043  10.557 -0.9632 -0.4318 -2.5347
14692TIP3    H265492   6.658   5.933  10.587  0.3204 -0.5503  1.6528
14693TIP3   OH265493   5.831   6.235  14.559  0.2996  0.0208  0.0937
14693TIP3    H165494   5.896   6.209  14.494 -0.3045  0.3426 -0.6368
14693TIP3    H265495   5.787   6.154  14.583  0.0051  0.0150 -0.4612
14694TIP3   OH265496   5.665   0.609   1.995 -0.1612  0.2314  0.6651
14694TIP3    H165497   5.664   0.518   1.966 -1.9871  0.3305  0.3353
14694TIP3    H265498   5.588   0.648   1.954  1.2009  2.2232 -0.1013
14695TIP3   OH265499   5.307   4.045  16.333 -0.9788  0.0812  0.0997
14695TIP3    H165500   5.265   3.963  16.307  2.1754 -0.4471 -3.8300
14695TIP3    H265501   5.291   4.105  16.261  0.4071  1.5580  0.9618
14696TIP3   OH265502   5.754   5.251   2.619  0.6609  0.5276  0.2657
14696TIP3    H165503   5.737   5.176   2.562  1.7965 -0.2174  0.8632
14696TIP3    H265504   5.710   5.325   2.577 -0.0938 -0.3889 -0.5687
14697TIP3   OH265505   1.334   2.450   3.466  0.3539  0.5611  0.1525
14697TIP3    H165506   1.395   2.428   3.537  0.7315  0.1105 -0.3070
14697TIP3    H265507   1.380   2.517   3.416  0.1362  0.7932  0.2635
14698TIP3   OH265508   0.171   0.350  12.737  0.4798  0.3340  0.3803
14698TIP3    H165509   0.130   0.427  12.776  1.1333  1.4684 -1.1221
14698TIP3    H265510   0.137   0.276  12.788 -0.1862  1.6040  1.8058
14699TIP3   OH265511   4.226   4.695  11.752  0.3863  0.1943  0.0185
14699TIP3    H165512   4.249   4.762  11.687  2.0032  0.8036  1.1927
14699TIP3    H265513   4.249   4.734  11.836 -1.1875 -0.8036  0.9437
14700TIP3   OH265514   0.385   2.124   3.921 -0.1214  0.3486  0.2731
14700TIP3    H165515   0.396   2.082   4.006  0.7109  0.0715  0.0409
14700TIP3    H265516   0.395   2.218   3.938  1.5898  0.1839  0.2510
14701TIP3   OH265517   2.960   5.110   5.730 -0.7650  0.1774 -0.0214
14701TIP3    H165518   3.017   5.054   5.678 -1.3500 -0.9263  0.5110
14701TIP3    H265519   2.892   5.051   5.764 -0.9838  1.0650  1.1275
14702TIP3   OH265520   6.184   2.481  10.947 -0.5344 -0.4604  0.2236
14702TIP3    H165521   6.224   2.439  10.871 -1.3809  1.0998 -1.1351
14702TIP3    H265522   6.092   2.456  10.942 -0.4551 -0.9540  1.1699
14703TIP3   OH265523   1.377   2.142  14.063  0.2268  0.6972  0.0340
14703TIP3    H165524   1.361   2.088  13.985  2.8119  1.9588 -1.4227
14703TIP3    H265525   1.457   2.106  14.101  1.1456  2.5356 -0.1153
14704TIP3   OH265526   3.122   4.321  14.582 -0.6504  0.2231  0.9285
14704TIP3    H165527   3.057   4.285  14.643 -0.2911  1.8418  2.3197
14704TIP3    H265528   3.205   4.312  14.628 -0.3626  1.3962  0.6391
14705TIP3   OH265529   2.697   1.511   4.972 -0.0063  0.3343 -0.6476
14705TIP3    H165530   2.688   1.416   4.971  0.2236  0.3059 -0.1502
14705TIP3    H265531   2.609   1.544   4.955  0.1703  0.0315 -2.2352
14706TIP3   OH265532   5.321   4.215   6.368  0.8992  0.0433  0.5427
14706TIP3    H165533   5.313   4.126   6.404  2.2933 -0.0607  0.5946
14706TIP3    H265534   5.261   4.267   6.421  0.6596 -0.7133  1.0306
14707TIP3   OH265535   0.619   2.483  13.220 -0.0669 -0.0417 -0.2453
14707TIP3    H165536   0.624   2.389  13.199 -1.4699 -0.5231  1.4869
14707TIP3    H265537   0.565   2.520  13.151 -0.2802 -0.6774 -0.4226
14708TIP3   OH265538   2.135   1.009  10.975  0.1931 -0.3780  0.1502
14708TIP3    H165539   2.185   1.090  10.962 -0.1485 -0.0130  1.0920
14708TIP3    H265540   2.194   0.952  11.024  0.8967 -1.1794 -1.5607
14709TIP3   OH265541   0.903   4.181   5.598 -0.5739  0.3438  0.2172
14709TIP3    H165542   0.898   4.271   5.566 -0.1544 -0.0953 -1.1163
14709TIP3    H265543   0.812   4.153   5.608 -0.7152  0.4932 -0.5967
14710TIP3   OH265544   1.129   1.927  14.806  0.0268 -0.1721  0.4598
14710TIP3    H165545   1.160   2.018  14.802 -0.2830 -0.0451  0.8726
14710TIP3    H265546   1.086   1.912  14.722 -0.3018  0.2036  0.5575
14711TIP3   OH265547   1.200   0.633  11.570 -0.0910  0.6599 -0.0182
14711TIP3    H165548   1.259   0.706  11.551 -2.8150  3.1149  0.5910
14711TIP3    H265549   1.163   0.654  11.656 -0.8808 -1.4764  0.1820
14712TIP3   OH265550   3.169   0.416   1.137  0.1033  0.4113 -0.3117
14712TIP3    H165551   3.218   0.491   1.170  0.9095  1.5088 -3.7719
14712TIP3    H265552   3.118   0.451   1.064 -0.5816 -2.1159 -1.1059
14713TIP3   OH265553   5.080   6.352  16.871  0.2794 -0.0573  0.5090
14713TIP3    H165554   5.155   6.373  16.927 -0.7509  0.5186  1.6998
14713TIP3    H265555   5.056   6.264  16.896 -0.3349  0.2915  1.1535
14714TIP3   OH265556   6.223   4.503  11.218  0.0447 -0.1819 -0.0434
14714TIP3    H165557   6.175   4.523  11.138 -0.4625 -0.2254  0.2413
14714TIP3    H265558   6.274   4.582  11.236 -1.1608  0.5021  0.5181
14715TIP3   OH265559   1.230   5.346   6.473  0.1429  0.5356 -0.2641
14715TIP3    H165560   1.255   5.292   6.548  0.0468 -1.3409 -1.5607
14715TIP3    H265561   1.178   5.417   6.511  0.7552  0.0397  1.5294
14716TIP3   OH265562   0.002   3.227  10.530 -0.0668 -0.1347  0.0534
14716TIP3    H165563   0.021   3.160  10.465 -0.3065 -0.1061 -0.0457
14716TIP3    H265564  -0.063   3.187  10.588  0.5803 -0.3758  0.6235
14717TIP3   OH265565   6.762   3.581   6.097  0.0640 -0.2211  0.3898
14717TIP3    H165566   6.716   3.644   6.153 -0.7544  1.7432 -2.3949
14717TIP3    H265567   6.692   3.528   6.058  0.3397  0.7657 -1.4986
14718TIP3   OH265568   1.748   1.205  16.717 -0.5576 -0.2657  0.1782
14718TIP3    H165569   1.735   1.117  16.752 -0.5642 -0.2668  0.1717
14718TIP3    H265570   1.764   1.192  16.624  0.2543 -0.3231  0.3226
14719TIP3   OH265571   1.507   2.472  15.509  0.4962 -0.0491 -0.2304
14719TIP3    H165572   1.455   2.472  15.589 -0.0867  1.4832 -0.6023
14719TIP3    H265573   1.596   2.452  15.537 -0.0405 -1.4165  0.5589
14720TIP3   OH265574   2.747   0.224   3.661 -0.2193 -0.4684  0.1596
14720TIP3    H165575   2.814   0.263   3.718 -1.0355 -2.1465  2.3399
14720TIP3    H265576   2.682   0.188   3.722 -1.3255 -1.9854 -1.8603
14721TIP3   OH265577   5.822   0.865  15.890  0.3620 -0.0396  0.2434
14721TIP3    H165578   5.773   0.893  15.813 -0.3572 -0.4214  0.5557
14721TIP3    H265579   5.892   0.810  15.854  1.3770  1.6029 -0.3115
14722TIP3   OH265580   0.763   4.144  11.687 -0.1771 -0.6158  0.8707
14722TIP3    H165581   0.728   4.193  11.612 -1.8366 -1.5388  1.0099
14722TIP3    H265582   0.852   4.120  11.660  0.3008  1.5591  0.3917
14723TIP3   OH265583   1.357   4.079   1.508  0.2505  1.0023  0.1377
14723TIP3    H165584   1.445   4.041   1.505 -0.2920 -0.2013 -1.4266
14723TIP3    H265585   1.331   4.085   1.416 -2.3360 -1.1024  0.6692
14724TIP3   OH265586   0.881   1.385  16.907  0.2917  0.0883 -0.2035
14724TIP3    H165587   0.897   1.363  16.999 -1.0393 -1.3992 -0.2970
14724TIP3    H265588   0.949   1.449  16.885  1.0998 -0.1256  1.5948
14725TIP3   OH265589   1.216   0.792  10.906  0.1141 -0.5920  0.3682
14725TIP3    H165590   1.211   0.847  10.827 -1.8970  0.7080  1.3558
14725TIP3    H265591   1.146   0.728  10.895 -0.2476 -0.3353  1.1512
14726TIP3   OH265592   0.678   2.036   2.149 -0.2534 -0.4644  0.3344
14726TIP3    H165593   0.718   1.963   2.198  2.1821  0.2195 -0.5299
14726TIP3    H265594   0.608   1.996   2.098 -0.0692 -1.9091  1.1884
14727TIP3   OH265595   3.982   4.106  11.045 -0.1621  0.0102  0.0471
14727TIP3    H165596   3.974   4.185  11.098 -0.1077 -0.3513  0.5910
14727TIP3    H265597   4.061   4.121  10.992  0.7434 -0.3434  1.2720
14728TIP3   OH265598   0.926   4.949  11.325 -0.1476 -0.1497 -0.4684
14728TIP3    H165599   0.940   4.937  11.231 -2.7835 -2.5900 -0.6205
14728TIP3    H265600   0.968   4.873  11.365  0.0845  0.3550  0.2505
14729TIP3   OH265601   3.488   5.325  16.485  0.4182 -0.3027  0.0990
14729TIP3    H165602   3.518   5.270  16.412 -0.8724 -0.8775 -0.0123
14729TIP3    H265603   3.463   5.263  16.553 -0.0577  0.1819  0.3638
14730TIP3   OH265604   5.420   0.557  13.069 -0.1095 -0.9477  0.1584
14730TIP3    H165605   5.447   0.616  12.998  0.5319 -1.1796  0.2023
14730TIP3    H265606   5.497   0.553  13.126 -0.3944 -1.2822  0.5175
14731TIP3   OH265607   0.897   0.912   5.049 -0.1976  0.3354 -0.4523
14731TIP3    H165608   0.810   0.872   5.046 -0.5852  1.1926 -0.7647
14731TIP3    H265609   0.881   1.005   5.032  0.5196  0.9311  2.0422
14732TIP3   OH265610   3.519   3.625   3.341 -0.3447 -0.2140  0.2553
14732TIP3    H165611   3.544   3.537   3.314  1.0501  0.3904 -0.4665
14732TIP3    H265612   3.568   3.683   3.283 -0.7120  1.0532  1.1838
14733TIP3   OH265613   4.369   2.275  11.690  0.2662  0.1495  0.0380
14733TIP3    H165614   4.340   2.224  11.614  0.4013  0.0979  0.0221
14733TIP3    H265615   4.319   2.238  11.763  0.0136  0.3103 -0.0530
14734TIP3   OH265616   3.445   5.622  11.882 -0.3263 -0.3649 -0.2009
14734TIP3    H165617   3.426   5.697  11.938  0.7166  0.4663 -0.9560
14734TIP3    H265618   3.361   5.602  11.840 -0.9053 -0.4346  0.9504
14735TIP3   OH265619   5.129   3.818  14.161  0.6019  0.0265 -0.1786
14735TIP3    H165620   5.057   3.800  14.100 -1.8333  3.0569  1.6571
14735TIP3    H265621   5.095   3.793  14.247  2.2503  0.1963  0.5315
14736TIP3   OH265622   1.316   0.271  16.776  0.3696  0.0215  0.2270
14736TIP3    H165623   1.253   0.202  16.751 -1.0731  1.8438 -1.3057
14736TIP3    H265624   1.392   0.255  16.720 -0.2479  0.0859 -0.6440
14737TIP3   OH265625   1.151   2.070   3.840 -0.5371  0.2521 -0.4702
14737TIP3    H165626   1.150   2.024   3.924  1.4411  0.5632 -0.2453
14737TIP3    H265627   1.129   2.003   3.776  1.7900 -0.9166 -0.0916
14738TIP3   OH265628   3.690   0.884   5.676 -0.2511 -0.0868 -0.4063
14738TIP3    H165629   3.614   0.932   5.641  0.3707  0.6132 -0.8138
14738TIP3    H265630   3.682   0.893   5.771  0.9834  2.6263 -0.5134
14739TIP3   OH265631   4.048   6.690  15.363 -0.1887  1.0450  0.7103
14739TIP3    H165632   4.133   6.660  15.396 -0.1126  1.5185  0.9427
14739TIP3    H265633   4.063   6.708  15.270 -0.2710  0.2301  0.5285
14740TIP3   OH265634   6.174   0.047   0.165 -0.0322  0.7851  0.2789
14740TIP3    H165635   6.081   0.045   0.188 -0.1312  0.2356 -0.1636
14740TIP3    H265636   6.182   0.121   0.105 -0.4133  0.0806 -0.6523
14741TIP3   OH265637   2.156   4.046  16.035  0.0054  0.4197  0.5648
14741TIP3    H165638   2.237   4.055  15.985  0.7789  1.0669  1.9066
14741TIP3    H265639   2.098   4.112  15.998 -0.0659 -0.3112 -0.6725
14742TIP3   OH265640   2.532   2.276   6.443 -0.3049  0.0259 -0.0143
14742TIP3    H165641   2.605   2.299   6.500 -1.3912  0.5837  1.1644
14742TIP3    H265642   2.485   2.358   6.429 -0.4799 -0.2459 -1.1268
14743TIP3   OH265643   1.739   1.607   6.084  0.1378 -0.0121  0.5468
14743TIP3    H165644   1.776   1.561   6.009  0.5997 -1.1919  1.4944
14743TIP3    H265645   1.792   1.687   6.091 -0.0062  0.1891 -0.4623
14744TIP3   OH265646   0.893   3.423  11.140 -0.0131 -0.0038  0.0418
14744TIP3    H165647   0.812   3.401  11.094 -0.8276  1.1429  0.9076
14744TIP3    H265648   0.922   3.505  11.099  1.8592 -1.4747 -1.7084
14745TIP3   OH265649   3.055   0.661  15.731 -0.3669  0.9227 -0.3114
14745TIP3    H165650   3.028   0.617  15.651 -3.7183  0.9724  0.7288
14745TIP3    H265651   3.081   0.590  15.790 -0.3396  0.7367 -0.5472
14746TIP3   OH265652   5.342   2.614   5.976 -0.5002 -0.7247 -0.8048
14746TIP3    H165653   5.429   2.654   5.986 -0.3973 -0.8684 -1.1400
14746TIP3    H265654   5.288   2.685   5.942 -0.5344 -0.6118 -0.5177
14747TIP3   OH265655   1.111   6.397  16.211  1.0905  0.3535 -0.1825
14747TIP3    H165656   1.054   6.333  16.253  0.7592  0.8591  0.1538
14747TIP3    H265657   1.072   6.482  16.235  1.5031  0.6722 -0.6466
14748TIP3   OH265658   0.751   1.032   0.828 -0.5492 -0.5893  0.3683
14748TIP3    H165659   0.737   0.971   0.901 -1.5474 -0.8077  0.0029
14748TIP3    H265660   0.814   0.987   0.772  0.0164 -0.5377  0.9583
14749TIP3   OH265661   0.663   1.454   0.362 -0.0928 -0.4928 -0.0343
14749TIP3    H165662   0.752   1.487   0.375  0.0608  0.2685 -2.6530
14749TIP3    H265663   0.607   1.513   0.412  0.9267 -1.5792  2.4627
14750TIP3   OH265664   0.887   3.380   3.751  0.1185  0.0003  0.1939
14750TIP3    H165665   0.883   3.296   3.796  0.7041  0.5964  1.3973
14750TIP3    H265666   0.868   3.444   3.820  1.8228  0.9754 -0.2255
14751TIP3   OH265667   4.867   0.806   0.771 -0.0831  0.1431  0.2059
14751TIP3    H165668   4.844   0.870   0.704 -0.2186 -0.6677 -0.5380
14751TIP3    H265669   4.948   0.839   0.809  1.1270 -0.4293 -1.7797
14752TIP3   OH265670   6.046   1.425  17.072 -0.3994  0.3325  0.3465
14752TIP3    H165671   6.123   1.456  17.120 -0.8365  1.0976  0.5667
14752TIP3    H265672   6.082   1.383  16.994  0.2812 -0.1771  0.9231
14753TIP3   OH265673   0.965   0.518  10.975  0.3771  0.3118 -0.4554
14753TIP3    H165674   1.005   0.551  11.056 -1.4233 -0.8544  0.9500
14753TIP3    H265675   0.905   0.587  10.948  0.1283  0.2224 -0.1403
14754TIP3   OH265676   0.356   4.941   1.082 -0.7696 -0.1276 -0.3679
14754TIP3    H165677   0.399   4.860   1.052 -0.6556 -0.0367 -0.4499
14754TIP3    H265678   0.425   4.990   1.126 -1.2590 -0.8626  1.2209
14755TIP3   OH265679   0.848   3.582  16.278  0.4043 -0.0026 -0.3152
14755TIP3    H165680   0.851   3.672  16.245 -0.8522  0.0190 -0.4169
14755TIP3    H265681   0.792   3.536  16.215 -2.1522  0.0723  1.8194
14756TIP3   OH265682   2.765   2.553  13.987  0.0634  0.1599  0.1034
14756TIP3    H165683   2.694   2.516  14.040  0.2747 -0.6347 -0.1504
14756TIP3    H265684   2.745   2.522  13.898 -0.3620  1.5834 -0.3000
14757TIP3   OH265685   4.129   2.996  14.895  0.1342  0.0801 -0.3809
14757TIP3    H165686   4.093   3.022  14.810 -1.5189  2.0752  0.8792
14757TIP3    H265687   4.055   2.961  14.943  1.0789 -1.1067  0.2314
14758TIP3   OH265688   2.726   0.619  16.004 -0.1700 -0.6037  0.0873
14758TIP3    H165689   2.757   0.704  16.035 -1.6528 -1.0599  2.8973
14758TIP3    H265690   2.665   0.589  16.071 -0.7051 -3.2816 -1.5264
14759TIP3   OH265691   2.092   2.768   2.228  0.5636  0.2987  0.3904
14759TIP3    H165692   2.164   2.707   2.241  0.9113  0.8244  0.9463
14759TIP3    H265693   2.013   2.713   2.230  0.8623 -0.1138  1.0421
14760TIP3   OH265694   1.904   2.111   4.247  0.2605 -0.3214  0.4746
14760TIP3    H165695   1.832   2.174   4.246 -1.2237 -1.8644  3.1716
14760TIP3    H265696   1.882   2.047   4.179 -1.1872 -0.9903  1.5302
14761TIP3   OH265697   6.724   0.591  15.126  0.2639 -0.3114  0.6367
14761TIP3    H165698   6.793   0.596  15.192 -1.0838  0.3065  2.0471
14761TIP3    H265699   6.668   0.518  15.155  1.6491 -2.4771 -1.8504
14762TIP3   OH265700   2.295   6.716  14.699  0.2300 -0.2253  0.1860
14762TIP3    H165701   2.322   6.625  14.689  2.6613  0.3914  0.7081
14762TIP3    H265702   2.314   6.736  14.791 -1.4222  0.4566  0.3814
14763TIP3   OH265703   5.268   5.409  14.086 -0.0995 -0.0867 -0.1088
14763TIP3    H165704   5.326   5.339  14.117 -1.3678 -0.5753  1.2385
14763TIP3    H265705   5.307   5.489  14.122 -0.9913 -0.5521  1.9766
14764TIP3   OH265706   6.727   5.267  15.674  0.3884  0.5104  0.6032
14764TIP3    H165707   6.739   5.327  15.600  0.3586  1.0605  1.0453
14764TIP3    H265708   6.800   5.206  15.667  1.3979  1.6451  1.1643
14765TIP3   OH265709   3.949   3.950  16.616  0.0732 -0.3101 -0.0640
14765TIP3    H165710   3.880   3.966  16.551  0.4901 -1.5653 -0.8381
14765TIP3    H265711   3.908   3.970  16.700 -0.4163  1.5274 -0.7316
14766TIP3   OH265712   4.580   4.568  16.046 -0.1823 -0.4134  0.1089
14766TIP3    H165713   4.633   4.495  16.078  0.4768 -0.3215 -0.7546
14766TIP3    H265714   4.616   4.645  16.090  0.2847 -0.3724 -0.3508
14767TIP3   OH265715   2.933   2.926   4.284  0.3941  0.4159 -0.9106
14767TIP3    H165716   2.971   2.991   4.342  1.0886 -0.0878 -0.7910
14767TIP3    H265717   2.843   2.955   4.272 -0.0972 -0.0647  1.3067
14768TIP3   OH265718   0.129   4.151   0.336  0.2993 -0.2838  0.2246
14768TIP3    H165719   0.070   4.226   0.336 -0.9715 -1.2608  0.0624
14768TIP3    H265720   0.117   4.112   0.423  0.4481 -0.6855  0.0639
14769TIP3   OH265721   3.191   3.553   3.016  0.6053 -0.0908  0.4377
14769TIP3    H165722   3.167   3.646   3.010  0.2622 -0.2490 -0.9155
14769TIP3    H265723   3.236   3.535   2.933 -0.9791 -1.5768 -0.1281
14770TIP3   OH265724   4.031   2.394  11.333  0.1811  0.0771  0.3180
14770TIP3    H165725   4.062   2.411  11.244 -2.9781  0.3714 -0.7901
14770TIP3    H265726   4.058   2.304  11.351  0.5947 -0.0950 -1.0766
14771TIP3   OH265727   1.120   3.121   1.300  0.2329  0.0892 -0.0117
14771TIP3    H165728   1.111   3.030   1.270  0.0430 -0.5449  1.9403
14771TIP3    H265729   1.096   3.173   1.223 -0.6319 -1.5109 -0.8676
14772TIP3   OH265730   6.107   1.219   4.706 -0.7034 -0.2318 -0.0982
14772TIP3    H165731   6.161   1.161   4.652 -1.1810  0.2914 -1.1504
14772TIP3    H265732   6.075   1.286   4.645  1.3922  2.2771  1.4180
14773TIP3   OH265733   2.470   4.979   2.727  0.3339 -0.2638  0.0773
14773TIP3    H165734   2.393   5.032   2.745 -0.8290 -2.3881  1.5678
14773TIP3    H265735   2.457   4.947   2.638 -0.3980 -0.4331  0.2428
14774TIP3   OH265736   5.863   3.293  12.952 -0.1135  0.4472  0.3949
14774TIP3    H165737   5.840   3.303  13.045 -1.6597 -1.2344  0.2382
14774TIP3    H265738   5.780   3.271  12.910  0.8817 -0.5103 -1.1075
14775TIP3   OH265739   5.587   5.566  12.563 -0.0887  0.0460 -0.4712
14775TIP3    H165740   5.577   5.659  12.584  1.4248  0.3189 -0.8836
14775TIP3    H265741   5.672   5.542  12.600 -1.0277 -1.4930  0.7111
14776TIP3   OH265742   3.668   6.366  16.650  0.1458 -0.0133 -0.3919
14776TIP3    H165743   3.590   6.318  16.622  0.6998  0.6723 -3.2469
14776TIP3    H265744   3.635   6.452  16.678 -0.0734  0.4983 -2.1868
14777TIP3   OH265745   0.133   1.748  12.879 -0.5159 -0.6255 -0.7534
14777TIP3    H165746   0.087   1.830  12.896  1.6363  0.7051 -1.0264
14777TIP3    H265747   0.106   1.689  12.949  0.5078  1.4459  1.4623
14778TIP3   OH265748   4.938   5.604  11.546  0.2005 -0.1011  0.3798
14778TIP3    H165749   4.903   5.604  11.635 -1.2723 -2.9113 -0.1510
14778TIP3    H265750   4.907   5.687  11.509 -1.2746 -0.0364  1.6899
14779TIP3   OH265751   0.217   2.729   3.289 -0.6335 -0.3280  0.3381
14779TIP3    H165752   0.194   2.821   3.278  0.0754 -0.2646 -0.7321
14779TIP3    H265753   0.286   2.729   3.356  0.4656  0.0925 -0.7748
14780TIP3   OH265754   0.423   3.922  14.287  0.1775 -0.4036  0.0771
14780TIP3    H165755   0.358   3.949  14.221  1.2389  0.6680 -0.5553
14780TIP3    H265756   0.498   3.980  14.271  0.6202 -0.4490  1.9446
14781TIP3   OH265757   3.877   2.451   0.462 -0.9916  0.0683 -0.1391
14781TIP3    H165758   3.857   2.436   0.370  1.9952  1.6652 -1.1190
14781TIP3    H265759   3.943   2.385   0.484  0.0099  1.1415  0.1592
14782TIP3   OH265760   0.138   5.084  11.538  0.3181  0.7191  0.1045
14782TIP3    H165761   0.137   5.179  11.550  0.3667  0.5410  1.5932
14782TIP3    H265762   0.076   5.051  11.603  0.0763 -0.2484 -0.6064
14783TIP3   OH265763   5.407   1.211   2.501 -0.1173 -0.1552  0.5543
14783TIP3    H165764   5.422   1.200   2.407 -3.3949  0.2835 -0.1037
14783TIP3    H265765   5.405   1.306   2.513 -1.4047 -0.1908  0.7194
14784TIP3   OH265766   1.756   3.091   3.998 -0.3483  0.3977  0.3694
14784TIP3    H165767   1.742   3.178   4.033  0.5213 -0.0344  1.7986
14784TIP3    H265768   1.836   3.060   4.039  0.0083 -0.6189 -1.0275
14785TIP3   OH265769   5.648   4.681   0.064 -0.0029 -0.0536 -0.2940
14785TIP3    H165770   5.694   4.626   0.127 -3.6599 -1.3668  1.3479
14785TIP3    H265771   5.643   4.627  -0.016  1.2044  0.0674 -0.4549
14786TIP3   OH265772   3.774   2.296  12.793  0.2938 -0.4161 -0.5853
14786TIP3    H165773   3.729   2.231  12.847  0.1018  0.4041  0.2601
14786TIP3    H265774   3.781   2.255  12.706  0.3241 -1.6121 -0.0212
14787TIP3   OH265775   2.737   2.052  14.800 -0.1056  0.4830 -0.2341
14787TIP3    H165776   2.655   2.002  14.806  0.4926 -0.5887 -0.8193
14787TIP3    H265777   2.776   2.024  14.717  3.0499 -2.4687  2.0954
14788TIP3   OH265778   5.179   4.642  13.139  0.4496  0.2198 -1.2223
14788TIP3    H165779   5.166   4.586  13.215  0.0044  2.6204  0.5282
14788TIP3    H265780   5.212   4.583  13.071 -2.3887 -2.6544 -0.2647
14789TIP3   OH265781   2.772   0.697  16.989 -0.4085 -0.1025 -0.2627
14789TIP3    H165782   2.681   0.667  16.987 -0.4403 -0.0039 -0.3119
14789TIP3    H265783   2.765   0.792  17.003 -0.3221 -0.0470 -0.5976
14790TIP3   OH265784   1.014   6.145   2.762 -0.2821 -0.0449 -0.1489
14790TIP3    H165785   0.931   6.172   2.802 -0.3563  0.1724 -0.4546
14790TIP3    H265786   1.070   6.123   2.837 -0.8317 -0.8226  0.0347
14791TIP3   OH265787   4.911   4.933  13.779 -0.2238 -0.0061 -0.3915
14791TIP3    H165788   4.901   4.867  13.710 -1.6431  0.5208 -0.7143
14791TIP3    H265789   4.949   4.885  13.853 -0.1552 -0.9293 -1.0178
14792TIP3   OH265790   0.556   1.077  12.370  0.4857 -1.0966  0.2715
14792TIP3    H165791   0.485   1.092  12.308 -0.3532  0.3820  1.5533
14792TIP3    H265792   0.633   1.065  12.315 -0.1501  0.6820 -1.0626
14793TIP3   OH265793   6.400   5.826  12.110 -0.9825  0.0532 -0.7691
14793TIP3    H165794   6.393   5.921  12.096 -0.2217  0.0328 -1.3176
14793TIP3    H265795   6.336   5.788  12.049 -0.0466  0.1307 -1.8057
14794TIP3   OH265796   3.500   1.139  12.916 -0.0458  0.5126 -0.6236
14794TIP3    H165797   3.424   1.134  12.857 -0.1428  0.1083 -0.4668
14794TIP3    H265798   3.532   1.229  12.906 -1.0540  0.9351 -0.0507
14795TIP3   OH265799   5.983   1.373  11.692  0.2980  0.3225  0.5603
14795TIP3    H165800   6.078   1.385  11.698  0.4341 -0.7973  0.6565
14795TIP3    H265801   5.968   1.335  11.606 -0.0875  0.7089  0.4539
14796TIP3   OH265802   0.857   3.162   0.990 -0.4111 -0.1811  0.0966
14796TIP3    H165803   0.827   3.106   1.061 -2.6284 -0.2688 -0.8655
14796TIP3    H265804   0.802   3.240   0.996 -1.9514 -0.9809 -2.6137
14797TIP3   OH265805   5.651   6.679   3.790 -0.3105  0.1417  0.0979
14797TIP3    H165806   5.581   6.744   3.794 -0.0840  0.3819  0.1898
14797TIP3    H265807   5.682   6.683   3.699 -1.9948 -1.6452 -0.5889
14798TIP3   OH265808   5.697   2.599   5.444  0.0315 -0.0006  0.4159
14798TIP3    H165809   5.775   2.605   5.389 -0.0914  1.9724  0.4259
14798TIP3    H265810   5.624   2.596   5.381  0.0472 -0.8200  0.4286
14799TIP3   OH265811   3.066   5.737   0.341 -0.3703 -0.2460 -0.6878
14799TIP3    H165812   3.033   5.819   0.378 -0.1137 -0.2800 -0.3733
14799TIP3    H265813   3.069   5.677   0.415  1.5519  0.1215 -0.4291
14800TIP3   OH265814   4.566   6.672  16.263 -0.3307  0.3507  0.5140
14800TIP3    H165815   4.524   6.687  16.348 -0.2978  0.8075  0.4500
14800TIP3    H265816   4.505   6.708  16.199 -0.5304 -0.3340  0.3165
14801TIP3   OH265817   6.440   0.173   1.586  0.4215  0.2340  0.3217
14801TIP3    H165818   6.528   0.180   1.549 -0.5818  1.1502 -1.9756
14801TIP3    H265819   6.397   0.255   1.562 -1.4035 -0.6332  0.5426
14802TIP3   OH265820   0.691   2.805   3.082  0.0570 -0.2772  0.4282
14802TIP3    H165821   0.716   2.891   3.046 -0.5800 -0.1146  0.3698
14802TIP3    H265822   0.641   2.764   3.011 -2.6109  0.6973  1.6849
14803TIP3   OH265823   0.002   5.020  15.092  0.3424 -0.6212 -0.0655
14803TIP3    H165824  -0.044   5.083  15.037  0.2134 -0.1229  0.6023
14803TIP3    H265825  -0.022   4.934  15.056 -2.5995 -0.4600  1.3483
14804TIP3   OH265826   4.850   1.779   4.434 -0.1538  0.4598 -0.5104
14804TIP3    H165827   4.849   1.705   4.494  0.1271  1.0217  0.1933
14804TIP3    H265828   4.938   1.815   4.442 -0.2506  0.8004 -0.9358
14805TIP3   OH265829   2.414   0.027  14.996  0.9329  0.2783  0.0649
14805TIP3    H165830   2.324   0.048  14.969  0.9552  1.5313  0.8809
14805TIP3    H265831   2.431   0.088  15.068  2.6806  0.5239 -0.5392
14806TIP3   OH265832   1.581   2.947  17.220 -0.3819 -1.0264 -0.3848
14806TIP3    H165833   1.596   2.855  17.200 -0.3830 -0.9332 -0.8192
14806TIP3    H265834   1.519   2.946  17.293  1.5323 -1.4116  1.2546
14807TIP3   OH265835   1.143   4.602  15.976 -0.0067 -0.3413  0.0385
14807TIP3    H165836   1.121   4.512  15.953  0.3603 -0.4566  0.1344
14807TIP3    H265837   1.236   4.610  15.956 -0.4047  0.5070 -1.4804
14808TIP3   OH265838   1.983   2.577   5.993 -0.1785  0.2167 -0.3694
14808TIP3    H165839   1.942   2.657   6.026 -1.8842 -1.2294  1.1078
14808TIP3    H265840   2.049   2.556   6.059  0.0491  0.2199 -0.5962
14809TIP3   OH265841   1.057   2.985  14.847  0.0161 -0.2099  0.5075
14809TIP3    H165842   1.004   2.910  14.876 -1.9240  1.0117  0.1918
14809TIP3    H265843   1.098   3.017  14.927  1.9809 -2.4554  0.4324
14810TIP3   OH265844   2.385   1.165   4.759  0.4615  0.9808 -0.0720
14810TIP3    H165845   2.380   1.214   4.841  0.1935  0.0099  0.5015
14810TIP3    H265846   2.437   1.220   4.701 -2.2889  3.3311 -0.4308
14811TIP3   OH265847   0.139   0.256  15.348  0.1621  0.2694 -0.2981
14811TIP3    H165848   0.217   0.221  15.390 -0.2642  0.3398  0.5606
14811TIP3    H265849   0.066   0.213  15.392 -0.2704 -0.5213 -1.7428
14812TIP3   OH265850   1.890   6.318  15.780 -0.0551 -0.1701 -0.4425
14812TIP3    H165851   1.878   6.407  15.747 -1.7109  0.5396  1.9560
14812TIP3    H265852   1.819   6.268  15.741  1.4390 -0.6893 -2.5539
14813TIP3   OH265853   6.740   0.787  13.717  0.3671 -0.2493 -0.0998
14813TIP3    H165854   6.723   0.877  13.689 -1.3697 -1.0541 -1.7473
14813TIP3    H265855   6.810   0.756  13.659  1.4731  0.2705  0.9513
14814TIP3   OH265856   4.105   5.056   3.191  0.0190 -0.2237  0.0145
14814TIP3    H165857   4.047   5.059   3.268  1.6288  0.6005  1.2094
14814TIP3    H265858   4.139   4.967   3.191  0.0206 -0.2228  0.2408
14815TIP3   OH265859   2.754   4.062  12.860  0.5013 -0.6518 -0.1758
14815TIP3    H165860   2.769   4.118  12.936 -0.7346  0.3504 -0.6492
14815TIP3    H265861   2.666   4.025  12.874 -0.0178  0.0676 -1.4191
14816TIP3   OH265862   5.082   3.839   2.861  0.0753  0.0720  0.9273
14816TIP3    H165863   5.011   3.876   2.810 -0.4089 -2.2844 -0.1656
14816TIP3    H265864   5.162   3.870   2.817 -0.3087 -0.0372  0.1488
14817TIP3   OH265865   0.234   0.827  15.859 -0.0611 -0.4244  0.2715
14817TIP3    H165866   0.196   0.903  15.816  1.1652 -0.6859 -1.3021
14817TIP3    H265867   0.222   0.843  15.952 -0.2514  1.4658 -0.0727
14818TIP3   OH265868   2.929   5.357  13.480  0.2794 -0.6608 -0.0003
14818TIP3    H165869   2.899   5.292  13.543  1.3802 -0.9423  0.2591
14818TIP3    H265870   2.863   5.426  13.482  0.1535 -0.8142  1.2467
14819TIP3   OH265871   2.630   2.348   0.578  0.3683  0.0446  0.6605
14819TIP3    H165872   2.679   2.391   0.508  0.2847 -0.1930  0.4540
14819TIP3    H265873   2.665   2.259   0.580 -2.1282 -1.0737 -1.5370
14820TIP3   OH265874   0.746   3.374  10.901  0.1337 -0.5416 -0.1904
14820TIP3    H165875   0.831   3.332  10.886  1.9010  2.1988  1.6299
14820TIP3    H265876   0.723   3.412  10.816  2.0895  1.0095 -0.0524
14821TIP3   OH265877   2.375   0.604  13.660 -0.4888  0.6702 -0.6243
14821TIP3    H165878   2.391   0.657  13.738  0.0718  0.2727 -0.4544
14821TIP3    H265879   2.458   0.557  13.647 -0.8717  0.0754 -0.9418
14822TIP3   OH265880   6.073   6.083  11.098  0.0181 -0.0758 -0.3899
14822TIP3    H165881   6.148   6.029  11.074  0.5165  1.0438 -1.4144
14822TIP3    H265882   5.997   6.027  11.080  0.4506  0.1104 -3.0228
14823TIP3   OH265883   1.097   2.898  11.619  0.6470 -0.6005  0.4207
14823TIP3    H165884   1.017   2.910  11.671 -1.6112 -0.6105 -2.8880
14823TIP3    H265885   1.167   2.929  11.676 -1.7470 -0.1691  3.2843
14824TIP3   OH265886   0.226   2.673   3.946  0.7139  0.0603 -0.0448
14824TIP3    H165887   0.296   2.738   3.949  1.9230 -1.1941 -0.6120
14824TIP3    H265888   0.234   2.633   3.860 -1.9823  1.2673 -0.9071
14825TIP3   OH265889   0.048   1.577   0.158 -0.6143 -0.2736  0.1789
14825TIP3    H165890   0.038   1.510   0.090 -0.9103  1.1663 -1.2388
14825TIP3    H265891   0.124   1.629   0.129 -0.8817  0.4837  0.8215
14826TIP3   OH265892   6.133   0.092   4.144 -0.2389  0.3291  0.0853
14826TIP3    H165893   6.210   0.107   4.090  0.1587 -0.9295  0.2731
14826TIP3    H265894   6.064   0.071   4.081  0.2518 -1.2516  0.0451
14827TIP3   OH265895   2.875   4.891   4.889  0.2188 -0.0714  0.3822
14827TIP3    H165896   2.962   4.877   4.927 -0.5987 -1.3493  1.8186
14827TIP3    H265897   2.892   4.909   4.796  2.1015  0.9873  0.8987
14828TIP3   OH265898   2.517   0.906  12.869 -0.3125  0.0924 -0.2377
14828TIP3    H165899   2.480   0.962  12.800  1.5170 -1.2754 -2.3644
14828TIP3    H265900   2.461   0.923  12.945 -2.5541  1.4235 -2.1068
14829TIP3   OH265901   0.883   3.124  16.529  0.2215 -0.3412 -0.3515
14829TIP3    H165902   0.858   3.191  16.465 -1.7844 -1.7401 -1.0574
14829TIP3    H265903   0.954   3.076  16.487  1.2860  0.9696 -0.0748
14830TIP3   OH265904   0.775   4.964   0.181  0.2725  0.4498  0.5747
14830TIP3    H165905   0.689   5.007   0.180  0.0451  0.0359  1.4840
14830TIP3    H265906   0.829   5.016   0.123 -1.6382 -1.4402 -3.1185
14831TIP3   OH265907   0.685   2.294   5.495 -0.3534  0.4551  0.5024
14831TIP3    H165908   0.757   2.316   5.554 -1.2670  1.3530  1.3130
14831TIP3    H265909   0.663   2.377   5.452 -0.3581  0.0130 -0.3486
14832TIP3   OH265910   5.604   2.562   4.523  0.0137 -0.3414 -0.3323
14832TIP3    H165911   5.686   2.527   4.556 -0.8570 -1.3759  0.7892
14832TIP3    H265912   5.543   2.556   4.597 -0.8346  1.2544 -0.8583
14833TIP3   OH265913   4.709   1.765  12.053 -0.3686  0.1789  0.0611
14833TIP3    H165914   4.715   1.801  12.142 -0.2282 -0.6794  0.4093
14833TIP3    H265915   4.775   1.813  12.003 -0.4400  0.6615  0.4232
14834TIP3   OH265916   0.157   1.048   2.797  0.0531 -0.3144 -0.6951
14834TIP3    H165917   0.214   0.973   2.811  0.8888  0.4839  0.2716
14834TIP3    H265918   0.216   1.117   2.766 -0.4428  0.4113 -0.0419
14835TIP3   OH265919   1.863   2.806   4.725  0.0018  0.2958  0.0448
14835TIP3    H165920   1.931   2.785   4.661  0.7618  0.8523  0.6587
14835TIP3    H265921   1.896   2.771   4.808  0.2049  1.8031  0.6217
14836TIP3   OH265922   0.531   4.851  13.392  0.2298  0.3297  0.1111
14836TIP3    H165923   0.438   4.875  13.392 -0.1036 -0.8748 -1.5077
14836TIP3    H265924   0.533   4.763  13.429  0.7637  0.4313  0.3256
14837TIP3   OH265925   5.147   3.500   1.009 -0.0297 -0.9394 -0.3235
14837TIP3    H165926   5.099   3.580   1.031  0.9217 -0.4949  0.2114
14837TIP3    H265927   5.223   3.531   0.959 -0.0926 -1.5868 -0.8250
14838TIP3   OH265928   0.731   3.953   0.226 -0.5378 -0.1426 -0.0990
14838TIP3    H165929   0.811   3.946   0.175 -1.2282  0.4512 -1.3051
14838TIP3    H265930   0.661   3.932   0.164 -1.3197 -0.6074  0.9191
14839TIP3   OH265931   5.443   0.317   0.746 -0.0209  0.2180 -0.2618
14839TIP3    H165932   5.501   0.307   0.822 -1.0683 -2.3362  0.2592
14839TIP3    H265933   5.359   0.343   0.783 -0.3151 -0.2296 -0.6033
14840TIP3   OH265934   6.102   0.965  16.509  0.1199  0.0986 -0.6548
14840TIP3    H165935   6.120   1.046  16.556  0.9154  0.3166 -1.3306
14840TIP3    H265936   6.011   0.944  16.532 -0.2486  1.4284 -0.8553
14841TIP3   OH265937   2.788   5.563  12.240  0.3726 -0.4058  0.1895
14841TIP3    H165938   2.722   5.631  12.233  0.4948 -0.2144  0.8501
14841TIP3    H265939   2.738   5.481  12.240  0.2036 -0.3043 -0.2613
14842TIP3   OH265940   5.631   0.894   0.395  0.2368 -0.0115 -0.1835
14842TIP3    H165941   5.692   0.930   0.460 -0.6558  2.2151 -0.5484
14842TIP3    H265942   5.555   0.865   0.446  0.6128 -0.6323  0.0262
14843TIP3   OH265943   1.656   2.803   3.939  0.8102 -0.0392  0.2387
14843TIP3    H165944   1.614   2.843   4.015  1.6510  0.3361  0.5169
14843TIP3    H265945   1.709   2.873   3.901  3.8434 -1.3268  1.8683
14844TIP3   OH265946   0.412   0.140  17.056  0.0990  0.6325  0.2492
14844TIP3    H165947   0.483   0.086  17.091  1.3349  1.6015 -0.6969
14844TIP3    H265948   0.396   0.105  16.968  0.7459  1.6203 -0.2826
14845TIP3   OH265949   1.248   4.534  15.650 -0.0984 -0.2967 -0.4552
14845TIP3    H165950   1.216   4.569  15.733 -0.0151 -0.1759 -0.4737
14845TIP3    H265951   1.297   4.455  15.675  1.3573  0.6481 -0.2158
14846TIP3   OH265952   6.520   5.488  15.380  0.0128 -0.0899 -0.6227
14846TIP3    H165953   6.479   5.572  15.401 -0.4759 -0.6861  0.8152
14846TIP3    H265954   6.604   5.512  15.340 -0.6128  1.0951 -1.2377
14847TIP3   OH265955   1.235   2.399   4.832 -0.0730  0.0596  0.3343
14847TIP3    H165956   1.194   2.433   4.912 -1.0892  3.1521 -1.4063
14847TIP3    H265957   1.295   2.468   4.805 -0.1258 -0.7121 -1.8491
14848TIP3   OH265958   5.992   3.760  17.164  0.4270  0.2374 -0.2681
14848TIP3    H165959   5.900   3.759  17.191  0.6625 -2.0649  0.5558
14848TIP3    H265960   6.021   3.669  17.172  2.4422  0.7047 -1.7317
14849TIP3   OH265961   1.566   3.860   5.282  0.2793 -0.3248  0.0743
14849TIP3    H165962   1.552   3.787   5.221  1.0901  0.6064 -1.2376
14849TIP3    H265963   1.598   3.931   5.228  0.0896  0.8340  1.4514
14850TIP3   OH265964   5.705   5.724  16.138  0.0552  0.1437 -0.3417
14850TIP3    H165965   5.622   5.742  16.182  0.2944  0.6608 -0.0995
14850TIP3    H265966   5.686   5.651  16.079 -0.4841  0.0285 -0.0257
14851TIP3   OH265967   4.299   5.266   2.220 -0.2107 -0.0524  0.1875
14851TIP3    H165968   4.278   5.358   2.238 -0.8042 -0.2201  0.3763
14851TIP3    H265969   4.364   5.269   2.150 -0.7024  0.4929 -0.2463
14852TIP3   OH265970   3.750   2.207   2.681 -0.6615 -0.4595 -0.4908
14852TIP3    H165971   3.730   2.189   2.589  0.6503 -1.0846 -0.6619
14852TIP3    H265972   3.770   2.301   2.683 -1.3854 -0.2970 -0.7089
14853TIP3   OH265973   5.105   5.137  11.417 -0.3577  1.0568 -0.5137
14853TIP3    H165974   5.194   5.167  11.432 -0.1177  0.7534 -1.2871
14853TIP3    H265975   5.051   5.193  11.472  0.4328  0.1995  1.1964
14854TIP3   OH265976   3.605   5.688   0.957 -0.1410 -0.7901  0.3077
14854TIP3    H165977   3.586   5.769   1.003  0.4328 -0.3418 -0.2470
14854TIP3    H265978   3.698   5.691   0.938  0.0472 -1.9483  0.9958
14855TIP3   OH265979   0.473   1.101  16.912 -0.4788  0.1426  0.0140
14855TIP3    H165980   0.414   1.159  16.960  1.5022  0.5352  2.0869
14855TIP3    H265981   0.560   1.140  16.924  0.5442 -1.8088 -0.7905
14856TIP3   OH265982   5.180   4.095   4.834  0.0052 -0.3207 -0.0864
14856TIP3    H165983   5.102   4.145   4.808 -0.0691  0.6545  1.8455
14856TIP3    H265984   5.226   4.154   4.895  1.3214 -1.5935  0.1727
14857TIP3   OH265985   1.476   1.958  13.314 -0.1357  0.7154 -0.0003
14857TIP3    H165986   1.397   2.006  13.341 -1.9101 -0.7866 -2.2617
14857TIP3    H265987   1.547   2.020  13.328 -1.6638  2.0542  2.3037
14858TIP3   OH265988   3.642   2.510   1.533  0.3686  0.2289 -0.6281
14858TIP3    H165989   3.605   2.597   1.550  2.3990  0.8144  1.1608
14858TIP3    H265990   3.657   2.473   1.620  0.4862 -1.4897 -1.3589
14859TIP3   OH265991   4.406   3.527   1.809 -0.4936 -0.3872  0.4790
14859TIP3    H165992   4.456   3.547   1.888 -1.4600 -0.2247  1.0572
14859TIP3    H265993   4.421   3.434   1.794  0.7961 -0.1264  0.0648
14860TIP3   OH265994   5.403   5.671  13.006  0.1752 -0.2240  0.1928
14860TIP3    H165995   5.400   5.613  13.081  0.3542 -1.3427 -0.6547
14860TIP3    H265996   5.452   5.623  12.940  0.6324  1.0320 -0.4015
14861TIP3   OH265997   4.759   1.035   5.042 -0.2888 -0.0858  0.0605
14861TIP3    H165998   4.696   0.964   5.029  0.0080 -0.1895 -0.7916
14861TIP3    H265999   4.738   1.069   5.129 -0.9144 -0.7316  0.1681
14862TIP3   OH266000   1.183   3.784   2.519 -0.4174  0.0169 -0.0238
14862TIP3    H166001   1.248   3.714   2.529  0.0357  0.3790 -0.4004
14862TIP3    H266002   1.177   3.796   2.424  1.1127  1.9786  0.1029
14863TIP3   OH266003   1.888   3.898  15.027 -0.6530  0.7035  1.4011
14863TIP3    H166004   1.850   3.897  15.115 -1.8857  0.2667  0.8808
14863TIP3    H266005   1.875   3.808  14.995  1.1792  0.4347  1.3497
14864TIP3   OH266006   3.048   2.799   3.791 -0.4003 -0.1814  0.8648
14864TIP3    H166007   3.006   2.881   3.816 -0.1434  0.4868 -0.8317
14864TIP3    H266008   3.083   2.815   3.703  1.2156 -1.5185  1.2208
14865TIP3   OH266009   3.242   1.003   1.866  0.2144 -0.1402  0.8700
14865TIP3    H166010   3.285   1.076   1.822  0.8942  0.4462  2.4429
14865TIP3    H266011   3.306   0.931   1.861  0.5345  0.1044  1.4042
14866TIP3   OH266012   2.499   2.140  13.015 -0.3260  0.2729  0.2284
14866TIP3    H166013   2.558   2.127  13.089  0.2873 -1.3565 -0.5450
14866TIP3    H266014   2.556   2.149  12.939 -1.0986 -3.7838 -0.9083
14867TIP3   OH266015   1.333   1.114  14.676 -0.2143  0.2218  0.3813
14867TIP3    H166016   1.345   1.099  14.583 -1.2862  1.6755  0.0036
14867TIP3    H266017   1.239   1.105  14.690 -0.1183  0.4890  1.2487
14868TIP3   OH266018   1.374   6.723  17.124  0.1133 -0.1558 -0.1914
14868TIP3    H166019   1.287   6.693  17.098  0.6032 -1.7278 -0.0302
14868TIP3    H266020   1.379   6.708  17.218  0.4883  0.1154 -0.1643
14869TIP3   OH266021   1.965   5.020   6.413  0.1473 -0.2311 -0.2666
14869TIP3    H166022   2.009   4.978   6.488  0.3520  0.6879  0.1316
14869TIP3    H266023   1.899   5.076   6.452 -0.1656 -0.2256 -0.8035
14870TIP3   OH266024   1.033   4.151  11.618  0.3401 -0.3281  0.0858
14870TIP3    H166025   1.058   4.187  11.532 -0.0645  0.3348  0.2419
14870TIP3    H266026   1.095   4.190  11.679  3.7661 -4.5087 -0.5017
14871TIP3   OH266027   4.536   4.304   1.503  0.0190  0.0672 -0.1730
14871TIP3    H166028   4.620   4.299   1.548  2.2417 -0.9960 -4.2550
14871TIP3    H266029   4.539   4.386   1.454 -2.1295  0.9274  1.0514
14872TIP3   OH266030   0.046   1.813  16.121  0.3200 -0.1763 -0.4369
14872TIP3    H166031   0.139   1.808  16.143  0.6982 -0.1620 -1.9201
14872TIP3    H266032   0.031   1.906  16.100  0.0326 -0.2240 -0.4523
14873TIP3   OH266033   4.910   2.345  13.109  0.5215  0.2284  0.7692
14873TIP3    H166034   4.858   2.275  13.148  1.0967  0.3517  1.8068
14873TIP3    H266035   4.998   2.331  13.145  0.7266  1.2446  0.6842
14874TIP3   OH266036   6.386   4.511   5.170 -0.1094 -0.1147  0.9525
14874TIP3    H166037   6.478   4.487   5.156 -0.2821 -0.6133  0.6379
14874TIP3    H266038   6.352   4.526   5.082 -0.6757 -1.2647  0.9607
14875TIP3   OH266039   5.393   6.045   1.860  0.0086 -0.2640  0.4928
14875TIP3    H166040   5.340   6.014   1.787 -2.1058  0.6129  1.6016
14875TIP3    H266041   5.474   5.994   1.855 -0.3630 -0.6380 -2.0700
14876TIP3   OH266042   3.746   4.081  13.866  0.5449  0.4531 -0.3670
14876TIP3    H166043   3.699   4.005  13.832 -1.7931  1.9503 -0.6245
14876TIP3    H266044   3.796   4.048  13.940 -2.5173 -0.8680  1.1831
14877TIP3   OH266045   1.864   3.583   2.727 -0.3859  0.6716 -0.3085
14877TIP3    H166046   1.825   3.557   2.810 -1.1658  1.6077 -0.3805
14877TIP3    H266047   1.919   3.659   2.749 -1.2337  1.4290 -0.7836
14878TIP3   OH266048   6.169   6.397  16.297 -0.1172  0.5093  0.8423
14878TIP3    H166049   6.253   6.353  16.301  0.6136  1.8027  0.1618
14878TIP3    H266050   6.177   6.471  16.357 -0.3298  1.3401 -0.1337
14879TIP3   OH266051   1.493   1.378   4.995  0.9116  0.6091 -0.5622
14879TIP3    H166052   1.456   1.387   5.082 -0.0439  1.7793 -1.0897
14879TIP3    H266053   1.579   1.336   5.010  1.3517  2.0481  1.0497
14880TIP3   OH266054   0.148   0.795  12.417  0.0665 -0.0215 -0.1588
14880TIP3    H166055   0.156   0.728  12.485  0.3427 -1.4300 -1.5355
14880TIP3    H266056   0.237   0.824  12.401  0.1465 -0.5657 -0.7456
14881TIP3   OH266057   6.004   4.282   6.568 -0.4189  0.1870  0.5256
14881TIP3    H166058   5.950   4.203   6.568 -0.6793  0.3630  0.3494
14881TIP3    H266059   6.087   4.255   6.528 -0.9329  0.2868 -0.6472
14882TIP3   OH266060   1.356   4.931   1.554 -0.0079 -0.0468 -0.1202
14882TIP3    H166061   1.289   4.903   1.491  1.1607 -1.9740 -0.5543
14882TIP3    H266062   1.315   4.918   1.640 -0.6373 -0.0181 -0.4120
14883TIP3   OH266063   3.159   6.417  15.040  0.1502  0.0923  0.8755
14883TIP3    H166064   3.229   6.442  15.101  0.0598  0.6648  0.7503
14883TIP3    H266065   3.205   6.383  14.964  0.2773 -0.1836  1.0744
14884TIP3   OH266066   3.918   4.731   3.032 -0.5305 -0.5903 -0.0700
14884TIP3    H166067   3.974   4.654   3.023  1.2621  0.4856  1.5887
14884TIP3    H266068   3.832   4.696   3.055  0.3656 -2.0808  1.0851
14885TIP3   OH266069   5.748   5.849  13.440 -0.0779  0.9232 -0.1350
14885TIP3    H166070   5.747   5.935  13.397 -0.8826  1.2634  0.5649
14885TIP3    H266071   5.657   5.831  13.461  0.1195  0.0099 -0.0271
14886TIP3   OH266072   2.031   0.771  12.224 -0.4119  0.1937  0.0831
14886TIP3    H166073   2.051   0.854  12.267  0.6842 -0.4161  0.7677
14886TIP3    H266074   2.115   0.740  12.191 -0.6985 -0.9771  0.4308
14887TIP3   OH266075   5.711   2.539  17.109  0.0018  0.2119 -0.1615
14887TIP3    H166076   5.636   2.479  17.105  0.0044  0.1592  0.4651
14887TIP3    H266077   5.716   2.563  17.202 -0.0476  1.2318 -0.4207
14888TIP3   OH266078   4.194   0.201   2.717 -0.7383 -0.3367 -0.3046
14888TIP3    H166079   4.283   0.183   2.685 -0.7173  1.4352 -1.2707
14888TIP3    H266080   4.137   0.168   2.647 -0.8035  0.0526 -0.4312
14889TIP3   OH266081   0.358   4.496  11.225 -0.5933  0.1595 -0.0226
14889TIP3    H166082   0.330   4.574  11.273 -0.7315 -0.4379  0.8733
14889TIP3    H266083   0.353   4.522  11.133 -1.3406  0.9731  0.2413
14890TIP3   OH266084   5.370   2.018   1.673 -0.1854 -0.0498 -0.0179
14890TIP3    H166085   5.305   1.991   1.739  1.5988  0.4548  1.9711
14890TIP3    H266086   5.329   2.092   1.628 -1.1829 -0.0211  0.9130
14891TIP3   OH266087   4.233   0.320  14.700  0.2311 -0.0902  0.2278
14891TIP3    H166088   4.198   0.333  14.788 -0.9639 -1.0725 -0.0765
14891TIP3    H266089   4.243   0.225  14.693 -0.1178 -0.0491 -0.8518
14892TIP3   OH266090   1.521   4.713  12.259 -0.4918 -0.4251 -0.1208
14892TIP3    H166091   1.443   4.741  12.307 -0.3680 -0.2415 -0.0292
14892TIP3    H266092   1.549   4.633  12.305 -0.0325  0.0753  0.4731
14893TIP3   OH266093   4.390   1.006  11.358 -0.8004  0.2070  0.5266
14893TIP3    H166094   4.382   1.098  11.333 -0.0432  0.3039  0.6248
14893TIP3    H266095   4.331   0.997  11.432 -1.4359  0.4348  0.0505
14894TIP3   OH266096   5.770   2.280   0.758 -0.1700  0.3162  0.2683
14894TIP3    H166097   5.769   2.230   0.840 -0.7518  1.0856  0.7424
14894TIP3    H266098   5.679   2.280   0.729 -0.1920  1.1665  0.3270
14895TIP3   OH266099   3.034   3.768  14.410 -0.2737 -0.3667  0.9877
14895TIP3    H166100   3.015   3.861  14.407  3.2266  0.4088  0.1123
14895TIP3    H266101   3.094   3.758  14.483 -0.2692 -1.8595  0.8015
14896TIP3   OH266102   0.175   4.727  16.494 -0.2761 -0.4929 -0.0040
14896TIP3    H166103   0.147   4.639  16.470 -1.0632 -0.5628  1.1076
14896TIP3    H266104   0.101   4.763  16.542  0.6967  0.1440  1.0460
14897TIP3   OH266105   6.093   4.994  14.533  0.4919 -0.2544  0.1228
14897TIP3    H166106   6.106   5.075  14.582  1.5595 -1.1218  1.2924
14897TIP3    H266107   6.127   5.012  14.445 -2.1699  1.5723 -0.6129
14898TIP3   OH266108   3.397   3.144   4.001  0.4629  0.0774 -0.1575
14898TIP3    H166109   3.322   3.195   4.032  1.2265  0.9446  0.2670
14898TIP3    H266110   3.395   3.153   3.906 -0.1773 -0.2000 -0.1750
14899TIP3   OH266111   4.035   5.457  13.118  0.1652  0.3476  0.0500
14899TIP3    H166112   3.972   5.496  13.179  0.7121 -0.6309  1.2636
14899TIP3    H266113   4.105   5.422  13.174  0.9545 -0.0702 -1.1704
14900TIP3   OH266114   2.725   5.674  14.704 -0.7736 -0.2789 -0.2415
14900TIP3    H166115   2.673   5.594  14.698 -0.8049 -0.2313 -0.6526
14900TIP3    H266116   2.813   5.644  14.726 -0.9144 -0.3811  0.1748
14901TIP3   OH266117   3.415   5.837   5.501  0.3332 -0.1706 -0.0754
14901TIP3    H166118   3.396   5.744   5.516 -0.0132  0.2165  2.0548
14901TIP3    H266119   3.389   5.880   5.583  0.4883  1.8048 -1.0465
14902TIP3   OH266120   1.811   5.109  16.655 -0.6152 -0.2460  0.3376
14902TIP3    H166121   1.769   5.129  16.572  0.6162  2.2035  0.2690
14902TIP3    H266122   1.834   5.195  16.692  0.6063 -1.3665  2.2804
14903TIP3   OH266123   1.951   2.880  14.561  0.5158 -0.5268  0.0373
14903TIP3    H166124   1.961   2.835  14.477 -0.8930 -0.3282 -0.2561
14903TIP3    H266125   2.040   2.902  14.588  0.9844 -0.6516 -1.3845
14904TIP3   OH266126   4.073   1.772  15.025  0.3586  0.1723  0.2660
14904TIP3    H166127   4.121   1.690  15.037 -1.6624 -0.6520  3.2016
14904TIP3    H266128   3.982   1.746  15.019 -0.2409  2.1534  0.3537
14905TIP3   OH266129   6.654   6.676   3.122 -0.3070 -0.0330 -0.1304
14905TIP3    H166130   6.585   6.737   3.150 -0.5495 -0.3202 -0.1001
14905TIP3    H266131   6.606   6.604   3.081  0.1164  1.2539 -3.0342
14906TIP3   OH266132   5.220   5.922  14.764 -0.0588 -0.4635  0.3304
14906TIP3    H166133   5.207   5.978  14.687  1.9024 -0.6994 -0.1964
14906TIP3    H266134   5.213   5.833  14.730  0.4483 -0.5653  0.4897
14907TIP3   OH266135   3.596   4.687   1.647 -0.1262 -0.0263 -0.2919
14907TIP3    H166136   3.634   4.753   1.706 -0.5088  1.7060 -1.9301
14907TIP3    H266137   3.667   4.666   1.586 -0.6647  0.5413 -1.1319
14908TIP3   OH266138   4.547   3.378  16.460 -0.5537  0.1683 -0.7843
14908TIP3    H166139   4.487   3.365  16.386  0.6173 -0.1835 -1.6904
14908TIP3    H266140   4.593   3.294  16.468 -1.1573 -0.0243  0.7981
14909TIP3   OH266141   3.906   6.281  12.653  0.2144  0.0907 -0.6967
14909TIP3    H166142   3.931   6.250  12.741  2.0665  0.6760 -0.9933
14909TIP3    H266143   3.842   6.217  12.623  1.2998 -1.4486  0.1619
14910TIP3   OH266144   2.830   4.945   5.262  0.0373  0.3135 -0.2487
14910TIP3    H166145   2.776   4.958   5.184  0.4420 -0.2113 -0.6139
14910TIP3    H266146   2.834   5.031   5.303 -0.4754  0.5124 -0.6118
14911TIP3   OH266147   0.702   3.040   5.139  0.4290  0.0377  0.3150
14911TIP3    H166148   0.633   2.997   5.088 -0.6888 -0.5860  2.2898
14911TIP3    H266149   0.748   3.095   5.076 -1.9475  0.5359 -1.0670
14912TIP3   OH266150   3.429   2.559  16.636  0.6117  0.4024  0.2797
14912TIP3    H166151   3.430   2.633  16.575  1.3891 -1.9084 -2.5587
14912TIP3    H266152   3.516   2.561  16.677  0.3287  1.5316  0.8763
14913TIP3   OH266153   0.250   4.105   1.036 -0.8014  0.3490 -0.3617
14913TIP3    H166154   0.317   4.116   0.967 -0.6450 -0.6782 -0.3859
14913TIP3    H266155   0.299   4.110   1.118 -0.5602 -1.1582 -0.3940
14914TIP3   OH266156   2.518   3.556  14.679 -0.0995  0.6409 -0.2058
14914TIP3    H166157   2.426   3.574  14.700 -0.4088 -1.0876 -0.0636
14914TIP3    H266158   2.558   3.643  14.673 -1.0317  1.3676  2.9175
14915TIP3   OH266159   2.998   3.717  12.011 -0.3595 -0.4115  0.1313
14915TIP3    H166160   2.971   3.797  12.054  0.1784 -0.7297  1.0679
14915TIP3    H266161   3.088   3.702  12.040 -0.4078 -1.2837 -0.1295
14916TIP3   OH266162   6.725   5.210   1.398  0.3716 -0.0020  0.2394
14916TIP3    H166163   6.768   5.296   1.397  0.9368 -0.2406  1.8796
14916TIP3    H266164   6.636   5.227   1.367  1.2148  0.7420 -1.8087
14917TIP3   OH266165   1.893   2.904   1.833  0.4718 -0.0098  0.1953
14917TIP3    H166166   1.951   2.937   1.764 -1.5566 -0.9632 -2.0427
14917TIP3    H266167   1.807   2.939   1.810 -0.4673 -1.3871  1.5480
14918TIP3   OH266168   4.793   0.109   5.762  0.0682 -0.0679  0.2047
14918TIP3    H166169   4.753   0.194   5.784 -0.2347  0.2270 -1.4462
14918TIP3    H266170   4.718   0.052   5.746  0.2844 -0.4693  0.6125
14919TIP3   OH266171   2.832   1.168   2.540 -0.2052  0.0540 -0.0321
14919TIP3    H166172   2.773   1.243   2.531  1.6475  1.5825  0.2030
14919TIP3    H266173   2.834   1.150   2.634 -1.6900 -1.1881 -0.2124
14920TIP3   OH266174   4.934   0.067   1.961  0.5589  0.0082  0.2134
14920TIP3    H166175   5.026   0.089   1.974  0.9355 -1.0064 -0.6256
14920TIP3    H266176   4.907   0.122   1.888  1.2948 -1.7169 -1.3972
14921TIP3   OH266177   0.421   1.789   3.557  0.2450  0.0277 -0.0073
14921TIP3    H166178   0.474   1.852   3.606  0.4939 -0.8239  0.8344
14921TIP3    H266179   0.443   1.704   3.595  1.5801 -0.8460 -2.5722
14922TIP3   OH266180   5.611   0.072  16.037  0.3591 -0.2205 -0.3385
14922TIP3    H166181   5.637   0.068  16.129 -0.2890 -0.7440 -0.1751
14922TIP3    H266182   5.540   0.009  16.029 -0.6425  0.9367 -0.8532
14923TIP3   OH266183   4.216   0.434   1.408  0.4621 -0.3169 -0.0786
14923TIP3    H166184   4.286   0.444   1.344 -1.0694 -0.3200 -1.7859
14923TIP3    H266185   4.205   0.339   1.417  1.5240 -0.3483  1.1855
14924TIP3   OH266186   3.016   4.304  16.062  0.4736  0.0890  0.2476
14924TIP3    H166187   3.000   4.371  15.995  1.0928  1.5502  1.5135
14924TIP3    H266188   3.107   4.318  16.088  1.2186 -2.5263 -0.8107
14925TIP3   OH266189   2.841   3.590  14.672 -0.1752  0.4429  0.5653
14925TIP3    H166190   2.803   3.671  14.639 -0.0754  0.8148  1.3480
14925TIP3    H266191   2.766   3.533  14.688 -0.2751  0.5192  0.3665
14926TIP3   OH266192   4.300   6.742   0.065 -0.2701  0.5154 -0.1792
14926TIP3    H166193   4.383   6.783   0.089 -0.7307  1.6305 -0.4618
14926TIP3    H266194   4.254   6.729   0.148 -0.2188  0.7820 -0.1109
14927TIP3   OH266195   0.486   3.571  16.390 -0.2042  0.5682  0.2539
14927TIP3    H166196   0.449   3.629  16.457 -1.8746 -0.4275  0.2223
14927TIP3    H266197   0.491   3.486  16.434 -0.0597  0.2028 -0.4756
14928TIP3   OH266198   6.754   6.177  12.669 -0.1819  0.6266 -0.3694
14928TIP3    H166199   6.833   6.214  12.631  0.0554 -0.6008 -1.0949
14928TIP3    H266200   6.784   6.104  12.722 -0.9567 -0.8849 -1.9736
14929TIP3   OH266201   1.463   5.013  13.514 -0.5647  0.0934  0.2913
14929TIP3    H166202   1.445   5.013  13.608  1.4266 -1.6669  0.7036
14929TIP3    H266203   1.540   4.957  13.504 -1.1680 -0.3253 -2.4698
14930TIP3   OH266204   5.091   2.305  15.699  0.0002  0.1911 -0.5490
14930TIP3    H166205   4.998   2.286  15.697  0.2114 -0.8512 -0.4948
14930TIP3    H266206   5.130   2.245  15.635  0.6110  0.7433 -0.7077
14931TIP3   OH266207   3.795   2.248   4.384 -0.1630 -0.2019 -0.1980
14931TIP3    H166208   3.715   2.198   4.400  0.9077 -1.7326  0.4720
14931TIP3    H266209   3.786   2.326   4.439 -1.0372 -0.5355  0.1446
14932TIP3   OH266210   3.773   0.127   2.948 -0.5796  0.1068  0.0543
14932TIP3    H166211   3.805   0.114   3.037 -0.3919 -0.9337 -0.1578
14932TIP3    H266212   3.843   0.174   2.904 -0.3527 -0.0465  0.2523
14933TIP3   OH266213   6.398   5.320   2.299  0.0286 -0.0802 -0.0147
14933TIP3    H166214   6.357   5.247   2.252 -1.7071  1.5109 -1.0540
14933TIP3    H266215   6.409   5.289   2.389 -3.3999 -0.6379  0.2710
14934TIP3   OH266216   6.480   2.230  14.500 -0.6160 -0.2720  0.5203
14934TIP3    H166217   6.524   2.313  14.486 -0.7206 -0.1746  0.7682
14934TIP3    H266218   6.387   2.250  14.489 -0.7798  0.0007  2.2471
14935TIP3   OH266219   0.004   2.080   1.722 -0.2052 -0.1716 -0.4427
14935TIP3    H166220  -0.013   2.170   1.749 -3.3717 -0.6266 -0.6559
14935TIP3    H266221   0.010   2.083   1.627 -2.7060 -0.4721 -0.6459
14936TIP3   OH266222   3.106   4.513   4.647  0.4515 -0.0987 -0.5152
14936TIP3    H166223   3.084   4.460   4.724  0.2708  1.7983  0.7696
14936TIP3    H266224   3.023   4.526   4.602  0.0255  1.4252  0.6900
14937TIP3   OH266225   1.021   4.663   4.595 -0.3303 -0.2676 -0.1324
14937TIP3    H166226   1.023   4.726   4.666 -0.5186  0.3419 -0.6631
14937TIP3    H266227   1.111   4.661   4.562  0.2015 -1.9774  1.3549
14938TIP3   OH266228   6.425   5.090   5.974  0.3980 -0.0582 -0.0096
14938TIP3    H166229   6.361   5.027   6.007  1.7654 -1.6472 -0.3244
14938TIP3    H266230   6.477   5.041   5.910  0.5408  1.8048 -1.3826
14939TIP3   OH266231   4.817   1.941  13.687 -0.1138 -0.0570  0.1706
14939TIP3    H166232   4.837   1.974  13.775  0.6257 -1.7123  0.6247
14939TIP3    H266233   4.729   1.903  13.695 -0.8958  1.5584 -0.3173
14940TIP3   OH266234   4.604   4.995  15.306  0.0924 -0.2442  0.1029
14940TIP3    H166235   4.526   5.040  15.274  0.6540  0.3611 -0.4472
14940TIP3    H266236   4.654   5.063  15.353 -0.2930 -0.9137  1.5152
14941TIP3   OH266237   0.759   6.471   3.524  0.0459  0.2138 -0.1444
14941TIP3    H166238   0.697   6.538   3.495 -1.6671 -1.4024 -0.3094
14941TIP3    H266239   0.808   6.513   3.594 -2.9868  0.7574  1.7500
14942TIP3   OH266240   6.753   0.810  12.707  0.2022  0.3558  0.0547
14942TIP3    H166241   6.807   0.768  12.640 -2.1410  1.0995 -2.3238
14942TIP3    H266242   6.782   0.902  12.707  2.1423 -0.1880  2.0965
14943TIP3   OH266243   1.273   4.716   2.716 -0.7088 -0.1569 -0.1269
14943TIP3    H166244   1.342   4.768   2.755  0.0624 -1.7200  0.6579
14943TIP3    H266245   1.251   4.762   2.635  0.7806  0.7181 -0.0576
14944TIP3   OH266246   4.000   2.084  14.527 -0.0465  0.1569 -0.3542
14944TIP3    H166247   4.055   2.007  14.538  1.2426  0.9056 -1.5073
14944TIP3    H266248   3.933   2.057  14.464 -2.6991 -1.6139  3.0448
14945TIP3   OH266249   3.575   6.363  11.445 -0.4367 -0.2908  0.1363
14945TIP3    H166250   3.618   6.436  11.401  1.4061  0.7369  3.4557
14945TIP3    H266251   3.564   6.297  11.377 -0.2466  2.2451 -2.4485
14946TIP3   OH266252   0.782   2.831   0.319  0.4193  0.3006 -0.2754
14946TIP3    H166253   0.721   2.766   0.352 -0.8249  1.1903 -0.7535
14946TIP3    H266254   0.754   2.846   0.228  0.8133  1.3369 -0.2339
14947TIP3   OH266255   5.040   3.627   3.458  0.0619  0.3469 -0.1931
14947TIP3    H166256   5.022   3.721   3.467 -0.5594  0.4546 -2.1689
14947TIP3    H266257   5.049   3.614   3.363  1.0628 -1.4291  0.1321
14948TIP3   OH266258   2.835   6.578   0.595 -0.2480 -0.3376 -0.1179
14948TIP3    H166259   2.757   6.524   0.582 -0.2727 -0.6081  1.0739
14948TIP3    H266260   2.866   6.554   0.682 -0.5004  1.8887  0.6140
14949TIP3   OH266261   2.661   2.665   3.004 -0.5588 -0.5384 -0.9582
14949TIP3    H166262   2.684   2.572   3.003 -0.2212 -0.4669 -0.0214
14949TIP3    H266263   2.738   2.708   3.041 -1.2766 -0.0441 -0.0340
14950TIP3   OH266264   4.330   2.818  13.455  0.5484  0.1675 -0.2079
14950TIP3    H166265   4.368   2.887  13.401 -2.7316  0.2576 -2.4956
14950TIP3    H266266   4.237   2.840  13.461 -0.4812 -3.7628 -0.5727
14951TIP3   OH266267   5.771   4.323   0.028  0.0740  0.0022  0.2140
14951TIP3    H166268   5.747   4.379   0.102  0.5505  0.3778  0.0866
14951TIP3    H266269   5.844   4.369  -0.014 -0.6085  0.1188 -0.8724
14952TIP3   OH266270   1.188   2.538  11.395  0.2097  0.3760 -0.1528
14952TIP3    H166271   1.142   2.601  11.341  1.5161  0.1856 -1.5233
14952TIP3    H266272   1.225   2.590  11.467 -0.9126  0.7430  0.1588
14953TIP3   OH266273   1.734   2.017   1.816 -0.2973  0.1590 -0.6656
14953TIP3    H166274   1.775   1.935   1.844 -1.8452 -0.8111 -1.1484
14953TIP3    H266275   1.798   2.085   1.837  0.8289 -1.1319  0.1404
14954TIP3   OH266276   0.303   3.057   6.094  0.1847 -0.4156  0.1798
14954TIP3    H166277   0.373   3.008   6.138  1.5714 -0.1163 -1.6289
14954TIP3    H266278   0.224   3.005   6.111  1.2973 -2.2511 -0.0451
14955TIP3   OH266279   4.773   3.260   0.255 -0.1224  0.3297  0.3809
14955TIP3    H166280   4.806   3.348   0.274  0.3188  0.2285  0.0816
14955TIP3    H266281   4.703   3.247   0.319 -2.0711  1.9625 -1.3429
14956TIP3   OH266282   0.845   0.113  16.698 -0.0761 -0.5973  0.2063
14956TIP3    H166283   0.856   0.173  16.771 -2.7494  0.2351 -0.0014
14956TIP3    H266284   0.837   0.169  16.621  3.8431 -1.5009 -0.9570
14957TIP3   OH266285   0.784   1.906   0.024  0.8076  0.3792  0.5831
14957TIP3    H166286   0.818   1.836  -0.033  0.6227 -0.4200  1.4400
14957TIP3    H266287   0.756   1.860   0.104 -0.6599  1.2431  0.5822
14958TIP3   OH266288   2.717   5.716   0.470 -0.3710  0.3085 -0.2657
14958TIP3    H166289   2.657   5.684   0.537  1.3393 -1.5735  0.4122
14958TIP3    H266290   2.732   5.641   0.413  2.6346  0.2322  0.5428
14959TIP3   OH266291   1.920   3.273   6.364 -0.1783  0.5929  0.0613
14959TIP3    H166292   1.956   3.200   6.313 -0.4780 -0.1184  0.8655
14959TIP3    H266293   1.977   3.278   6.441 -1.0234  0.2973  0.7009
14960TIP3   OH266294   2.359   3.362   4.034 -0.2933 -0.1109  0.1316
14960TIP3    H166295   2.354   3.445   3.986 -3.1291 -0.8964 -1.0282
14960TIP3    H266296   2.323   3.382   4.120 -0.1368  0.0649  0.1581
14961TIP3   OH266297   4.609   0.805   3.007  0.3410  0.7274  0.6631
14961TIP3    H166298   4.590   0.859   3.083 -0.1870  1.9339 -0.3151
14961TIP3    H266299   4.619   0.716   3.042 -0.5664  1.1645  2.0367
14962TIP3   OH266300   3.542   1.146  11.274 -0.1000 -0.1360 -0.3869
14962TIP3    H166301   3.484   1.070  11.275  1.6035 -1.4475  1.2056
14962TIP3    H266302   3.616   1.121  11.330  1.7041  1.7304 -1.8644
14963TIP3   OH266303   6.725   2.158   4.123 -0.4048 -0.6629 -0.6336
14963TIP3    H166304   6.795   2.167   4.188 -0.2117  1.2405 -1.0726
14963TIP3    H266305   6.649   2.199   4.164 -0.7058 -0.8622 -0.9935
14964TIP3   OH266306   2.736   2.777  14.506  0.8468 -0.1094 -0.1033
14964TIP3    H166307   2.672   2.847  14.519  1.3784  0.2231  0.7562
14964TIP3    H266308   2.729   2.756  14.413 -0.0866  0.3335 -0.1425
14965TIP3   OH266309   4.512   4.849   2.469  0.3461 -0.6691  0.1504
14965TIP3    H166310   4.469   4.826   2.551  1.5373 -0.4245  0.8477
14965TIP3    H266311   4.517   4.944   2.469 -1.2392 -0.5703 -1.0300
14966TIP3   OH266312   1.856   1.969  13.484  0.0670 -0.1603  0.0409
14966TIP3    H166313   1.808   2.008  13.411 -2.0797  0.9211  1.9580
14966TIP3    H266314   1.793   1.969  13.556  1.0877 -4.2029  1.0046
14967TIP3   OH266315   4.703   3.003  15.509  0.0892  0.2987 -0.7038
14967TIP3    H166316   4.720   2.995  15.415 -1.5380 -2.4661 -0.7974
14967TIP3    H266317   4.630   3.064  15.515 -0.6337 -0.5006 -1.3255
14968TIP3   OH266318   1.986   0.422  10.486 -0.0705 -0.1764 -0.5444
14968TIP3    H166319   1.964   0.330  10.502 -1.2289  0.2769  0.5865
14968TIP3    H266320   2.030   0.450  10.567  1.3149 -0.0510 -1.3361
14969TIP3   OH266321   6.595   3.803   2.386 -0.3369  0.1042  0.4590
14969TIP3    H166322   6.628   3.765   2.305  0.7267  0.1046  0.8793
14969TIP3    H266323   6.584   3.727   2.444  0.5862  0.2820  0.8833
14970TIP3   OH266324   3.425   6.673  12.677 -0.0142 -0.5393 -0.0971
14970TIP3    H166325   3.407   6.678  12.771  1.7432 -0.1989  0.2239
14970TIP3    H266326   3.487   6.743  12.660 -1.5036  0.3961 -1.8134
14971TIP3   OH266327   0.989   5.016  16.513  0.2363  0.1898 -0.1309
14971TIP3    H166328   1.073   5.040  16.552  0.9690 -1.1864 -0.8087
14971TIP3    H266329   0.971   5.085  16.449  1.4359 -0.0885 -0.7941
14972TIP3   OH266330   5.283   1.178   5.220  0.2178  0.2656 -0.3431
14972TIP3    H166331   5.263   1.129   5.141 -0.0447  0.4153 -0.3721
14972TIP3    H266332   5.371   1.213   5.206 -0.1235  0.9314 -0.8966
14973TIP3   OH266333   2.388   3.134   1.073 -0.4737  0.3224 -0.2407
14973TIP3    H166334   2.313   3.098   1.024 -0.1174  2.3657 -2.3898
14973TIP3    H266335   2.351   3.209   1.121 -0.0759  0.5470 -0.2832
14974TIP3   OH266336   1.902   2.336   0.672 -0.3980 -0.2581 -0.1464
14974TIP3    H166337   1.944   2.386   0.741  0.7349 -0.4361 -0.7004
14974TIP3    H266338   1.959   2.261   0.658 -0.8749 -0.4836 -0.9378
14975TIP3   OH266339   1.889   3.348   2.299  0.3373 -0.7218 -0.3663
14975TIP3    H166340   1.909   3.397   2.378  1.2162 -0.6777 -0.6106
14975TIP3    H266341   1.969   3.301   2.279 -0.2422 -1.6262 -0.5951
14976TIP3   OH266342   0.597   2.909  10.623  0.0812 -0.3291 -0.1110
14976TIP3    H166343   0.665   2.977  10.619 -0.5274  0.3093  0.2578
14976TIP3    H266344   0.535   2.934  10.553 -0.5887 -0.0112  0.5856
14977TIP3   OH266345   1.122   1.279   4.310 -0.0953 -0.2440 -1.3090
14977TIP3    H166346   1.205   1.234   4.329  0.7270  1.2195 -1.3560
14977TIP3    H266347   1.055   1.214   4.330  1.0065 -0.9796  0.1533
14978TIP3   OH266348   3.184   6.592   4.074  0.2766  0.4791  0.2701
14978TIP3    H166349   3.148   6.503   4.066  0.8007  0.2454  0.4414
14978TIP3    H266350   3.145   6.640   4.001 -0.8874  0.4115  0.8298
14979TIP3   OH266351   0.869   3.938  14.628 -0.3099  0.1472  0.0079
14979TIP3    H166352   0.890   3.851  14.664 -0.2339 -0.3843 -1.2767
14979TIP3    H266353   0.781   3.928  14.591 -0.3551  0.6563 -0.0257
14980TIP3   OH266354   5.877   4.733   2.269 -0.5652 -0.1546  0.7079
14980TIP3    H166355   5.870   4.638   2.263 -2.1212 -0.1380  1.9798
14980TIP3    H266356   5.866   4.752   2.362 -0.0145  1.2681  0.5052
14981TIP3   OH266357   4.688   6.590   4.943 -0.3088  0.3406  0.5701
14981TIP3    H166358   4.690   6.550   4.856 -2.8703  0.3075  0.4969
14981TIP3    H266359   4.751   6.662   4.937  0.1410 -0.1620 -1.0681
14982TIP3   OH266360   0.875   5.627  16.678 -0.7629 -0.1248  0.0308
14982TIP3    H166361   0.937   5.697  16.697 -0.2376 -0.9607  1.5004
14982TIP3    H266362   0.850   5.641  16.587 -0.5751  1.8940  0.2604
14983TIP3   OH266363   2.256   2.306   5.603  0.2860  0.1043 -0.3219
14983TIP3    H166364   2.210   2.250   5.540 -0.7514  1.5367 -0.8466
14983TIP3    H266365   2.188   2.360   5.642  1.3884  1.6822 -0.5153
14984TIP3   OH266366   1.471   1.387  17.229  0.6555  0.1422  0.1400
14984TIP3    H166367   1.499   1.302  17.195 -1.0482  0.2751 -1.6932
14984TIP3    H266368   1.393   1.368  17.280  0.0160  0.6522 -0.6365
14985TIP3   OH266369   4.311   2.807  15.952  0.5069  0.4621  0.1366
14985TIP3    H166370   4.385   2.792  15.893  1.1730  0.3635  0.9817
14985TIP3    H266371   4.350   2.807  16.039 -0.6124 -0.4552  0.6589
14986TIP3   OH266372   0.784   2.879  12.702  0.1635 -0.0840  0.0667
14986TIP3    H166373   0.856   2.924  12.658  0.3151  0.0209  0.4227
14986TIP3    H266374   0.706   2.930  12.680  0.0722 -0.6415 -0.9739
14987TIP3   OH266375   1.443   4.577  17.213 -0.2686  0.0083 -0.1285
14987TIP3    H166376   1.479   4.661  17.243 -0.6366  0.6844 -1.5521
14987TIP3    H266377   1.349   4.586  17.226 -0.2098 -0.5983  0.7270
14988TIP3   OH266378   5.726   2.143  16.853 -0.4213 -0.0030  0.1298
14988TIP3    H166379   5.804   2.106  16.895 -0.8091 -0.4039  0.5003
14988TIP3    H266380   5.751   2.154  16.761 -0.1121 -0.6545  0.1322
14989TIP3   OH266381   0.728   2.611  10.294  0.3691 -0.1564 -0.5582
14989TIP3    H166382   0.697   2.585  10.382  2.2315 -1.0894 -0.1659
14989TIP3    H266383   0.768   2.532  10.259  1.7577  0.8680 -1.3096
14990TIP3   OH266384   3.437   5.069  14.435  0.2955  0.3035  0.1066
14990TIP3    H166385   3.523   5.030  14.418 -0.6588 -1.8329 -0.0815
14990TIP3    H266386   3.416   5.041  14.525 -0.5151  0.1559 -0.1258
14991TIP3   OH266387   2.802   2.787  12.547  0.2054 -0.3187  0.0718
14991TIP3    H166388   2.750   2.826  12.477  1.7619 -0.8275 -1.4054
14991TIP3    H266389   2.817   2.858  12.609 -1.1201  0.1548 -0.1211
14992TIP3   OH266390   2.021   3.149   4.216  0.3789  0.0450 -0.4190
14992TIP3    H166391   1.935   3.158   4.257  0.0349  1.1230 -1.3363
14992TIP3    H266392   2.071   3.094   4.276 -0.9538 -0.5956  0.1168
14993TIP3   OH266393   3.490   2.010  16.208 -0.7386 -0.5446 -0.8310
14993TIP3    H166394   3.561   2.036  16.149 -0.4775 -0.3177 -0.4217
14993TIP3    H266395   3.503   2.064  16.286  0.4769 -2.6451  0.4748
14994TIP3   OH266396   5.599   0.491   4.442  0.4036 -0.0941  0.1316
14994TIP3    H166397   5.633   0.548   4.511  1.4219  0.2933 -0.6807
14994TIP3    H266398   5.638   0.525   4.362 -0.9478 -0.4096 -0.6666
14995TIP3   OH266399   5.741   0.891   4.730  0.6064 -0.4867  0.8329
14995TIP3    H166400   5.830   0.922   4.743  1.0954 -0.9988 -1.1388
14995TIP3    H266401   5.687   0.970   4.734  1.5450  0.3096 -1.4045
14996TIP3   OH266402   0.316   6.448   4.668  0.3637  0.5409 -0.4811
14996TIP3    H166403   0.355   6.421   4.585 -1.4262 -1.4993 -0.6960
14996TIP3    H266404   0.326   6.372   4.725 -0.5731  1.0818  0.4160
14997TIP3   OH266405   4.632   4.818  10.907 -0.1433 -0.4525  0.2323
14997TIP3    H166406   4.562   4.880  10.927  0.1188 -0.1968  0.3714
14997TIP3    H266407   4.712   4.867  10.927  0.1621  0.1635 -2.4117
14998TIP3   OH266408   0.673   6.191   3.899 -0.0862 -0.7174 -0.5190
14998TIP3    H166409   0.616   6.260   3.865 -0.0470 -1.1577 -1.4982
14998TIP3    H266410   0.731   6.170   3.825 -0.6452 -2.3761 -0.4957
14999TIP3   OH266411   6.749   5.753   1.773 -0.5386 -0.3871  0.4021
14999TIP3    H166412   6.698   5.779   1.850  0.7515  0.4424  0.9995
14999TIP3    H266413   6.721   5.664   1.755 -3.5963  0.6656 -0.4587
15000TIP3   OH266414   4.570   0.881   3.254  0.9470 -0.1504  0.1455
15000TIP3    H166415   4.583   0.934   3.333  1.2397 -1.6369  1.1085
15000TIP3    H266416   4.477   0.892   3.234  1.0097  0.7510  0.3230
15001TIP3   OH266417   1.395   6.651   2.191 -0.3764  0.0239  0.0780
15001TIP3    H166418   1.341   6.651   2.270  0.9742  1.5859  1.0359
15001TIP3    H266419   1.349   6.707   2.130  0.4111  1.8118  1.0940
15002TIP3   OH266420   4.743   4.431   4.261 -0.5409 -0.2045  0.1415
15002TIP3    H166421   4.680   4.496   4.230  0.1247  0.5734  0.3755
15002TIP3    H266422   4.809   4.428   4.191  0.0274  0.2306  0.6490
15003TIP3   OH266423   6.506   3.565  12.987  0.2388 -0.3271 -0.3132
15003TIP3    H166424   6.520   3.471  12.988 -2.2120 -0.7252  1.6777
15003TIP3    H266425   6.587   3.602  13.022  0.1070 -1.8894  1.7432
15004TIP3   OH266426   4.393   4.152  13.484 -0.1255 -0.2038 -0.0963
15004TIP3    H166427   4.374   4.149  13.391  3.3253  1.5543 -0.9279
15004TIP3    H266428   4.365   4.239  13.512 -0.3867 -0.4304  0.3770
15005TIP3   OH266429   3.076   6.447   0.933  0.4934 -0.2255 -0.1736
15005TIP3    H166430   3.025   6.514   0.977  0.8362 -0.8038  1.1492
15005TIP3    H266431   3.012   6.395   0.884 -0.1313 -0.6414  1.0641
15006TIP3   OH266432   5.553   2.009  13.369  0.1820 -0.1041 -0.1155
15006TIP3    H166433   5.621   2.069  13.399 -0.2380  1.4161 -2.1256
15006TIP3    H266434   5.507   1.982  13.449  1.7688  0.5116  1.0309
15007TIP3   OH266435   2.505   0.685   4.968 -0.4475 -0.4678  0.2517
15007TIP3    H166436   2.518   0.761   4.912 -1.6912 -0.7522 -0.4622
15007TIP3    H266437   2.448   0.716   5.038 -1.6414 -0.9232 -0.4956
15008TIP3   OH266438   5.360   5.668  14.171 -0.1576 -0.1127  0.1166
15008TIP3    H166439   5.373   5.701  14.083 -1.1456  0.8296  0.3193
15008TIP3    H266440   5.404   5.730  14.228 -2.6126  1.2939  0.5481
15009TIP3   OH266441   4.602   3.717   4.532 -0.8474  0.0691  0.0570
15009TIP3    H166442   4.570   3.684   4.617  0.2520  1.5346  1.0636
15009TIP3    H266443   4.578   3.809   4.531  1.2878  0.6510 -0.1587
15010TIP3   OH266444   6.424   1.970   5.912 -0.5101  0.6124 -0.0461
15010TIP3    H166445   6.451   2.047   5.963  1.3440  0.5052 -0.8271
15010TIP3    H266446   6.451   1.896   5.966  0.7547  0.5040 -0.8031
15011TIP3   OH266447   2.635   2.084   5.723 -0.3570 -0.0219 -0.2066
15011TIP3    H166448   2.564   2.097   5.785 -0.6668  0.5512 -0.6840
15011TIP3    H266449   2.668   2.171   5.704 -0.0393 -0.2216 -0.5930
15012TIP3   OH266450   1.858   0.336   5.691 -0.2727 -0.4885  0.0691
15012TIP3    H166451   1.792   0.266   5.689 -0.7952 -0.0759  1.7215
15012TIP3    H266452   1.855   0.368   5.781  0.4498  1.2021 -0.4989
15013TIP3   OH266453   2.049   2.245   5.925  0.2555 -0.2474  0.5457
15013TIP3    H166454   2.116   2.246   5.993  1.3934  2.0418 -0.5600
15013TIP3    H266455   2.050   2.155   5.892  3.1016 -0.1458  0.2366
15014TIP3   OH266456   4.113   4.546   6.109 -0.3679  0.3192 -0.1755
15014TIP3    H166457   4.084   4.464   6.068  1.6487  0.6355 -2.3733
15014TIP3    H266458   4.208   4.543   6.103 -0.2717  3.0023 -0.6522
15015TIP3   OH266459   5.337   6.577  12.823 -0.5168  0.2673 -0.6537
15015TIP3    H166460   5.360   6.669  12.820  0.0068  0.1012 -2.1647
15015TIP3    H266461   5.367   6.541  12.740 -0.3450 -1.3589  0.0740
15016TIP3   OH266462   3.331   1.449   2.578  0.0819 -0.0737 -0.3434
15016TIP3    H166463   3.289   1.511   2.637 -0.7819 -1.1537  0.1946
15016TIP3    H266464   3.387   1.503   2.521  0.4430  1.0370  1.0477
15017TIP3   OH266465   2.465   5.911   3.712  0.3069  0.0535  0.6333
15017TIP3    H166466   2.547   5.880   3.750 -0.2125 -1.8790  0.1852
15017TIP3    H266467   2.452   5.857   3.634 -1.2222  0.5753  0.5152
15018TIP3   OH266468   2.952   0.561   5.284  0.2229 -0.1863  0.4605
15018TIP3    H166469   3.004   0.639   5.305 -0.4480  0.4129 -0.0792
15018TIP3    H266470   2.864   0.595   5.266  0.8544 -0.6169 -3.7367
15019TIP3   OH266471   4.950   3.493   5.677  0.0202  0.2566 -0.3278
15019TIP3    H166472   4.883   3.560   5.689 -1.4431 -1.3986  1.0582
15019TIP3    H266473   5.031   3.535   5.705 -1.0299  1.2017  1.4337
15020TIP3   OH266474   3.394   5.708  17.005  0.2005 -0.5901  0.5265
15020TIP3    H166475   3.384   5.730  17.098  1.0845  0.5154  0.3666
15020TIP3    H266476   3.482   5.672  16.998  0.7730  0.8978 -0.1632
15021TIP3   OH266477   4.383   3.690  12.330  0.3998 -0.1717 -0.0107
15021TIP3    H166478   4.294   3.715  12.357  0.0966 -0.8769 -0.3454
15021TIP3    H266479   4.392   3.726  12.242  0.7366  0.5757  0.3206
15022TIP3   OH266480   3.160   3.169  13.494  0.2340  0.0561 -0.4178
15022TIP3    H166481   3.255   3.168  13.493  0.3338  2.9239  1.1989
15022TIP3    H266482   3.137   3.159  13.587 -0.8963  3.0635 -0.3325
15023TIP3   OH266483   5.138   2.167   3.499  0.0852 -0.1077  0.0866
15023TIP3    H166484   5.136   2.183   3.404 -1.9103  1.2346  0.3154
15023TIP3    H266485   5.112   2.076   3.508 -3.4326  0.7610 -0.5136
15024TIP3   OH266486   0.251   2.361  16.288  0.4516  0.4424  0.1833
15024TIP3    H166487   0.294   2.437  16.330  0.8438  0.6606 -0.6124
15024TIP3    H266488   0.304   2.286  16.316 -0.7839  0.2722  2.1525
15025TIP3   OH266489   1.272   5.935  14.000 -0.2227  0.5193  0.3581
15025TIP3    H166490   1.284   6.023  13.964  2.1871  1.0928  2.4106
15025TIP3    H266491   1.343   5.926  14.064 -1.6778 -2.1532  1.6480
15026TIP3   OH266492   6.565   4.574  16.009 -0.0266  0.4003 -0.4365
15026TIP3    H166493   6.604   4.489  15.989 -0.1333  0.3167 -0.2928
15026TIP3    H266494   6.491   4.553  16.066 -0.2205  0.5661 -0.6247
15027TIP3   OH266495   0.348   4.487  13.467 -0.2625  0.5944 -0.3942
15027TIP3    H166496   0.334   4.541  13.390  0.2366 -0.1529 -1.0128
15027TIP3    H266497   0.407   4.417  13.438 -1.0160 -0.3778  0.3463
15028TIP3   OH266498   2.718   5.029   2.156  0.1728  0.0194 -0.3279
15028TIP3    H166499   2.679   5.094   2.215  0.5460 -0.0132 -0.0407
15028TIP3    H266500   2.741   4.956   2.213  2.0058  0.6454 -0.2421
15029TIP3   OH266501   2.253   5.862   6.752 -0.2606 -0.5572 -0.2590
15029TIP3    H166502   2.270   5.777   6.711 -0.1660 -0.4731 -0.3907
15029TIP3    H266503   2.326   5.917   6.725  0.0280 -0.6297  0.3711
15030TIP3   OH266504   1.385   0.705   3.750 -0.2679  0.0898 -0.1818
15030TIP3    H166505   1.408   0.747   3.833 -1.5276  2.8181 -1.1746
15030TIP3    H266506   1.304   0.658   3.769 -0.4968  0.6217  0.1684
15031TIP3   OH266507   4.413   5.173  12.338 -0.0704  0.4368 -0.6177
15031TIP3    H166508   4.409   5.252  12.392  0.8900  0.2261 -0.2279
15031TIP3    H266509   4.506   5.150  12.336 -0.2990 -0.4662 -1.0516
15032TIP3   OH266510   5.608   6.544   0.053 -0.6783  0.2545  0.3693
15032TIP3    H166511   5.602   6.615  -0.011  2.5370  0.1576 -0.1338
15032TIP3    H266512   5.592   6.587   0.137  0.9368  1.5462  0.0352
15033TIP3   OH266513   5.518   2.941  15.953  0.6780  0.2114  0.0519
15033TIP3    H166514   5.559   2.861  15.985 -1.9640 -0.3706  2.1981
15033TIP3    H266515   5.439   2.912  15.908 -0.4176  1.5834  1.0424
15034TIP3   OH266516   1.311   0.330  17.060 -0.0347 -0.5236 -0.3358
15034TIP3    H166517   1.283   0.323  16.969  2.8127  0.7839 -1.3738
15034TIP3    H266518   1.256   0.398  17.098 -0.5230 -0.3319 -1.3846
15035TIP3   OH266519   0.841   5.745   5.192  0.3361  0.0553  0.3185
15035TIP3    H166520   0.757   5.770   5.232 -0.6058 -0.1789 -1.4567
15035TIP3    H266521   0.857   5.815   5.128  2.3186  0.9546  1.7539
15036TIP3   OH266522   4.685   4.101  13.770  0.2807 -0.2619 -0.0419
15036TIP3    H166523   4.768   4.147  13.776 -0.2887  1.1950 -2.5015
15036TIP3    H266524   4.619   4.167  13.790 -0.3406 -1.1515  0.8948
15037TIP3   OH266525   3.345   6.726  13.951  0.3575 -0.3598  0.5916
15037TIP3    H166526   3.357   6.681  14.035  1.4731 -1.2153 -0.0136
15037TIP3    H266527   3.414   6.690  13.894 -0.3585  0.2379 -0.6779
15038TIP3   OH266528   0.546   0.974   2.095 -0.1434 -0.4498 -0.3324
15038TIP3    H166529   0.580   0.948   2.009  0.7134  0.2259 -0.2067
15038TIP3    H266530   0.619   0.959   2.155 -1.3790 -2.8486  0.6312
15039TIP3   OH266531   3.326   6.295  15.531 -0.1943  0.1683 -0.1643
15039TIP3    H166532   3.421   6.287  15.544 -0.2113 -0.3352 -0.3196
15039TIP3    H266533   3.300   6.365  15.590  0.1793 -0.1178  0.3492
15040TIP3   OH266534   4.101   2.286   0.402  0.1812 -0.6359  0.1182
15040TIP3    H166535   4.162   2.257   0.335  0.4681 -0.7233  0.4139
15040TIP3    H266536   4.150   2.351   0.453 -0.9789  1.6398 -1.5374
15041TIP3   OH266537   3.376   1.644   2.809  0.3440  0.2574 -0.3952
15041TIP3    H166538   3.454   1.617   2.858 -0.5815 -1.3082  0.2670
15041TIP3    H266539   3.306   1.647   2.875 -0.6886 -0.7968 -1.4071
15042TIP3   OH266540   2.137   5.788   0.176  0.4476  0.1332  0.1323
15042TIP3    H166541   2.219   5.758   0.216 -0.7897  0.9269  3.4282
15042TIP3    H266542   2.109   5.861   0.231 -1.8625  0.6504 -1.6638
15043TIP3   OH266543   5.347   3.278  15.229  0.0971  0.2554 -0.1051
15043TIP3    H166544   5.418   3.226  15.265 -1.4132 -1.7110  0.0982
15043TIP3    H266545   5.364   3.281  15.135  1.1435  0.9203  0.0917
15044TIP3   OH266546   6.540   0.942  12.591  0.0020 -0.2436  0.0912
15044TIP3    H166547   6.593   0.973  12.518  0.3830  0.3592  0.6203
15044TIP3    H266548   6.602   0.898  12.649 -0.2543 -0.4891  0.1795
15045TIP3   OH266549   5.025   0.529  11.479 -0.1852 -0.2887 -0.3398
15045TIP3    H166550   5.100   0.470  11.487 -0.0713 -0.1685 -0.5263
15045TIP3    H266551   5.048   0.588  11.408 -0.1331  0.2214  0.0938
15046TIP3   OH266552   3.984   0.571   1.420  0.1040 -0.2142 -0.0997
15046TIP3    H166553   3.930   0.528   1.354 -0.6731 -0.4206  0.6633
15046TIP3    H266554   4.058   0.512   1.434  0.1535 -0.2761 -0.6206
15047TIP3   OH266555   5.417   2.697   1.575  0.1376 -0.1396  0.4777
15047TIP3    H166556   5.472   2.751   1.518  0.3744  0.0532  0.8891
15047TIP3    H266557   5.347   2.756   1.603 -0.2035 -0.3460  0.0655
15048TIP3   OH266558   3.764   0.251  17.148 -0.0925  0.5832  0.1374
15048TIP3    H166559   3.712   0.323  17.112 -0.0904 -0.0919 -1.2369
15048TIP3    H266560   3.736   0.174  17.099  0.2537 -0.2767  1.2683
15049TIP3   OH266561   2.286   3.774   0.332 -0.0311  0.0654  0.3424
15049TIP3    H166562   2.192   3.761   0.331  0.1398 -1.1861  0.4060
15049TIP3    H266563   2.313   3.750   0.421  0.3501  0.3945  0.3199
15050TIP3   OH266564   3.199   5.251   0.720 -0.3793 -0.8032 -0.1759
15050TIP3    H166565   3.211   5.338   0.758  3.2425 -1.1288 -0.4612
15050TIP3    H266566   3.182   5.268   0.627 -2.5998 -0.3223  0.2820
15051TIP3   OH266567   6.738   4.071   3.160  0.4209  0.4662  0.0980
15051TIP3    H166568   6.685   4.002   3.120  0.1852 -0.6855  2.2805
15051TIP3    H266569   6.745   4.139   3.093 -0.3403 -1.1663 -1.6831
15052TIP3   OH266570   2.859   3.608   4.898 -0.4410 -0.0378  0.2302
15052TIP3    H166571   2.790   3.601   4.832 -0.5353  2.7330 -0.0417
15052TIP3    H266572   2.915   3.679   4.867  2.4886 -2.1381  0.5262
15053TIP3   OH266573   2.970   3.418   0.827  0.1385 -0.1813  0.1409
15053TIP3    H166574   2.942   3.356   0.760  2.0391  0.6606 -1.5096
15053TIP3    H266575   3.058   3.445   0.800  1.1097 -0.0608  3.1846
15054TIP3   OH266576   3.575   2.892  12.534 -0.4330  0.4126  0.1444
15054TIP3    H166577   3.610   2.878  12.622  0.3672  1.8799  0.0783
15054TIP3    H266578   3.579   2.806  12.493  0.5292  0.0016  1.0669
15055TIP3   OH266579   0.546   3.779   2.060  0.2847 -0.4550 -0.1258
15055TIP3    H166580   0.459   3.819   2.053 -0.0626 -0.8796  1.4186
15055TIP3    H266581   0.528   3.686   2.071  0.8513 -0.3891  1.5582
15056TIP3   OH266582   2.846   4.220  14.144  0.3106 -0.0701 -0.4943
15056TIP3    H166583   2.833   4.183  14.057 -1.8150  1.5149 -0.8975
15056TIP3    H266584   2.762   4.260  14.166  1.2364  0.7634  1.7129
15057TIP3   OH266585   1.278   6.569   2.442  0.0201  0.3452  0.2925
15057TIP3    H166586   1.213   6.616   2.494  0.8363  2.1444 -0.2658
15057TIP3    H266587   1.262   6.477   2.461 -2.0473  0.7998  0.9142
15058TIP3   OH266588   4.115   2.286   0.852 -0.0275  0.3577  0.0286
15058TIP3    H166589   4.148   2.250   0.769  0.4077  2.1757 -0.6037
15058TIP3    H266590   4.062   2.215   0.889  1.5459 -1.2682 -0.7506
15059TIP3   OH266591   5.757   5.104  13.684 -0.7869  0.1444 -0.3340
15059TIP3    H166592   5.705   5.184  13.677 -2.3658 -0.6539  1.7188
15059TIP3    H266593   5.800   5.110  13.770 -1.7035 -1.6223  0.2900
15060TIP3   OH266594   1.390   6.786  15.225 -0.0083  0.5305  0.2608
15060TIP3    H166595   1.349   6.841  15.292 -0.4430 -0.2078  0.6173
15060TIP3    H266596   1.325   6.718  15.208  0.6914 -0.1167  0.1496
15061TIP3   OH266597   3.391   4.499   1.710  0.0567  0.6640  0.3543
15061TIP3    H166598   3.452   4.570   1.693 -0.0142  0.0983 -2.5849
15061TIP3    H266599   3.425   4.425   1.659 -1.3133 -0.6051  1.2306
15062TIP3   OH266600   1.969   5.552  13.703 -0.1168  0.1497 -0.0278
15062TIP3    H166601   1.961   5.612  13.777  1.4537 -0.6085  0.7827
15062TIP3    H266602   1.944   5.467  13.739 -1.5557  0.1803 -0.9626
15063TIP3   OH266603   2.505   5.347   2.905  0.0576 -0.0389  0.0565
15063TIP3    H166604   2.546   5.433   2.917 -0.5326  0.3566 -0.7102
15063TIP3    H266605   2.558   5.304   2.837 -1.1909  0.7428 -1.4342
15064TIP3   OH266606   5.916   4.372  14.555 -0.1216  0.0222 -0.4204
15064TIP3    H166607   5.914   4.432  14.629 -0.5758 -0.5688  0.0498
15064TIP3    H266608   5.973   4.300  14.583  0.8037  0.4529 -1.1617
15065TIP3   OH266609   0.819   6.385  16.936 -0.1041 -0.1310  0.0743
15065TIP3    H166610   0.873   6.328  16.882 -0.3237 -0.1649 -0.1126
15065TIP3    H266611   0.818   6.343  17.022 -0.1150 -0.3146 -0.0118
15066TIP3   OH266612   0.070   4.226   1.521 -0.2230 -0.8421 -0.3384
15066TIP3    H166613   0.082   4.132   1.516  0.2860 -0.7986  0.0648
15066TIP3    H266614   0.157   4.263   1.509 -0.5602 -0.3841 -1.4437
15067TIP3   OH266615   0.179   4.106   2.118 -0.0919 -0.4428 -0.3085
15067TIP3    H166616   0.191   4.175   2.053  1.8194  0.4321  0.9296
15067TIP3    H266617   0.121   4.145   2.183 -0.5548 -0.6945 -0.5636
15068TIP3   OH266618   0.566   2.428  17.056 -0.1829 -0.2687 -0.0413
15068TIP3    H166619   0.645   2.398  17.101  0.9850 -0.2168 -1.9744
15068TIP3    H266620   0.585   2.413  16.963 -1.9104  1.0068 -0.6228
15069TIP3   OH266621   2.806   0.433   3.850  0.1695 -0.3543 -0.0609
15069TIP3    H166622   2.729   0.486   3.826  0.6833 -0.2019 -1.4077
15069TIP3    H266623   2.768   0.355   3.891 -0.6391  0.5214  0.8864
15070TIP3   OH266624   0.277   1.127  16.414 -0.0562 -0.5478 -0.4160
15070TIP3    H166625   0.341   1.064  16.383  0.4734 -0.4867  0.5265
15070TIP3    H266626   0.312   1.212  16.389  0.7054 -0.4567  0.9118
15071TIP3   OH266627   5.061   1.392   0.146 -0.0422  0.0143 -0.3793
15071TIP3    H166628   5.129   1.325   0.140 -0.0633  0.0364 -0.8958
15071TIP3    H266629   5.085   1.456   0.080 -0.8140 -0.2008 -0.8800
15072TIP3   OH266630   0.729   0.994   6.474 -0.6199  0.4843 -0.1881
15072TIP3    H166631   0.660   0.947   6.427 -1.0170 -0.1290  0.9910
15072TIP3    H266632   0.782   0.924   6.513 -0.1859  0.9860  0.1198
15073TIP3   OH266633   3.385   0.625   6.050 -0.4677 -1.1207 -0.2216
15073TIP3    H166634   3.411   0.707   6.092  0.1566 -1.3222 -0.2124
15073TIP3    H266635   3.372   0.648   5.958 -1.3236 -0.7915 -0.0262
15074TIP3   OH266636   0.911   4.380  11.908  0.3811  0.0659  0.2349
15074TIP3    H166637   0.952   4.323  11.973  1.7055  0.0001 -0.6308
15074TIP3    H266638   0.891   4.461  11.955 -1.0627 -0.9137  1.3533
15075TIP3   OH266639   1.209   3.934  16.179  0.1617  0.4935 -0.1456
15075TIP3    H166640   1.224   3.981  16.261 -0.2493  0.6609 -0.1643
15075TIP3    H266641   1.221   3.842  16.202  0.2083  0.5526  0.0684
15076TIP3   OH266642   3.449   2.541  11.342  0.2124  0.3532  0.4057
15076TIP3    H166643   3.517   2.566  11.281  0.3022 -1.5658 -0.3025
15076TIP3    H266644   3.458   2.446  11.351 -0.9459  0.3718  2.0015
15077TIP3   OH266645   4.043   1.682   5.819  0.0372  0.0047 -0.2794
15077TIP3    H166646   4.024   1.763   5.773 -2.2074 -1.2023 -1.5704
15077TIP3    H266647   4.135   1.664   5.800 -0.1470  0.9174 -2.1185
15078TIP3   OH266648   5.010   1.607   3.668  0.5150  0.5942  0.7513
15078TIP3    H166649   4.963   1.556   3.601  0.7212  1.3664  0.0124
15078TIP3    H266650   4.960   1.593   3.748  0.6073 -0.8289  0.5714
15079TIP3   OH266651   5.195   5.879  16.922  0.0101 -0.5664 -0.1384
15079TIP3    H166652   5.189   5.816  16.994  3.0450  0.1405  0.8167
15079TIP3    H266653   5.279   5.860  16.880 -0.0074  1.4701 -1.1603
15080TIP3   OH266654   3.976   0.566   2.813  0.1178 -0.0515 -0.0676
15080TIP3    H166655   3.897   0.569   2.760 -0.2538  1.0449  0.5309
15080TIP3    H266656   3.945   0.573   2.903  0.8623 -0.0774  0.1943
15081TIP3   OH266657   6.672   3.748   3.437 -0.0534  0.1902  0.5377
15081TIP3    H166658   6.745   3.686   3.437  0.1717  0.4415  1.6293
15081TIP3    H266659   6.608   3.710   3.377 -0.2167 -1.4667  1.7151
15082TIP3   OH266660   1.015   1.828  11.831  0.7675 -0.2566 -0.3632
15082TIP3    H166661   0.969   1.780  11.899  2.9699  0.0160  1.3774
15082TIP3    H266662   0.979   1.795  11.749 -1.2346 -1.2911  0.9111
15083TIP3   OH266663   0.514   3.263   5.735 -0.2814 -0.4231 -0.2362
15083TIP3    H166664   0.566   3.183   5.734 -0.4908 -0.5558 -0.9655
15083TIP3    H266665   0.570   3.329   5.694  0.5057  0.2056  1.7968
15084TIP3   OH266666   1.947   4.795  17.055 -0.5906  0.0832 -0.3924
15084TIP3    H166667   1.896   4.724  17.017  2.3026 -1.7237 -1.0174
15084TIP3    H266668   1.985   4.841  16.980  3.4482 -2.2302  0.0882
15085TIP3   OH266669   3.803   2.821  16.035  0.3062 -0.4639  0.1822
15085TIP3    H166670   3.732   2.885  16.036  0.4750 -0.2717 -0.2407
15085TIP3    H266671   3.883   2.874  16.038  0.5355 -0.5069 -3.1863
15086TIP3   OH266672   5.725   4.396   6.599  0.2337  0.2639 -0.1014
15086TIP3    H166673   5.816   4.367   6.610 -0.2430 -0.9353  0.7923
15086TIP3    H266674   5.719   4.423   6.508  0.6437 -2.7136 -1.0599
15087TIP3   OH266675   6.699   6.460  16.476 -0.5264  0.1420  0.2038
15087TIP3    H166676   6.759   6.397  16.437 -1.2262 -0.3263 -0.1443
15087TIP3    H266677   6.755   6.527  16.514  0.1643  0.9747 -2.2162
15088TIP3   OH266678   1.731   4.575  15.651  0.6753 -0.0414  0.1512
15088TIP3    H166679   1.690   4.574  15.565  1.0118  0.0658 -0.0081
15088TIP3    H266680   1.712   4.488  15.687  2.6744 -0.9964 -1.0306
15089TIP3   OH266681   1.399   1.291  16.333 -0.1527  0.3567 -0.1390
15089TIP3    H166682   1.484   1.246  16.328 -0.3886  0.0935 -2.2488
15089TIP3    H266683   1.369   1.274  16.423  1.5944 -0.3204  0.3520
15090TIP3   OH266684   5.181   3.587   5.781  0.2973  0.1498  0.3134
15090TIP3    H166685   5.250   3.598   5.847  0.2912  2.2900 -0.0108
15090TIP3    H266686   5.137   3.672   5.778 -1.1515 -0.6206 -0.8472
15091TIP3   OH266687   2.336   0.800   0.907  0.1119 -0.1356 -0.2053
15091TIP3    H166688   2.284   0.864   0.957  2.3932  1.0325  0.7469
15091TIP3    H266689   2.356   0.731   0.970  1.1036  0.2386 -0.1017
15092TIP3   OH266690   2.360   2.061  11.726 -0.0390  0.2421  0.7552
15092TIP3    H166691   2.303   2.033  11.654  0.8277 -1.4710  0.7127
15092TIP3    H266692   2.337   2.002  11.799  0.8933  0.2782  1.0767
15093TIP3   OH266693   2.442   5.735   1.303  0.5328  0.2116  0.2087
15093TIP3    H166694   2.473   5.811   1.253 -0.4429  0.0685 -0.6173
15093TIP3    H266695   2.500   5.664   1.276  2.1841  0.9038  1.8343
15094TIP3   OH266696   5.378   6.591   4.399 -0.0514  0.0271 -0.4227
15094TIP3    H166697   5.407   6.680   4.419  1.4623 -0.1623 -1.7211
15094TIP3    H266698   5.436   6.535   4.449 -0.1799 -0.2743 -0.6118
15095TIP3   OH266699   0.166   0.270   3.590  0.7494  0.4102  0.0247
15095TIP3    H166700   0.108   0.336   3.630  1.5641  1.0114  0.2258
15095TIP3    H266701   0.106   0.208   3.549 -0.0424  1.2851 -0.1775
15096TIP3   OH266702   5.444   5.278   5.579 -0.0987 -0.0698  0.2845
15096TIP3    H166703   5.430   5.186   5.601  0.0606 -0.6802 -2.0792
15096TIP3    H266704   5.364   5.305   5.534  1.0319  0.0944 -1.6705
15097TIP3   OH266705   0.553   6.436   2.555  0.8192  0.4305  0.1163
15097TIP3    H166706   0.589   6.374   2.618  0.1015  0.1465  0.2541
15097TIP3    H266707   0.628   6.463   2.501  1.0180 -1.0047 -0.3246
15098TIP3   OH266708   0.062   0.497  13.760 -0.3481  0.1935  0.1413
15098TIP3    H166709   0.072   0.403  13.776  0.0445 -0.2718 -2.6329
15098TIP3    H266710  -0.032   0.513  13.771 -0.8303 -1.0602 -1.9246
15099TIP3   OH266711   6.258   3.538  15.799 -0.4903 -0.2458 -0.3946
15099TIP3    H166712   6.243   3.491  15.880  0.4534 -0.8971 -0.5803
15099TIP3    H266713   6.280   3.627  15.826 -1.4786 -0.1238 -0.0027
15100TIP3   OH266714   0.493   3.244   3.265 -0.2819 -0.2928  0.2082
15100TIP3    H166715   0.535   3.280   3.187  1.1499 -0.4621  0.8822
15100TIP3    H266716   0.559   3.186   3.303 -0.7268  0.3079  1.9245
15101TIP3   OH266717   2.746   4.561  16.439 -0.6011 -0.5340  0.0688
15101TIP3    H166718   2.785   4.478  16.411  1.0064  0.5342 -0.9578
15101TIP3    H266719   2.781   4.576  16.527  1.2137  0.3262 -0.7755
15102TIP3   OH266720   3.698   1.969   4.274 -0.1552  0.0012 -0.3567
15102TIP3    H166721   3.716   1.901   4.208 -0.2475 -0.4467  0.0784
15102TIP3    H266722   3.635   2.027   4.232 -0.1499 -0.2380 -0.6948
15103TIP3   OH266723   5.971   5.032  13.531 -0.1280 -0.1726  0.2844
15103TIP3    H166724   5.926   5.079  13.461  1.1543 -0.8588 -1.0343
15103TIP3    H266725   5.923   5.054  13.610 -0.6234  1.9085 -0.5776
15104TIP3   OH266726   4.952   0.482   3.956 -0.1634  0.4792 -0.0175
15104TIP3    H166727   4.938   0.483   4.051  0.0361 -0.4876  0.0323
15104TIP3    H266728   5.009   0.557   3.938 -1.0414  1.2726  0.4890
15105TIP3   OH266729   2.106   3.102  16.899 -0.1930 -0.0266  0.2680
15105TIP3    H166730   2.066   3.172  16.952  0.7183  0.7458 -0.0453
15105TIP3    H266731   2.179   3.145  16.855 -0.0649 -1.0232 -0.4908
15106TIP3   OH266732   5.960   1.842   4.699  0.4814  0.1580 -0.0448
15106TIP3    H166733   5.880   1.801   4.734  0.8974 -0.6925 -0.0781
15106TIP3    H266734   5.928   1.915   4.646 -0.1976  0.9272  1.3998
15107TIP3   OH266735   1.479   5.610   5.253  0.7983 -0.9577 -0.2035
15107TIP3    H166736   1.518   5.678   5.198 -0.9218 -1.6406 -2.3288
15107TIP3    H266737   1.392   5.644   5.275  0.9955 -1.2567  1.1059
15108TIP3   OH266738   1.642   6.607   4.635  0.4419  0.0694  0.4370
15108TIP3    H166739   1.575   6.639   4.575  0.7936 -1.0238 -0.5421
15108TIP3    H266740   1.592   6.573   4.710 -0.0299  0.6677  0.3952
15109TIP3   OH266741   1.466   3.641  14.708  0.0366 -0.4003  0.5011
15109TIP3    H166742   1.487   3.620  14.799 -2.8822  0.3967  1.4113
15109TIP3    H266743   1.393   3.583  14.686  0.9458 -0.8382 -1.4557
15110TIP3   OH266744   5.655   5.651   1.053  0.1482 -0.2014 -0.2639
15110TIP3    H166745   5.610   5.735   1.046  2.0616  0.8621 -0.1900
15110TIP3    H266746   5.649   5.613   0.965 -0.5738  0.0916 -0.3419
15111TIP3   OH266747   3.203   1.149   1.323  0.1760  0.0158 -0.0691
15111TIP3    H166748   3.114   1.125   1.296 -0.0389  0.1272  0.5335
15111TIP3    H266749   3.201   1.245   1.324 -0.0297  0.0060  1.0345
15112TIP3   OH266750   2.394   3.574  13.921 -0.2787  0.3605 -0.1979
15112TIP3    H166751   2.309   3.598  13.958 -0.3167  0.3475 -0.2744
15112TIP3    H266752   2.378   3.570  13.827 -0.0637  0.8640 -0.2538
15113TIP3   OH266753   6.656   2.540   6.471 -0.4943  0.5659  0.0654
15113TIP3    H166754   6.715   2.474   6.507  0.5798  0.2390 -2.2051
15113TIP3    H266755   6.712   2.617   6.458 -1.0187  0.8931 -0.2745
15114TIP3   OH266756   3.016   3.263   4.258 -0.1082  0.0834 -0.0928
15114TIP3    H166757   2.933   3.299   4.288 -1.4693 -2.0582 -1.1674
15114TIP3    H266758   3.061   3.236   4.339 -0.7488  0.6492  0.4539
15115TIP3   OH266759   5.908   3.589   3.973 -0.5043  0.0703 -0.8212
15115TIP3    H166760   5.901   3.528   4.047  0.7381 -2.3970 -2.6406
15115TIP3    H266761   5.818   3.597   3.940 -1.0350  1.0705  0.8516
15116TIP3   OH266762   1.833   2.123   1.173 -0.1242  0.2337  0.1839
15116TIP3    H166763   1.885   2.059   1.124  0.4651 -0.6641  1.9405
15116TIP3    H266764   1.753   2.134   1.121 -0.1790 -1.8419 -0.2082
15117TIP3   OH266765   2.544   6.071   2.131 -0.0506  0.6250 -0.7999
15117TIP3    H166766   2.613   6.056   2.066 -1.1547  0.7078 -2.0003
15117TIP3    H266767   2.466   6.029   2.093 -1.0160  1.8047 -0.1317
15118TIP3   OH266768   2.162   5.280   3.952 -0.2979  0.3368 -0.1945
15118TIP3    H166769   2.249   5.314   3.930 -0.3096  0.4778 -0.0312
15118TIP3    H266770   2.163   5.272   4.047  0.0129 -0.9927 -0.3043
15119TIP3   OH266771   1.756   6.540  13.583 -0.3359  0.2568 -0.3020
15119TIP3    H166772   1.744   6.543  13.489  0.5038  1.1164 -0.3915
15119TIP3    H266773   1.669   6.523  13.618 -1.0426  2.0614 -1.1243
15120TIP3   OH266774   4.242   2.913  15.503  0.6156  0.0669 -0.1917
15120TIP3    H166775   4.214   2.831  15.543  0.9287 -0.5303 -1.1805
15120TIP3    H266776   4.312   2.887  15.442 -1.6448  0.5876 -3.0862
15121TIP3   OH266777   5.918   4.798  17.173 -0.6660 -0.1783 -0.5887
15121TIP3    H166778   5.995   4.854  17.163 -0.8873 -0.0187 -1.4351
15121TIP3    H266779   5.890   4.812  17.263  0.4475 -0.4412 -0.1988
15122TIP3   OH266780   0.027   1.038  14.545  0.4316 -0.1296  0.6424
15122TIP3    H166781   0.040   1.076  14.458 -3.1120  0.8506  0.4659
15122TIP3    H266782   0.040   1.112  14.605  1.3809 -0.4623  0.8481
15123TIP3   OH266783   4.017   3.490   6.821 -0.0942 -0.4462 -0.3005
15123TIP3    H166784   4.098   3.468   6.776  0.5533  2.0051 -0.3518
15123TIP3    H266785   3.954   3.507   6.751  0.4225  1.5567 -0.2944
15124TIP3   OH266786   0.740   0.382   4.870  0.2060 -0.0336 -0.2102
15124TIP3    H166787   0.695   0.317   4.817  0.7195 -0.0993 -0.5730
15124TIP3    H266788   0.673   0.448   4.891 -0.4790 -1.0110  0.7225
15125TIP3   OH266789   4.363   5.196   1.159  0.4941 -0.6032  0.1933
15125TIP3    H166790   4.411   5.118   1.131  0.8139 -0.3948  0.1602
15125TIP3    H266791   4.277   5.163   1.185 -0.0284 -0.7235 -1.6262
15126TIP3   OH266792   5.227   0.197   4.565  0.2038  0.0612  0.0971
15126TIP3    H166793   5.210   0.258   4.493  2.6495 -0.1594 -0.6888
15126TIP3    H266794   5.313   0.223   4.599 -0.0582 -1.0768  1.6921
15127TIP3   OH266795   0.834   4.055   2.691  0.1387 -0.4498  0.1323
15127TIP3    H166796   0.926   4.047   2.667  0.4571  1.4707  0.6029
15127TIP3    H266797   0.833   4.051   2.787 -0.1764  0.1911  0.1646
15128TIP3   OH266798   5.351   5.252   4.326 -0.2083 -0.2109 -0.2520
15128TIP3    H166799   5.327   5.204   4.406  0.8449 -0.8797 -0.3304
15128TIP3    H266800   5.390   5.333   4.358  0.3750 -0.5571 -0.0837
15129TIP3   OH266801   4.200   0.783  12.198 -0.1495 -0.5302  0.3572
15129TIP3    H166802   4.294   0.781  12.213 -0.3559  1.0163  2.1626
15129TIP3    H266803   4.181   0.875  12.178 -0.8431 -1.4066 -3.3825
15130TIP3   OH266804   1.433   3.547  16.189 -0.4361  0.4088  0.0880
15130TIP3    H166805   1.421   3.622  16.248  0.7962 -0.0982  1.0202
15130TIP3    H266806   1.345   3.528  16.157 -0.8392  1.9415  0.2212
15131TIP3   OH266807   5.403   3.610  14.695  0.2778 -0.6177  0.1246
15131TIP3    H166808   5.336   3.542  14.703 -0.3989  0.1184  0.8955
15131TIP3    H266809   5.379   3.657  14.615 -0.2417 -0.2406  0.4977
15132TIP3   OH266810   5.968   0.537  15.900  0.3471 -0.2429  0.4009
15132TIP3    H166811   5.983   0.603  15.832  0.1578  2.0758  2.5051
15132TIP3    H266812   5.919   0.467  15.857  1.2455  0.6393 -2.0971
15133TIP3   OH266813   1.226   5.340  17.129 -0.2659  0.1210 -0.1426
15133TIP3    H166814   1.206   5.329  17.036 -0.5594  1.0059 -0.1877
15133TIP3    H266815   1.263   5.256  17.155 -2.5822 -1.0482 -0.4479
15134TIP3   OH266816   4.034   0.993  16.406  0.2317 -0.1691  0.2242
15134TIP3    H166817   4.054   0.982  16.499  2.3561 -0.3525 -0.2233
15134TIP3    H266818   3.951   0.946  16.393  1.8955 -3.5659  1.2468
15135TIP3   OH266819   1.886   6.238   4.863  0.0776  0.1426 -0.6758
15135TIP3    H166820   1.906   6.238   4.769  1.7143  0.7849 -0.3504
15135TIP3    H266821   1.798   6.274   4.869 -0.4898 -0.9707 -2.0473
15136TIP3   OH266822   4.583   5.438  16.904  0.5719 -0.4172 -0.3843
15136TIP3    H166823   4.622   5.458  16.819 -0.0202 -0.3092 -0.6355
15136TIP3    H266824   4.529   5.361  16.888  3.2009 -2.5331  0.6789
15137TIP3   OH266825   5.998   0.138  14.590 -0.1583  0.4943 -0.1551
15137TIP3    H166826   6.052   0.217  14.594 -1.9050  1.7174 -0.5038
15137TIP3    H266827   6.061   0.067  14.574  1.5166  1.6800  1.0522
15138TIP3   OH266828   2.309   2.437   4.416  0.2618  0.3893 -0.1225
15138TIP3    H166829   2.309   2.386   4.336 -1.2484  0.3554 -0.1161
15138TIP3    H266830   2.390   2.488   4.412  1.3701 -1.3615 -0.5212
15139TIP3   OH266831   3.375   0.992   4.311  0.5013 -0.6020  0.3415
15139TIP3    H166832   3.376   1.085   4.289 -0.2555 -0.4531  0.9249
15139TIP3    H266833   3.467   0.971   4.328  0.7099 -0.0253 -0.0457
15140TIP3   OH266834   4.278   5.896  11.065  0.4885 -0.5168  0.5525
15140TIP3    H166835   4.365   5.931  11.084  1.6805 -2.8768 -0.3615
15140TIP3    H266836   4.273   5.892  10.970 -0.6339 -0.3820  0.5943
15141TIP3   OH266837   6.756   5.869   5.422 -0.4165 -0.3211 -0.2991
15141TIP3    H166838   6.737   5.787   5.376  0.0587 -0.6655  0.1194
15141TIP3    H266839   6.718   5.936   5.366  2.2091 -0.5231 -2.4227
15142TIP3   OH266840   4.959   0.451   0.127 -0.1539  0.1171  0.0611
15142TIP3    H166841   4.886   0.470   0.067  0.5532 -0.9175 -1.1574
15142TIP3    H266842   5.036   0.484   0.081  0.3573 -0.3783  0.5734
15143TIP3   OH266843   2.636   6.749   1.776  0.0194 -0.3286  0.8121
15143TIP3    H166844   2.634   6.760   1.680  0.1564  3.1850  1.1414
15143TIP3    H266845   2.547   6.770   1.804  0.2234 -0.4334  1.5489
15144TIP3   OH266846   3.644   4.951  10.270 -0.5388  0.6212 -0.2122
15144TIP3    H166847   3.631   4.859  10.250  1.6590  0.0929  0.6869
15144TIP3    H266848   3.711   4.981  10.208 -1.8239  1.8553 -1.0599
15145TIP3   OH266849   1.348   1.630   2.032 -0.7544 -0.5055  0.1891
15145TIP3    H166850   1.336   1.574   2.108  1.3242 -1.7027 -0.3357
15145TIP3    H266851   1.433   1.673   2.047 -0.6557 -0.2251 -1.1075
15146TIP3   OH266852   4.883   1.779   0.894  0.0058 -0.0599 -0.1906
15146TIP3    H166853   4.958   1.720   0.896 -1.5515 -2.1357 -1.0483
15146TIP3    H266854   4.843   1.770   0.981  0.9097  1.3311  0.4012
15147TIP3   OH266855   4.519   1.673   0.647 -0.0427 -0.4689  0.0727
15147TIP3    H166856   4.611   1.656   0.670  0.1915 -0.7265 -1.0313
15147TIP3    H266857   4.478   1.699   0.730  1.9164  3.5808 -0.1282
15148TIP3   OH266858   0.379   2.943   5.867  0.2511 -0.2218 -0.6904
15148TIP3    H166859   0.461   2.978   5.903 -0.4467  0.2770  0.4322
15148TIP3    H266860   0.310   2.981   5.923 -0.6944 -1.2076 -1.1800
15149TIP3   OH266861   2.405   3.592   4.638 -0.1362  0.6524  0.0166
15149TIP3    H166862   2.343   3.541   4.691  1.2500 -0.5974  0.4732
15149TIP3    H266863   2.355   3.668   4.610 -1.1125  1.0142  2.6069
15150TIP3   OH266864   2.719   4.838  10.706  0.4965 -0.3492 -0.6275
15150TIP3    H166865   2.772   4.915  10.684 -1.0108  0.7765 -0.3903
15150TIP3    H266866   2.634   4.855  10.665 -0.0524 -1.5742 -0.0120
15151TIP3   OH266867   2.182   4.580  15.479  0.4327 -0.2009 -0.0156
15151TIP3    H166868   2.172   4.669  15.445  0.5759 -0.5246 -0.9107
15151TIP3    H266869   2.206   4.528  15.403 -1.1366 -1.2943  0.2266
15152TIP3   OH266870   5.525   0.189   4.852  0.2100 -0.4179 -0.1574
15152TIP3    H166871   5.501   0.254   4.786  1.2701  0.9364  0.7607
15152TIP3    H266872   5.454   0.194   4.917  0.5843  0.2402  0.2038
15153TIP3   OH266873   2.717   1.109   3.955  0.1199  0.2248  0.0485
15153TIP3    H166874   2.775   1.052   4.004 -0.5467  0.0623  0.6570
15153TIP3    H266875   2.753   1.110   3.866  0.3971 -0.7649  0.1501
15154TIP3   OH266876   4.664   5.169  11.040  0.3306 -0.3880 -0.3132
15154TIP3    H166877   4.588   5.179  11.097  0.0711  1.9155 -1.0213
15154TIP3    H266878   4.649   5.230  10.968  2.0253 -1.1724 -1.3837
15155TIP3   OH266879   0.140   0.019   4.601  0.3585  0.1058 -0.1092
15155TIP3    H166880   0.208   0.080   4.631 -0.3542 -0.1290  2.0794
15155TIP3    H266881   0.187  -0.061   4.581  0.9757  0.5594 -0.4888
15156TIP3   OH266882   2.545   1.653  15.099  0.1601 -0.0810  0.3035
15156TIP3    H166883   2.513   1.654  15.189 -2.0175 -0.9004 -0.4261
15156TIP3    H266884   2.573   1.744  15.083 -3.2181  1.0856  0.5376
15157TIP3   OH266885   5.487   2.810  12.242 -0.3664 -0.0837 -0.7245
15157TIP3    H166886   5.438   2.729  12.258  0.7593 -0.3550  1.5464
15157TIP3    H266887   5.511   2.842  12.330  1.7128  1.1434 -1.6870
15158TIP3   OH266888   5.150   0.540   1.501  0.3571 -0.4578  1.2349
15158TIP3    H166889   5.214   0.489   1.451 -1.3277 -1.4517  0.0175
15158TIP3    H266890   5.198   0.573   1.576  2.0283 -2.0792  0.9011
15159TIP3   OH266891   5.159   4.418  16.121  0.1642  0.3364  0.3882
15159TIP3    H166892   5.084   4.378  16.077 -0.2424 -0.0140  1.3858
15159TIP3    H266893   5.149   4.512  16.105 -0.9173  0.3589  1.1797
15160TIP3   OH266894   6.518   2.226   3.596 -0.1225  0.0438 -0.0057
15160TIP3    H166895   6.613   2.241   3.591 -0.4707  2.8009  1.3097
15160TIP3    H266896   6.489   2.229   3.505  1.2355 -2.4853 -0.6023
15161TIP3   OH266897   0.983   4.500   1.837  0.4722  0.3121  0.1303
15161TIP3    H166898   0.955   4.581   1.796 -0.1603 -0.3224 -0.7259
15161TIP3    H266899   0.983   4.436   1.765  0.8092 -0.4739  0.8196
15162TIP3   OH266900   2.769   0.458  13.066 -0.4003  0.5863 -1.1098
15162TIP3    H166901   2.688   0.468  13.116 -0.5670 -1.4497 -0.9259
15162TIP3    H266902   2.836   0.496  13.123 -1.0589  1.2742 -0.7806
15163TIP3   OH266903   1.032   5.950   1.543 -0.2188 -0.2170 -0.8379
15163TIP3    H166904   1.026   6.040   1.513  0.9454  0.8849  2.0727
15163TIP3    H266905   1.109   5.915   1.497 -2.0856 -0.5781 -3.8591
15164TIP3   OH266906   3.282   1.015  11.225  0.1952 -0.1217  0.4245
15164TIP3    H166907   3.337   0.943  11.257 -0.7694 -0.1316  2.1171
15164TIP3    H266908   3.196   0.998  11.263 -0.2397  1.4779  0.1738
15165TIP3   OH266909   1.427   4.059   1.851  0.1536  0.2192  0.0249
15165TIP3    H166910   1.432   4.027   1.761  0.9488 -0.0367  0.1584
15165TIP3    H266911   1.399   4.151   1.842  1.7422  0.6626 -0.5820
15166TIP3   OH266912   1.304   1.139   5.273 -0.2035 -0.1450 -0.0799
15166TIP3    H166913   1.323   1.175   5.360 -0.3980 -0.8196  0.2426
15166TIP3    H266914   1.288   1.216   5.218 -1.8676  0.2180  0.8886
15167TIP3   OH266915   2.400   1.780  10.871  0.2593 -0.5992  0.1843
15167TIP3    H166916   2.383   1.730  10.791  0.5668  2.2005 -1.6848
15167TIP3    H266917   2.314   1.810  10.900  0.4652  1.2396 -1.0395
15168TIP3   OH266918   5.187   1.038   5.927  0.5541  0.3998 -0.5206
15168TIP3    H166919   5.191   1.088   6.009 -1.5115  0.5463 -0.4653
15168TIP3    H266920   5.192   0.947   5.954 -0.3984  0.4379 -0.1845
15169TIP3   OH266921   3.616   0.470   5.708  0.5199 -0.3064  0.4344
15169TIP3    H166922   3.708   0.445   5.703  0.6582 -0.0746  1.8257
15169TIP3    H266923   3.579   0.418   5.779 -0.4358 -0.3960 -0.1067
15170TIP3   OH266924   3.948   3.122   2.913 -0.4463  0.0507 -0.2847
15170TIP3    H166925   3.873   3.136   2.857 -0.6128 -0.2968 -0.1562
15170TIP3    H266926   3.978   3.034   2.891  0.7533  0.7073 -1.2979
15171TIP3   OH266927   2.673   0.973   0.372  0.0309 -0.7788  0.5190
15171TIP3    H166928   2.584   0.964   0.407 -1.0613 -1.7426 -2.3575
15171TIP3    H266929   2.694   0.887   0.336  1.3563 -0.0162 -0.5941
15172TIP3   OH266930   0.144   4.788  13.161  0.5666 -0.1370  0.5687
15172TIP3    H166931   0.098   4.848  13.220 -2.3762 -0.5509 -1.1758
15172TIP3    H266932   0.090   4.787  13.082  3.4813 -0.9273 -1.4838
15173TIP3   OH266933   0.781   3.724   4.738  0.2977  0.3308 -0.2701
15173TIP3    H166934   0.698   3.679   4.757  0.6187 -1.1398 -2.2049
15173TIP3    H266935   0.764   3.771   4.657  1.3902 -0.1192 -0.7685
15174TIP3   OH266936   4.041   1.277   2.858 -0.2431  0.1922  0.3400
15174TIP3    H166937   4.118   1.259   2.912 -1.0984 -1.2694  1.0896
15174TIP3    H266938   3.978   1.208   2.881 -0.9142  0.0018 -1.9519
15175TIP3   OH266939   6.124   0.934   0.137  0.7633  0.4302  0.3577
15175TIP3    H166940   6.218   0.937   0.159  0.9988  0.4015 -0.6323
15175TIP3    H266941   6.099   1.026   0.129  1.2435  0.4253 -1.5691
15176TIP3   OH266942   3.312   0.154  13.419  0.3038  0.0428  0.2512
15176TIP3    H166943   3.275   0.096  13.486  1.1302 -0.8658 -0.0594
15176TIP3    H266944   3.294   0.242  13.451 -3.0755 -0.3460 -0.3976
15177TIP3   OH266945   2.367   4.280   4.959 -0.2695 -0.0116 -0.2603
15177TIP3    H166946   2.372   4.369   4.926 -0.0288 -0.2553 -0.8985
15177TIP3    H266947   2.409   4.283   5.045  1.7456  0.0514 -1.2167
15178TIP3   OH266948   2.608   3.037  14.554 -0.2369 -0.2227 -0.3926
15178TIP3    H166949   2.662   3.083  14.490  0.7694  0.5919  1.0056
15178TIP3    H266950   2.596   3.100  14.625 -2.8665 -0.4688 -0.5680
15179TIP3   OH266951   4.707   5.556   3.078 -1.0137  0.0011  0.2598
15179TIP3    H166952   4.612   5.544   3.070 -0.9529 -2.5396  2.7380
15179TIP3    H266953   4.744   5.503   3.007 -1.3620 -1.3741  1.0874
15180TIP3   OH266954   2.306   2.700   4.752 -0.2075 -0.5984  0.3432
15180TIP3    H166955   2.387   2.650   4.756  0.0700 -0.3849 -1.9078
15180TIP3    H266956   2.282   2.714   4.843  2.6155 -0.1181  1.0540
15181TIP3   OH266957   2.551   6.403   5.428  0.2230 -0.3334 -0.2335
15181TIP3    H166958   2.642   6.392   5.456  0.7122 -0.4961 -1.8605
15181TIP3    H266959   2.544   6.353   5.347 -1.7779 -1.7298  0.7558
15182TIP3   OH266960   5.817   5.155   2.879  0.1007 -0.1725 -0.3443
15182TIP3    H166961   5.880   5.221   2.906  0.8903 -0.1180 -2.2839
15182TIP3    H266962   5.791   5.181   2.790 -1.2613 -1.2188 -0.2697
15183TIP3   OH266963   6.023   3.241   5.517 -0.3119 -0.0294 -0.1577
15183TIP3    H166964   5.985   3.162   5.556  0.0262  0.6694  1.6351
15183TIP3    H266965   5.948   3.300   5.504 -0.1978  0.4431  1.1973
15184TIP3   OH266966   2.490   0.798  16.839 -0.6119 -0.0601 -0.4618
15184TIP3    H166967   2.510   0.707  16.816 -1.3409 -0.0363 -1.2476
15184TIP3    H266968   2.436   0.829  16.766  0.3503  1.2727 -0.6202
15185TIP3   OH266969   4.171   4.336  12.656  0.3523  0.0511  0.2830
15185TIP3    H166970   4.164   4.263  12.594 -0.3017  0.1886  0.1927
15185TIP3    H266971   4.080   4.363  12.671  0.6778  1.7239 -0.6985
15186TIP3   OH266972   4.408   4.264  15.412  0.2374  0.5067  0.1785
15186TIP3    H166973   4.326   4.281  15.458  0.4920  0.4695  0.6500
15186TIP3    H266974   4.446   4.189  15.459  1.0374  1.1838  0.6170
15187TIP3   OH266975   6.259   4.357   0.560  0.2108 -0.2595 -0.5756
15187TIP3    H166976   6.295   4.426   0.616  1.1488 -0.9297 -0.3322
15187TIP3    H266977   6.326   4.344   0.492  0.7191 -1.9137  0.2054
15188TIP3   OH266978   0.146   1.238   0.605  0.4519  0.1454  0.4726
15188TIP3    H166979   0.195   1.319   0.612 -0.7805  1.0742 -1.3525
15188TIP3    H266980   0.063   1.263   0.564 -1.0909 -1.5648  2.4185
15189TIP3   OH266981   6.623   0.260   2.872  0.2329 -0.2799  0.5990
15189TIP3    H166982   6.686   0.245   2.943  0.4209 -0.4084  0.4050
15189TIP3    H266983   6.665   0.223   2.795 -0.2222 -0.6620  0.5319
15190TIP3   OH266984   4.181   2.284   5.443  0.0882  0.5319 -0.3827
15190TIP3    H166985   4.179   2.361   5.500 -1.2950 -1.3091  2.1244
15190TIP3    H266986   4.090   2.271   5.416 -0.1266 -1.7679  1.3634
15191TIP3   OH266987   0.137   1.278  15.181 -0.0142  0.9829  0.3205
15191TIP3    H166988   0.079   1.269  15.256  0.9531  1.1828  1.1080
15191TIP3    H266989   0.133   1.371  15.159 -1.2058  0.7195 -0.6301
15192TIP3   OH266990   2.031   5.169  16.936  0.5468 -0.5084  0.4004
15192TIP3    H166991   1.972   5.232  16.895  2.5041  1.2005  0.0869
15192TIP3    H266992   2.009   5.174  17.029 -0.8699 -1.0828  0.1130
15193TIP3   OH266993   6.158   5.483  15.284 -0.1762 -0.5025  0.6775
15193TIP3    H166994   6.212   5.502  15.361  0.0308  1.8450 -0.0172
15193TIP3    H266995   6.071   5.516  15.307 -0.0325  0.5016 -0.2184
15194TIP3   OH266996   3.520   1.992  12.838  0.3384 -0.7644  0.2487
15194TIP3    H166997   3.604   1.947  12.848  0.7314 -0.1831 -0.3694
15194TIP3    H266998   3.537   2.059  12.771 -0.2437  0.2707  1.1239
15195TIP3   OH266999   5.751   1.087  14.922 -0.4636  0.1933 -0.5631
15195TIP3    H167000   5.781   1.000  14.951  2.1383  1.0387 -0.5257
15195TIP3    H267001   5.737   1.077  14.828 -2.2985 -0.8027 -0.2085
15196TIP3   OH267002   4.195   6.372   3.751  0.5200  0.3725 -0.2980
15196TIP3    H167003   4.258   6.300   3.750  1.0304  0.7942  0.9738
15196TIP3    H267004   4.118   6.337   3.705  0.4274 -1.3125  1.0973
15197TIP3   OH267005   3.419   5.181  10.807 -0.1877 -0.2177  0.4252
15197TIP3    H167006   3.393   5.175  10.899  1.4614  1.2605  1.0439
15197TIP3    H267007   3.357   5.242  10.768  0.8131  1.4185  1.3005
15198TIP3   OH267008   3.739   0.554   2.960  0.5574 -0.2001 -0.6796
15198TIP3    H167009   3.688   0.532   3.037  1.8564  3.3816  1.3529
15198TIP3    H267010   3.680   0.606   2.906  0.3408 -0.8094 -1.0327
15199TIP3   OH267011   0.485   3.790   0.882 -0.4055 -0.3920  0.4975
15199TIP3    H167012   0.430   3.741   0.943 -0.7419  0.5454  0.9666
15199TIP3    H267013   0.435   3.870   0.865  1.3536  1.0230  1.8586
15200TIP3   OH267014   0.563   2.684  14.546  0.0660  0.1869  0.2334
15200TIP3    H167015   0.596   2.743  14.479 -2.4237  0.6136 -0.6481
15200TIP3    H267016   0.550   2.601  14.501 -1.5226  0.4507  0.1621
15201TIP3   OH267017   6.736   2.541   0.383 -0.2051  0.1973  0.2800
15201TIP3    H167018   6.714   2.451   0.357  0.5196 -0.3227  1.4020
15201TIP3    H267019   6.667   2.566   0.444  0.1195  0.0209  0.7310
15202TIP3   OH267020   5.912   1.378   0.416  0.1895  0.3768  0.5991
15202TIP3    H167021   5.886   1.369   0.324 -1.0694  0.3120  0.9440
15202TIP3    H267022   5.987   1.320   0.426 -0.5242 -0.6905 -0.0667
15203TIP3   OH267023   3.270   5.711   3.040  0.2166  0.2671 -0.4701
15203TIP3    H167024   3.212   5.707   3.116 -1.1612 -1.5444 -1.5663
15203TIP3    H267025   3.350   5.751   3.074 -0.6026  0.1106  1.7846
15204TIP3   OH267026   6.231   5.809  12.887  0.0539 -0.3032  0.5156
15204TIP3    H167027   6.189   5.860  12.956  0.3770  0.4313  0.1812
15204TIP3    H267028   6.183   5.727  12.884  1.7990 -1.5006  3.5280
15205TIP3   OH267029   6.670   1.493   5.624  0.1666  0.3025 -0.0839
15205TIP3    H167030   6.645   1.545   5.548  0.6551 -0.2507 -0.6182
15205TIP3    H267031   6.615   1.527   5.695 -0.5616  0.5553 -0.7662
15206TIP3   OH267032   2.904   1.789  12.016 -0.2239  0.0968  0.1973
15206TIP3    H167033   2.819   1.779  11.974 -0.7738  0.2986  1.2341
15206TIP3    H267034   2.884   1.801  12.109  0.8995  0.8197  0.3657
15207TIP3   OH267035   5.214   2.276  13.621 -0.2010 -0.2401  0.4549
15207TIP3    H167036   5.140   2.229  13.583 -0.2414  0.9416 -0.9724
15207TIP3    H267037   5.183   2.366  13.630  1.7629  0.7532 -2.2374
15208TIP3   OH267038   0.115   5.133   1.815  0.4690  0.2647 -0.2249
15208TIP3    H167039   0.022   5.138   1.791 -0.3221 -0.0142  2.6073
15208TIP3    H267040   0.133   5.218   1.855  1.3368  0.1693 -0.4106
15209TIP3   OH267041   4.981   0.111   3.298  0.1032 -0.1479  0.3090
15209TIP3    H167042   5.004   0.198   3.331 -0.2411 -0.6067  1.7824
15209TIP3    H267043   5.056   0.056   3.321  0.1120 -0.3470 -0.1955
15210TIP3   OH267044   4.773   3.206   2.759  0.0250  0.1032  0.0882
15210TIP3    H167045   4.835   3.241   2.822  0.4556 -1.3535  0.4791
15210TIP3    H267046   4.739   3.126   2.800 -1.6098  0.5162 -0.4025
15211TIP3   OH267047   1.447   4.696   5.235  1.1454  0.2368  0.2708
15211TIP3    H167048   1.436   4.605   5.263 -2.1706  0.1871 -0.9729
15211TIP3    H267049   1.475   4.689   5.143  1.0304  0.4890  0.2171
15212TIP3   OH267050   6.643   2.727  12.936  0.0336  0.3986  0.2210
15212TIP3    H167051   6.665   2.686  13.020  0.1232 -0.1295 -0.0583
15212TIP3    H267052   6.680   2.669  12.870  0.2170  0.9641 -0.1815
15213TIP3   OH267053   3.882   0.084  13.107 -0.3600  0.4686 -0.2267
15213TIP3    H167054   3.800   0.084  13.058 -0.6213  0.2075  0.2058
15213TIP3    H267055   3.948   0.058  13.044 -0.5843  0.8502 -0.6224
15214TIP3   OH267056   6.018   1.771  17.055  0.0895  0.0308 -0.8070
15214TIP3    H167057   6.041   1.778  17.147  0.1535 -0.7349 -0.7624
15214TIP3    H267058   6.064   1.844  17.013  0.3485  0.1649 -0.2936
15215TIP3   OH267059   4.471   0.351   0.377  0.2890  0.3613  0.5933
15215TIP3    H167060   4.500   0.419   0.317  2.1426 -0.5621  0.4277
15215TIP3    H267061   4.477   0.391   0.464 -0.5771  1.0582  0.3484
15216TIP3   OH267062   5.525   2.897   6.266  0.0401 -0.2466 -0.5118
15216TIP3    H167063   5.588   2.919   6.334 -2.4506 -1.3015  2.2732
15216TIP3    H267064   5.542   2.805   6.246 -1.0475 -0.7347  0.7613
15217TIP3   OH267065   3.704   1.481  12.726  0.5098  0.3083 -0.1777
15217TIP3    H167066   3.630   1.458  12.670  0.5535  0.0196 -0.1156
15217TIP3    H267067   3.777   1.428  12.693  0.6355  0.4323 -0.1019
15218TIP3   OH267068   1.420   0.068  11.198  0.3982 -0.1477  0.4391
15218TIP3    H167069   1.413   0.051  11.292 -0.0640  0.2297  0.4759
15218TIP3    H267070   1.334   0.102  11.174  0.8071  0.6290  0.0591
15219TIP3   OH267071   1.227   1.248  16.557  0.0250 -0.0256  0.0821
15219TIP3    H167072   1.173   1.176  16.525  0.5811  0.3179 -1.6477
15219TIP3    H267073   1.167   1.301  16.609 -0.5255 -1.4028  0.8842
15220TIP3   OH267074   2.662   3.038  15.317  0.6023 -0.0573  0.0616
15220TIP3    H167075   2.648   3.119  15.366 -0.4906  0.3010 -0.8308
15220TIP3    H267076   2.683   3.068  15.229 -1.6788 -0.7602 -0.7522
15221TIP3   OH267077   1.853   6.418   0.004 -0.3436 -0.1242 -0.3200
15221TIP3    H167078   1.774   6.453   0.046  0.3254  0.7767  0.2003
15221TIP3    H267079   1.822   6.340  -0.043 -1.0679 -1.3266  2.0719
15222TIP3   OH267080   3.919   6.207   2.877  0.1963  0.1393  0.2890
15222TIP3    H167081   3.896   6.286   2.828 -0.1503 -1.4115 -2.1661
15222TIP3    H267082   4.012   6.194   2.857  0.2670 -0.0337  0.7353
15223TIP3   OH267083   4.941   4.201   2.201 -0.3615 -0.0327 -0.1334
15223TIP3    H167084   5.004   4.157   2.145 -0.7807  0.0920 -0.7063
15223TIP3    H267085   4.859   4.154   2.186 -1.0210  1.4802 -1.4153
15224TIP3   OH267086   6.095   3.590   3.735  0.3740  0.2098 -0.4792
15224TIP3    H167087   6.041   3.611   3.812  0.3866  2.2066 -0.9863
15224TIP3    H267088   6.057   3.510   3.700 -1.4485  0.8885 -0.0760
15225TIP3   OH267089   6.541   0.989  16.159  0.4930  0.2301 -0.1520
15225TIP3    H167090   6.576   1.068  16.118  1.1205  0.3787  0.6539
15225TIP3    H267091   6.586   0.984  16.244  1.1631 -1.4971 -0.5877
15226TIP3   OH267092   0.706   4.932  12.358  0.1217  0.0168  0.0837
15226TIP3    H167093   0.664   4.877  12.423 -0.2972  0.0080 -0.1953
15226TIP3    H267094   0.799   4.930  12.381 -0.0767  0.3152  0.9036
15227TIP3   OH267095   0.636   1.626  11.371 -0.2617  0.1718  0.1817
15227TIP3    H167096   0.673   1.539  11.357 -1.2252 -0.0746 -0.9036
15227TIP3    H267097   0.544   1.610  11.390  0.1180  0.7841  2.7899
15228TIP3   OH267098   6.310   2.978   0.015  0.1451  0.2404 -0.1557
15228TIP3    H167099   6.300   2.883   0.009 -0.6259  0.2346  0.9954
15228TIP3    H267100   6.381   2.998  -0.045 -0.1458 -0.9833 -0.9311
15229TIP3   OH267101   0.948   0.595  16.025 -0.5578 -0.4394 -0.0727
15229TIP3    H167102   0.921   0.658  16.093  1.4305  0.0561  0.2798
15229TIP3    H267103   1.033   0.627  15.995 -0.6617 -1.6027 -1.6292
15230TIP3   OH267104   5.329   6.438   0.601  0.0136  0.7837 -0.0210
15230TIP3    H167105   5.385   6.469   0.672 -1.1129  1.1294  0.7194
15230TIP3    H267106   5.246   6.417   0.643  0.7491 -3.3914 -0.4549
15231TIP3   OH267107   4.808   3.711   1.695  0.5162  0.6753 -0.4529
15231TIP3    H167108   4.754   3.703   1.774  2.2414  0.6893  0.7583
15231TIP3    H267109   4.817   3.805   1.682  0.8973  0.6777 -0.1873
15232TIP3   OH267110   1.073   5.574  14.378  0.1928 -0.2872 -0.6564
15232TIP3    H167111   1.141   5.637  14.354 -0.6330  0.3476 -1.4108
15232TIP3    H267112   1.083   5.562  14.472 -0.4356  1.9865 -0.2501
15233TIP3   OH267113   4.388   5.391   3.654  0.2292  0.8395  0.1126
15233TIP3    H167114   4.341   5.404   3.736 -0.9100 -1.1780 -0.1819
15233TIP3    H267115   4.322   5.405   3.586  0.9713  1.7031 -0.4474
15234TIP3   OH267116   3.329   3.650  13.808 -0.2848 -0.1688 -0.4109
15234TIP3    H167117   3.310   3.744  13.814 -0.8904 -0.3465  0.5108
15234TIP3    H267118   3.419   3.642  13.838 -0.7217 -0.0632  0.9468
15235TIP3   OH267119   1.946   2.838  13.292 -0.5153  0.0964 -0.1105
15235TIP3    H167120   1.855   2.811  13.304 -0.7938  1.0089 -0.1897
15235TIP3    H267121   1.994   2.790  13.359 -0.8572 -1.4266 -0.9226
15236TIP3   OH267122   1.805   2.861   1.479  0.6105 -0.0221 -0.0992
15236TIP3    H167123   1.883   2.875   1.533 -0.4546 -0.9962  1.7482
15236TIP3    H267124   1.752   2.939   1.494 -0.2359 -0.8345  1.2779
15237TIP3   OH267125   1.353   4.181   4.455  0.3410  0.5062  0.2730
15237TIP3    H167126   1.284   4.169   4.521 -0.0161  2.3843  0.2647
15237TIP3    H267127   1.305   4.202   4.375  0.7836 -1.6029 -0.5726
15238TIP3   OH267128   4.648   0.828  11.558  0.3763 -0.1664  0.1930
15238TIP3    H167129   4.639   0.923  11.560 -0.0357 -0.2381  1.9232
15238TIP3    H267130   4.564   0.795  11.588  0.6565 -1.0870 -0.0168
15239TIP3   OH267131   5.856   2.513  14.081  0.1243  0.2667 -0.1371
15239TIP3    H167132   5.766   2.501  14.112 -0.3510  0.5940 -1.3838
15239TIP3    H267133   5.892   2.580  14.139 -0.0460 -0.7157  1.1304
15240TIP3   OH267134   3.137   0.070  15.612  0.5587  0.5041 -0.1018
15240TIP3    H167135   3.090   0.021  15.679 -0.4841 -0.0145 -1.2140
15240TIP3    H267136   3.221   0.025  15.605  0.3807  0.0970  0.3130
15241TIP3   OH267137   2.833   3.623  14.291  0.3488  0.4682 -0.2344
15241TIP3    H167138   2.893   3.682  14.337 -1.2438  1.0560  1.1447
15241TIP3    H267139   2.834   3.654  14.201  2.5150  0.1291 -0.3460
15242TIP3   OH267140   4.323   2.310  12.006 -0.3654  0.0775 -0.5867
15242TIP3    H167141   4.264   2.355  12.067 -0.2139 -1.3290  0.6398
15242TIP3    H267142   4.274   2.234  11.976  0.2961 -0.3267 -0.6676
15243TIP3   OH267143   0.378   4.876  16.392  0.1137  0.3978 -0.4137
15243TIP3    H167144   0.320   4.834  16.455 -0.7952  2.2416  0.0050
15243TIP3    H267145   0.343   4.851  16.307 -0.5399  0.4788 -0.1673
15244TIP3   OH267146   2.321   3.075  13.845  0.3773 -0.1345 -0.5848
15244TIP3    H167147   2.393   3.134  13.867  0.2435  0.0485 -0.6371
15244TIP3    H267148   2.242   3.125  13.864  0.2601 -0.0424 -1.2870
15245TIP3   OH267149   4.950   1.251   6.197 -0.1411 -0.0537  0.2006
15245TIP3    H167150   4.855   1.237   6.192 -0.5042  1.5421  2.0459
15245TIP3    H267151   4.965   1.282   6.286  1.9304  1.1686 -0.5329
15246TIP3   OH267152   6.476   0.255  16.298  0.0981 -0.6089  0.4243
15246TIP3    H167153   6.394   0.208  16.314  0.2145 -1.1007 -0.3653
15246TIP3    H267154   6.537   0.187  16.270  1.0148 -0.3681  1.8114
15247TIP3   OH267155   0.988   5.031   4.399 -0.7853 -0.1320 -0.1764
15247TIP3    H167156   1.054   5.060   4.462  0.2987  0.7744 -1.7028
15247TIP3    H267157   0.970   4.941   4.423 -1.3032  0.5777  2.2037
15248TIP3   OH267158   5.310   4.077  12.083 -0.0218  0.3554 -0.2437
15248TIP3    H167159   5.275   3.991  12.105  0.9715 -0.2366 -0.9736
15248TIP3    H267160   5.396   4.079  12.123  0.6357  0.3674 -1.6351
15249TIP3   OH267161   6.593   0.184   3.490 -0.0578 -0.5058  0.1046
15249TIP3    H167162   6.542   0.124   3.544  0.2959 -1.0552 -0.1679
15249TIP3    H267163   6.572   0.271   3.524 -1.5499 -0.6978 -0.3356
15250TIP3   OH267164   0.198   4.086  13.905 -0.1613  0.0085  0.2809
15250TIP3    H167165   0.185   4.166  13.955 -0.0249 -0.4658  1.0901
15250TIP3    H267166   0.202   4.017  13.971 -0.4369 -0.6848 -0.4206
15251TIP3   OH267167   6.448   0.376  16.566 -0.9182 -0.1622 -0.0797
15251TIP3    H167168   6.489   0.302  16.611 -2.0539 -0.7303  0.0536
15251TIP3    H267169   6.443   0.349  16.474  1.9362  1.2394 -0.6895
15252TIP3   OH267170   4.139   5.521  16.951  0.5248  0.1491  0.4530
15252TIP3    H167171   4.080   5.447  16.941  0.5139  0.3065 -0.8144
15252TIP3    H267172   4.211   5.488  17.004 -1.1864  0.2600  2.9062
15253TIP3   OH267173   4.214   6.292  14.593 -0.2338 -0.1332  0.3574
15253TIP3    H167174   4.210   6.262  14.502 -0.9390  0.5938  0.1475
15253TIP3    H267175   4.232   6.212  14.643  1.2471 -0.3692 -0.5083
15254TIP3   OH267176   2.111   1.035  10.656 -0.2212 -0.6966  0.1726
15254TIP3    H167177   2.076   0.994  10.577 -0.2059 -1.0012  0.3256
15254TIP3    H267178   2.192   0.987  10.674 -0.0820 -0.4493  0.2200
15255TIP3   OH267179   6.127   4.251   6.186 -0.0005  0.2839  0.5032
15255TIP3    H167180   6.150   4.160   6.206 -3.1462 -0.3142  1.6392
15255TIP3    H267181   6.208   4.300   6.204  1.1381 -2.0088  1.8991
15256TIP3   OH267182   2.598   2.363  15.962  0.2899  0.2147 -0.4175
15256TIP3    H167183   2.687   2.336  15.985 -0.4332 -0.9012  1.1323
15256TIP3    H267184   2.610   2.442  15.909  2.1995  0.0322 -0.2842
15257TIP3   OH267185   5.333   2.461  16.829 -0.3847 -0.5530 -0.5043
15257TIP3    H167186   5.355   2.554  16.822 -0.7637 -0.5245 -1.4946
15257TIP3    H267187   5.395   2.425  16.892  0.9664 -0.0041 -1.4923
15258TIP3   OH267188   5.808   6.770   3.506  0.8213  0.3904 -0.6300
15258TIP3    H167189   5.843   6.699   3.561 -1.8609  0.2942  1.0111
15258TIP3    H267190   5.817   6.737   3.417  0.5953 -1.6001  0.0583
15259TIP3   OH267191   1.541   0.174  12.303 -0.0620 -0.1398 -0.1809
15259TIP3    H167192   1.608   0.174  12.373 -0.5566 -0.7047  0.2940
15259TIP3    H267193   1.459   0.158  12.349 -0.3026 -1.2554 -0.9822
15260TIP3   OH267194   4.684   3.418   5.328  0.3377  0.0018  0.3670
15260TIP3    H167195   4.694   3.405   5.422 -0.4649 -0.5428  0.3822
15260TIP3    H267196   4.593   3.448   5.317 -0.5910 -2.8919 -0.4956
15261TIP3   OH267197   1.218   5.667  15.817 -0.1053  0.8925  0.1307
15261TIP3    H167198   1.173   5.699  15.738  0.0801  1.2631  0.1771
15261TIP3    H267199   1.175   5.713  15.889 -2.6786 -1.9869  0.5779
15262TIP3   OH267200   0.476   3.165  14.889 -0.0029  0.0511  0.1941
15262TIP3    H167201   0.545   3.229  14.870  0.1884 -0.0877  0.4259
15262TIP3    H267202   0.476   3.106  14.813 -0.3618  0.4836 -0.1475
15263TIP3   OH267203   4.813   0.150  11.633  0.8142 -0.6848 -0.3502
15263TIP3    H167204   4.816   0.198  11.716  0.2706 -1.1562 -0.0491
15263TIP3    H267205   4.895   0.172  11.589  1.6687 -1.3963  0.8565
15264TIP3   OH267206   5.956   2.553   3.921  0.0728 -0.4517 -0.2026
15264TIP3    H167207   6.037   2.604   3.920 -0.0251 -0.2781 -2.4872
15264TIP3    H267208   5.960   2.504   4.003  2.0413  0.2527  0.1619
15265TIP3   OH267209   2.930   0.454  11.884  0.3157 -0.0171  0.2422
15265TIP3    H167210   2.929   0.358  11.881 -2.8518 -0.0671  0.8646
15265TIP3    H267211   2.923   0.481  11.792 -1.2414 -0.4330  0.2244
15266TIP3   OH267212   1.950   6.170  11.215 -0.3217 -0.3053 -0.4975
15266TIP3    H167213   1.978   6.136  11.129  0.3467 -0.3491 -0.2648
15266TIP3    H267214   1.965   6.097  11.275  2.0436  0.6936  0.1827
15267TIP3   OH267215   4.500   1.867  14.169  0.3073 -0.0167 -0.2651
15267TIP3    H167216   4.583   1.838  14.130  1.6284  0.7863  1.8849
15267TIP3    H267217   4.506   1.962  14.169 -1.3563  0.1092 -1.5944
15268TIP3   OH267218   0.076   3.900   6.383  0.1008  0.0350  0.0997
15268TIP3    H167219   0.160   3.904   6.338  0.7049 -0.2614  1.1709
15268TIP3    H267220   0.015   3.943   6.324  1.0525  0.4469 -0.5990
15269TIP3   OH267221   1.279   1.856  15.840 -0.1490 -0.4902 -0.3863
15269TIP3    H167222   1.237   1.820  15.918  0.7228 -0.8413 -0.0756
15269TIP3    H267223   1.216   1.920  15.807 -0.6317 -0.5121  0.4638
15270TIP3   OH267224   1.397   4.009  13.577  0.1556 -0.0650 -0.0053
15270TIP3    H167225   1.471   4.062  13.547  2.0752 -1.4675  2.0690
15270TIP3    H267226   1.367   4.052  13.657 -1.0001  0.2427 -0.5965
15271TIP3   OH267227   4.701   0.816  15.383 -0.1901 -0.3663  0.3895
15271TIP3    H167228   4.739   0.758  15.450 -0.8363  0.0471  1.1311
15271TIP3    H267229   4.704   0.903  15.423  1.3958  0.2336 -0.9777
15272TIP3   OH267230   4.020   1.834  16.882  0.1685 -0.1644 -0.5391
15272TIP3    H167231   4.034   1.742  16.906 -0.9598 -0.2458 -0.1360
15272TIP3    H267232   3.949   1.863  16.939  0.8561  1.1172 -0.3109
15273TIP3   OH267233   1.012   1.745  15.598 -0.4747  0.0900 -0.3077
15273TIP3    H167234   1.019   1.741  15.503 -1.3032  2.8047 -0.5070
15273TIP3    H267235   0.935   1.799  15.615  0.0215  0.1577  1.9066
15274TIP3   OH267236   3.539   6.450  16.198  0.1658  0.0669 -0.1212
15274TIP3    H167237   3.605   6.389  16.231  0.1118 -0.2685 -0.6336
15274TIP3    H267238   3.543   6.524  16.258  0.9823  0.0292 -0.1284
15275TIP3   OH267239   0.834   6.457  13.970  0.0857 -0.8264  0.5125
15275TIP3    H167240   0.763   6.491  13.915  0.1137 -0.9728  0.3841
15275TIP3    H267241   0.872   6.535  14.011 -0.8153 -0.8460  1.3925
15276TIP3   OH267242   4.117   2.248   4.788  0.0522 -0.4602 -0.2800
15276TIP3    H167243   4.186   2.285   4.843  0.7462  2.1762 -2.8270
15276TIP3    H267244   4.164   2.187   4.730 -0.1675 -0.6141 -0.2961
15277TIP3   OH267245   0.514   5.188   4.661 -0.4773 -0.1269 -0.0417
15277TIP3    H167246   0.552   5.150   4.582 -0.9628 -1.4851  0.3696
15277TIP3    H267247   0.528   5.283   4.651  0.6631 -0.3915 -1.1102
15278TIP3   OH267248   1.866   6.695  11.404 -0.3846  0.8333  0.1631
15278TIP3    H167249   1.828   6.751  11.336 -0.2127  2.4063  1.3209
15278TIP3    H267250   1.800   6.693  11.473  0.5305  1.4549  1.0747
15279TIP3   OH267251   4.893   1.274  14.340  0.3001  0.4725  0.5305
15279TIP3    H167252   4.904   1.180  14.351  1.4599  0.5031 -0.2226
15279TIP3    H267253   4.805   1.285  14.306  0.3070 -0.3749  0.2324
15280TIP3   OH267254   2.340   3.517  11.436 -0.2759 -0.3961  0.4735
15280TIP3    H167255   2.312   3.608  11.440 -0.0644 -0.3459  0.8022
15280TIP3    H267256   2.357   3.493  11.527 -0.1018 -0.6947  0.3631
15281TIP3   OH267257   3.748   6.508  17.031 -0.1018  0.0060  0.0926
15281TIP3    H167258   3.787   6.421  17.022  0.8054  0.4054  0.1074
15281TIP3    H267259   3.735   6.537  16.941 -0.2762 -0.0885  0.0880
15282TIP3   OH267260   1.702   0.439  15.314 -0.3432  0.1604 -0.0094
15282TIP3    H167261   1.650   0.424  15.393 -0.0429  2.3891  0.6553
15282TIP3    H267262   1.638   0.445  15.243 -0.8909  1.4236  0.5834
15283TIP3   OH267263   6.592   2.171  11.534  0.7629  0.3510 -0.3273
15283TIP3    H167264   6.501   2.195  11.555  0.4157 -0.9455 -0.3027
15283TIP3    H267265   6.636   2.255  11.521 -0.6511  0.9729 -1.2613
15284TIP3   OH267266   0.709   5.455   3.943 -0.6774  0.2964  0.4393
15284TIP3    H167267   0.692   5.468   4.036  0.1733  0.6508  0.5471
15284TIP3    H267268   0.799   5.423   3.939 -1.9390 -3.3962  0.0101
15285TIP3   OH267269   1.833   0.680   5.114 -0.1896  0.1536 -0.2313
15285TIP3    H167270   1.815   0.607   5.173 -1.2853 -1.1048 -2.0632
15285TIP3    H267271   1.746   0.708   5.084  0.2475  1.9114  0.0687
15286TIP3   OH267272   6.359   3.562  13.966  0.0264 -0.2668 -0.2141
15286TIP3    H167273   6.266   3.572  13.946 -0.2028 -1.1773  0.3787
15286TIP3    H267274   6.402   3.564  13.881 -0.5454  0.0101 -0.5006
15287TIP3   OH267275   1.471   0.578   4.684 -0.3557  0.2441 -0.7217
15287TIP3    H167276   1.429   0.598   4.767 -1.4387 -0.4092 -1.0989
15287TIP3    H267277   1.551   0.630   4.684 -1.5483  2.1185 -0.3328
15288TIP3   OH267278   1.702   0.060  13.971  0.1337  0.0745 -0.0284
15288TIP3    H167279   1.619   0.072  13.925 -0.5234 -1.3155  0.7732
15288TIP3    H267280   1.739  -0.020  13.934  0.3381 -0.1993  0.7608
15289TIP3   OH267281   3.878   1.542   4.856  0.0631 -0.3931 -0.4621
15289TIP3    H167282   3.973   1.551   4.849  0.1905  1.6786  2.8410
15289TIP3    H267283   3.846   1.632   4.860 -1.5870 -1.0434  2.8496
15290TIP3   OH267284   6.248   2.486   1.780  0.6081  0.2547 -0.5042
15290TIP3    H167285   6.251   2.441   1.696 -0.7286 -0.9269  0.0741
15290TIP3    H267286   6.155   2.507   1.792  0.8668  0.8537  0.4540
15291TIP3   OH267287   6.298   2.160  13.656 -0.0602 -0.7949  0.2832
15291TIP3    H167288   6.324   2.072  13.685  0.7953 -1.1189 -1.3891
15291TIP3    H267289   6.203   2.161  13.668 -0.0688 -1.9216  0.4040
15292TIP3   OH267290   6.761   5.022  14.035  0.9546 -0.0094 -0.1244
15292TIP3    H167291   6.741   5.075  14.112  0.7760 -0.1728 -0.0555
15292TIP3    H267292   6.730   5.075  13.961  1.6642  0.4066 -0.1255
15293TIP3   OH267293   1.580   0.593   4.131 -0.1071 -0.5084 -0.0353
15293TIP3    H167294   1.585   0.505   4.169 -1.0639 -0.6717 -0.2791
15293TIP3    H267295   1.625   0.649   4.194  1.3367 -1.3175 -0.3304
15294TIP3   OH267296   2.873   2.027   4.103 -0.1926  0.6002 -0.1382
15294TIP3    H167297   2.927   1.984   4.170  1.9110  2.1960 -0.7628
15294TIP3    H267298   2.834   1.954   4.055 -0.1817 -0.5823  1.5615
15295TIP3   OH267299   3.592   6.567  12.046  0.0623 -0.0596  0.1922
15295TIP3    H167300   3.556   6.484  12.075 -0.4831  0.5636  1.3560
15295TIP3    H267301   3.671   6.579  12.098  1.0151 -0.5882 -1.1049
15296TIP3   OH267302   5.310   4.433   6.194  0.2721 -0.1364 -0.1421
15296TIP3    H167303   5.374   4.467   6.257  0.4468 -0.4264 -0.1619
15296TIP3    H267304   5.286   4.347   6.229 -1.9586  0.9831  1.2056
15297TIP3   OH267305   2.595   1.380  13.611 -0.1417 -0.1185 -0.5573
15297TIP3    H167306   2.510   1.362  13.652 -0.3156  1.9614  0.0448
15297TIP3    H267307   2.657   1.377  13.684 -0.3668  2.9614 -0.1565
15298TIP3   OH267308   5.324   5.285  11.473 -0.0733 -0.0283  0.4716
15298TIP3    H167309   5.301   5.368  11.515 -1.5820 -0.4735  0.5367
15298TIP3    H267310   5.420   5.288  11.466 -0.1351  1.8925  0.0972
15299TIP3   OH267311   0.367   1.533   6.380 -0.6417 -0.0112  0.6709
15299TIP3    H167312   0.447   1.540   6.432 -0.3876  1.8004  0.0944
15299TIP3    H267313   0.347   1.440   6.378  0.5005 -0.3023  2.2584
15300TIP3   OH267314   1.669   0.938  16.976  0.4471 -0.9109  0.3046
15300TIP3    H167315   1.743   0.942  16.916  0.3212  1.4816  0.2457
15300TIP3    H267316   1.605   0.999  16.939 -1.0857 -2.0734  0.9804
15301TIP3   OH267317   2.973   6.740   1.588  0.3222 -0.5624  0.4616
15301TIP3    H167318   3.000   6.707   1.502  0.1518 -0.7014  0.4604
15301TIP3    H267319   2.950   6.661   1.637  1.0879 -0.5341  0.8644
15302TIP3   OH267320   0.083   5.552  15.636 -0.0850  0.1410 -0.4515
15302TIP3    H167321   0.172   5.565  15.669  0.3929 -2.0897 -0.7375
15302TIP3    H267322   0.028   5.550  15.714  0.1610  1.1828 -0.2466
15303TIP3   OH267323   4.875   6.106  11.308 -0.7487  0.1091  0.1302
15303TIP3    H167324   4.874   6.025  11.257  1.7208 -1.0921  1.8677
15303TIP3    H267325   4.954   6.152  11.279 -0.0489  0.0426  1.8616
15304TIP3   OH267326   1.839   1.921   4.063 -0.0624  0.6941  0.0085
15304TIP3    H167327   1.752   1.883   4.048 -0.2575 -0.4255  3.4933
15304TIP3    H267328   1.883   1.858   4.121  2.0926  2.5694  0.4884
15305TIP3   OH267329   0.151   2.049   1.194  0.0831  0.7470  0.4357
15305TIP3    H167330   0.139   2.077   1.285 -2.4525  1.0872  0.0360
15305TIP3    H267331   0.077   2.089   1.147  2.0049  1.5753 -2.0049
15306TIP3   OH267332   5.058   0.066   5.704  0.4504 -0.2800 -0.3297
15306TIP3    H167333   4.969   0.102   5.696  0.8107  0.3896 -1.6108
15306TIP3    H267334   5.093   0.106   5.784 -0.6167 -1.0437  0.5301
15307TIP3   OH267335   0.341   1.671  11.545  0.2764 -0.0788  0.7122
15307TIP3    H167336   0.260   1.639  11.584 -1.5026  0.2591 -2.5307
15307TIP3    H267337   0.390   1.591  11.523 -0.6618 -0.3877 -0.2918
15308TIP3   OH267338   5.773   3.030   2.302  0.0349 -0.0405  0.4429
15308TIP3    H167339   5.747   2.960   2.361  0.4824 -1.0763 -0.5713
15308TIP3    H267340   5.812   2.985   2.227 -0.1000  1.2654 -0.4293
15309TIP3   OH267341   4.321   0.433  16.515  0.0813  0.7511  0.1146
15309TIP3    H167342   4.277   0.482  16.446  3.1150  1.5590 -1.3137
15309TIP3    H267343   4.332   0.496  16.586 -0.8474  0.5938  0.4110
15310TIP3   OH267344   2.135   3.495  13.266 -0.3488  0.7075  0.2465
15310TIP3    H167345   2.117   3.562  13.201 -1.3073  0.5491  0.3487
15310TIP3    H267346   2.130   3.413  13.218 -0.1715  0.6440  0.3358
15311TIP3   OH267347   0.567   5.757   5.767  0.4463  0.2477  0.0667
15311TIP3    H167348   0.525   5.794   5.689 -0.0475  2.8975  1.5384
15311TIP3    H267349   0.657   5.789   5.763  1.6249 -3.0026 -1.5217
15312TIP3   OH267350   1.002   6.361  14.325  1.0851  0.2338 -0.2597
15312TIP3    H167351   0.916   6.324  14.306  1.0813 -0.0475  0.2959
15312TIP3    H267352   1.062   6.314  14.267  1.1390 -0.9400  0.7267
15313TIP3   OH267353   5.002   2.958  14.542 -0.2186  0.1213  0.0748
15313TIP3    H167354   5.064   3.006  14.487  0.2315 -0.6327 -0.0751
15313TIP3    H267355   4.944   2.913  14.481 -0.7874  0.6566  0.2138
15314TIP3   OH267356   4.857   3.780  14.729 -0.4602  0.7693  0.0470
15314TIP3    H167357   4.886   3.758  14.818 -0.2442 -1.0631 -0.4687
15314TIP3    H267358   4.876   3.874  14.721  1.0145  0.6150  1.3777
15315TIP3   OH267359   0.661   6.356  15.412 -0.1146 -0.4404 -0.3953
15315TIP3    H167360   0.725   6.347  15.483  0.3656  2.0806 -0.4637
15315TIP3    H267361   0.666   6.272  15.365  0.0523 -1.8986  2.1059
15316TIP3   OH267362   3.532   4.445  11.710  0.2453 -0.1080 -0.0886
15316TIP3    H167363   3.608   4.469  11.658  0.0632 -0.4348 -0.5049
15316TIP3    H267364   3.461   4.499  11.675 -0.0569 -0.9036 -0.7077
15317TIP3   OH267365   5.380   4.614   3.422 -0.0906  0.8493 -0.6342
15317TIP3    H167366   5.446   4.663   3.471 -0.7110 -0.0886  1.1836
15317TIP3    H267367   5.418   4.526   3.411 -0.9226  0.3753  0.2163
15318TIP3   OH267368   4.217   3.434  12.701  0.1351 -0.1505 -0.0124
15318TIP3    H167369   4.177   3.367  12.646 -0.3114  0.1925 -0.1018
15318TIP3    H267370   4.286   3.472  12.647 -1.7576  1.7386 -1.1595
15319TIP3   OH267371   6.309   1.566   5.571 -0.8519 -0.8383 -0.1664
15319TIP3    H167372   6.342   1.613   5.495 -0.2403 -0.7857  0.1358
15319TIP3    H267373   6.299   1.633   5.639  0.1247 -1.1561  0.2987
15320TIP3   OH267374   2.107   5.088  11.911 -0.0208 -0.4508 -0.4951
15320TIP3    H167375   2.187   5.140  11.904  0.1664 -0.7177 -0.2986
15320TIP3    H267376   2.058   5.129  11.983 -0.2576 -0.0226 -0.8943
15321TIP3   OH267377   1.546   3.553  14.231 -0.1290  0.1901  0.4561
15321TIP3    H167378   1.497   3.587  14.306 -0.6590  0.7070 -0.1265
15321TIP3    H267379   1.551   3.626  14.169  0.1686 -0.2803 -0.0871
15322TIP3   OH267380   0.542   0.061   0.260  0.1505 -0.3422  0.0887
15322TIP3    H167381   0.455   0.100   0.257 -0.0878 -0.8351  0.5231
15322TIP3    H267382   0.527  -0.032   0.241  0.4066 -0.6935  1.5349
15323TIP3   OH267383   4.326   1.830   0.403 -0.1759  0.0066 -0.0104
15323TIP3    H167384   4.388   1.759   0.421 -0.0000  0.3521  0.7559
15323TIP3    H267385   4.243   1.785   0.386 -0.3190 -0.3520  1.5372
15324TIP3   OH267386   3.898   3.811   1.525  0.4873  0.6257 -0.5484
15324TIP3    H167387   3.980   3.766   1.506 -0.2819 -1.6475  1.2178
15324TIP3    H267388   3.889   3.805   1.621 -0.8781  2.3616 -0.5395
15325TIP3   OH267389   6.214   0.155  16.439  0.7395  0.3475 -0.9774
15325TIP3    H167390   6.228   0.095  16.513  0.2053  1.8387  0.3705
15325TIP3    H267391   6.119   0.168  16.437  0.8264  0.9305 -1.4149
15326TIP3   OH267392   2.786   5.717  13.687 -0.0456  0.2772 -0.3441
15326TIP3    H167393   2.828   5.662  13.620 -4.7294 -2.8688 -0.9790
15326TIP3    H267394   2.743   5.786  13.637 -0.8890 -0.2290 -0.3325
15327TIP3   OH267395   1.737   3.847   4.607  0.4302  0.1749 -0.1582
15327TIP3    H167396   1.814   3.903   4.610  0.7318  0.0178 -3.3375
15327TIP3    H267397   1.772   3.758   4.601 -0.0511 -0.2581  2.6482
15328TIP3   OH267398   3.205   2.053  12.275  0.1580 -0.5811  0.0298
15328TIP3    H167399   3.212   2.033  12.182  3.2130  1.4164 -0.2554
15328TIP3    H267400   3.168   2.142  12.278 -0.3656 -0.8152  0.7480
15329TIP3   OH267401   4.594   2.417   1.781  0.3170  0.2235 -0.8316
15329TIP3    H167402   4.642   2.336   1.794 -3.5990 -2.2018 -0.6807
15329TIP3    H267403   4.567   2.444   1.869  1.7667  1.8669 -0.8545
15330TIP3   OH267404   4.954   0.032  12.579  0.0325 -0.0714  0.0202
15330TIP3    H167405   4.920   0.095  12.515  1.5650 -0.0333 -0.7680
15330TIP3    H267406   5.027   0.077  12.620  0.5188 -0.9786  0.1516
15331TIP3   OH267407   3.245   0.156  14.992  0.5862 -0.9889  0.1747
15331TIP3    H167408   3.225   0.080  14.937 -1.6924 -0.8020  0.6968
15331TIP3    H267409   3.161   0.201  15.002  2.0020  1.9533 -0.6259
15332TIP3   OH267410   1.014   0.038   3.663  0.1415  0.6671 -0.0011
15332TIP3    H167411   1.009   0.068   3.572 -0.5424  3.9612  1.0586
15332TIP3    H267412   1.097   0.073   3.695 -0.0349  0.2745  0.8861
15333TIP3   OH267413   0.430   3.281  12.517  0.7488 -0.3520  0.0720
15333TIP3    H167414   0.395   3.311  12.433  0.8523 -2.1525 -0.6283
15333TIP3    H267415   0.522   3.309  12.516  1.0464 -1.3228 -0.9001
15334TIP3   OH267416   3.695   3.836   6.052 -0.1354  0.1709 -0.4381
15334TIP3    H167417   3.605   3.811   6.075  0.0217 -0.2496 -0.2747
15334TIP3    H267418   3.692   3.932   6.045 -1.0500  0.0186 -2.3916
15335TIP3   OH267419   1.086   2.147   5.403 -0.0208 -0.0862 -0.0688
15335TIP3    H167420   1.029   2.096   5.460 -1.0243  0.2143 -0.7991
15335TIP3    H267421   1.155   2.086   5.377 -0.4312 -0.6665  0.1947
15336TIP3   OH267422   5.341   2.557  15.629 -0.5243 -0.0606 -0.1636
15336TIP3    H167423   5.285   2.634  15.620  0.2626  0.6256  0.7129
15336TIP3    H267424   5.319   2.522  15.716 -1.3125 -1.1819 -0.8003
15337TIP3   OH267425   1.310   5.637   4.954 -0.5655  0.0313 -0.1513
15337TIP3    H167426   1.295   5.727   4.984  0.7104 -0.3348  1.6281
15337TIP3    H267427   1.231   5.590   4.978 -0.4286  0.2347  0.6987
15338TIP3   OH267428   4.294   0.896   3.251 -0.5773 -0.4840 -0.5919
15338TIP3    H167429   4.277   0.851   3.334 -0.5902 -1.1110 -0.9316
15338TIP3    H267430   4.240   0.974   3.255 -0.9590 -0.7639 -0.2169
15339TIP3   OH267431   2.493   1.355   5.686 -0.3588  0.1824 -0.1852
15339TIP3    H167432   2.535   1.440   5.688  0.8129 -0.4019  0.4347
15339TIP3    H267433   2.559   1.296   5.650 -1.5001 -0.2942 -1.5941
15340TIP3   OH267434   2.521   4.533   0.606 -0.9035 -0.4484  0.3514
15340TIP3    H167435   2.535   4.449   0.649 -1.2073 -0.1729  0.9912
15340TIP3    H267436   2.485   4.511   0.520 -1.2783 -0.9620  0.6403
15341TIP3   OH267437   2.636   6.019  17.003 -0.6622 -0.0028 -0.1740
15341TIP3    H167438   2.681   6.037  17.086 -0.1782 -0.0253 -0.4281
15341TIP3    H267439   2.680   5.941  16.968  0.4171  1.0972 -1.3591
15342TIP3   OH267440   5.992   6.752  13.875  0.1308  0.1943 -0.1249
15342TIP3    H167441   6.014   6.820  13.938 -1.6014  1.5299 -0.8844
15342TIP3    H267442   6.051   6.767  13.801  1.0021 -0.2949  0.4725
15343TIP3   OH267443   2.532   6.280  17.043 -0.2219  0.1300 -0.1215
15343TIP3    H167444   2.514   6.194  17.004  0.2668 -0.1531  0.2728
15343TIP3    H267445   2.536   6.263  17.137 -0.7272  0.6942  0.0028
15344TIP3   OH267446   0.745   2.306   0.425  0.0021 -0.4784  0.4690
15344TIP3    H167447   0.704   2.371   0.369 -0.0913 -0.3632  0.6707
15344TIP3    H267448   0.682   2.234   0.428  0.1899 -0.6606  0.0904
15345TIP3   OH267449   5.778   5.841  16.596  0.2441 -0.2705 -0.3017
15345TIP3    H167450   5.832   5.836  16.675 -0.3891  0.3796  0.1838
15345TIP3    H267451   5.695   5.799  16.622 -0.6705  1.6900 -0.0090
15346TIP3   OH267452   6.476   6.656  13.424 -0.0558  0.2986  0.8209
15346TIP3    H167453   6.546   6.609  13.379 -0.5778 -1.4198  1.7562
15346TIP3    H267454   6.517   6.690  13.504  0.1795  0.9490  0.4267
15347TIP3   OH267455   6.321   0.789  12.825 -0.0250  0.5041 -0.2099
15347TIP3    H167456   6.306   0.703  12.863  3.1850  0.2832  0.6675
15347TIP3    H267457   6.333   0.773  12.732  0.1384  0.0582 -0.1120
15348TIP3   OH267458   3.485   6.187  15.298  0.0843 -0.3162 -0.1153
15348TIP3    H167459   3.429   6.258  15.328  0.3897  0.3561 -1.1162
15348TIP3    H267460   3.549   6.175  15.369 -1.7301 -1.5834  1.3702
15349TIP3   OH267461   0.310   2.639  11.260 -0.2314  0.2806  0.0431
15349TIP3    H167462   0.238   2.646  11.322  0.0365  1.3505  0.2357
15349TIP3    H267463   0.388   2.655  11.312  0.4237 -3.7635  0.4402
15350TIP3   OH267464   1.548   1.809   5.327 -0.8481 -0.0239  0.4027
15350TIP3    H167465   1.590   1.826   5.242  1.6314 -0.6492  1.4452
15350TIP3    H267466   1.547   1.894   5.370 -1.4141  0.1474  0.0604
15351TIP3   OH267467   1.112   3.083  11.397  0.1377  0.1835 -0.0474
15351TIP3    H167468   1.096   3.011  11.458 -0.6427  1.6527  1.5140
15351TIP3    H267469   1.207   3.095  11.398  0.1437  0.0718  0.7192
15352TIP3   OH267470   1.417   6.120   5.985  0.1393  0.3379 -0.4948
15352TIP3    H167471   1.452   6.031   5.992 -0.6555  0.0312 -0.3504
15352TIP3    H267472   1.332   6.109   5.941 -0.1293  0.9845 -0.1471
15353TIP3   OH267473   4.912   5.972  15.673 -0.0217  0.8322 -0.1580
15353TIP3    H167474   5.002   5.992  15.645 -0.2883  1.7119 -0.3809
15353TIP3    H267475   4.861   6.049  15.649 -0.7935  0.4432  0.2125
15354TIP3   OH267476   3.901   0.726  16.164 -0.2461  0.5508  0.0290
15354TIP3    H167477   3.980   0.755  16.119 -1.4677  0.8784 -1.9538
15354TIP3    H267478   3.887   0.790  16.233  0.3025  1.4227 -0.6625
15355TIP3   OH267479   4.649   6.126   6.249 -0.0876  0.3054  1.0118
15355TIP3    H167480   4.559   6.099   6.230 -0.0523  1.4706 -1.0269
15355TIP3    H267481   4.692   6.047   6.280 -1.0981 -0.9515 -0.6884
15356TIP3   OH267482   6.745   4.235  12.399  0.1363 -0.0888  0.1023
15356TIP3    H167483   6.772   4.240  12.307  0.4682  0.9680  0.2489
15356TIP3    H267484   6.756   4.142  12.422  0.7925 -0.2214 -0.7076
15357TIP3   OH267485   6.577   3.475   3.688  0.3193  0.3063  0.6268
15357TIP3    H167486   6.641   3.521   3.634 -0.0624 -0.6148 -0.6427
15357TIP3    H267487   6.614   3.387   3.700  0.1081  0.3156  1.3341
15358TIP3   OH267488   0.536   4.353   2.837  0.0447 -0.1325  0.2514
15358TIP3    H167489   0.524   4.261   2.811 -1.7586 -0.2283  1.4054
15358TIP3    H267490   0.630   4.360   2.854  0.5650 -1.1952 -1.9428
15359TIP3   OH267491   3.552   6.137  12.315  0.0630  0.2042 -0.6911
15359TIP3    H167492   3.470   6.092  12.334  0.2751 -0.1801 -0.6714
15359TIP3    H267493   3.608   6.119  12.390  0.1665  0.4680 -0.7029
15360TIP3   OH267494   5.983   5.827   2.424 -0.3997 -1.1077 -0.1359
15360TIP3    H167495   5.985   5.737   2.458 -1.7407 -0.7230  1.0060
15360TIP3    H267496   5.891   5.840   2.398 -0.6623  0.5865  1.5425
15361TIP3   OH267497   4.614   0.331   1.006 -0.3042 -0.0805 -0.0963
15361TIP3    H167498   4.582   0.283   1.082  1.5800 -0.6324  0.3874
15361TIP3    H267499   4.548   0.317   0.939 -1.8594  0.1752  1.3430
15362TIP3   OH267500   3.671   6.263  14.235 -0.3272  0.0043  0.1920
15362TIP3    H167501   3.763   6.240  14.247  0.0961  0.7123 -1.5722
15362TIP3    H267502   3.665   6.353  14.266 -0.0665  0.5089 -1.1944
15363TIP3   OH267503   5.439   6.508  13.069 -0.9463  0.2562  0.0779
15363TIP3    H167504   5.399   6.545  13.147 -0.5481 -1.7091  1.2508
15363TIP3    H267505   5.378   6.527  12.998 -1.7030  1.3295  1.0140
15364TIP3   OH267506   6.163   5.574   2.353 -0.4014  0.1191  0.1408
15364TIP3    H167507   6.204   5.599   2.436  0.2982 -2.5957  0.6428
15364TIP3    H267508   6.235   5.545   2.298 -1.1894 -0.8722 -0.3881
15365TIP3   OH267509   1.810   2.604   5.749 -0.5389 -0.3669  0.3814
15365TIP3    H167510   1.815   2.692   5.786 -0.3533 -0.6693  1.0868
15365TIP3    H267511   1.743   2.610   5.681  1.5084  1.0264 -1.5488
15366TIP3   OH267512   5.288   0.383  14.186  0.1152 -0.3034  0.3591
15366TIP3    H167513   5.253   0.369  14.098  0.4153  0.7920  0.0635
15366TIP3    H267514   5.362   0.322  14.192 -0.2991 -0.8375  0.0873
15367TIP3   OH267515   2.390   1.649   3.998 -0.0707 -0.0659  0.1211
15367TIP3    H167516   2.475   1.672   3.959  1.0759 -1.7068  1.5450
15367TIP3    H267517   2.342   1.608   3.927  0.1443  1.2900 -0.8287
15368TIP3   OH267518   6.581   5.873  14.151  0.5107  0.5042 -0.0244
15368TIP3    H167519   6.499   5.895  14.195  0.8752 -0.3298  1.1023
15368TIP3    H267520   6.649   5.899  14.214  1.1369  1.6773 -1.1594
15369TIP3   OH267521   0.206   5.200  14.702  0.5013 -0.2709  0.3092
15369TIP3    H167522   0.116   5.174  14.725  0.6454 -1.4928 -0.4519
15369TIP3    H267523   0.196   5.283  14.656 -0.1082  0.3426  1.5432
15370TIP3   OH267524   1.793   1.680  11.872  0.5063 -0.0483  0.1290
15370TIP3    H167525   1.781   1.775  11.877 -0.6266 -0.1960  0.4011
15370TIP3    H267526   1.763   1.658  11.783 -1.7690 -0.4752  0.9536
15371TIP3   OH267527   4.626   2.892  11.839 -0.1601  0.3028  0.0896
15371TIP3    H167528   4.691   2.963  11.833 -0.2608  0.4209  0.3854
15371TIP3    H267529   4.649   2.846  11.920  0.5021 -0.5964 -0.5900
15372TIP3   OH267530   6.126   3.158  14.031 -0.2274  0.2376 -0.0996
15372TIP3    H167531   6.122   3.244  14.074  1.0958 -1.1117  2.8858
15372TIP3    H267532   6.216   3.153  13.998  0.5046 -0.9880  1.9959
15373TIP3   OH267533   2.741   5.769  12.968  0.4355 -0.0670  0.3774
15373TIP3    H167534   2.713   5.680  12.991  1.7089  0.1453  2.9094
15373TIP3    H267535   2.806   5.756  12.899  0.8272 -1.1237  0.9290
15374TIP3   OH267536   4.837   1.347  12.688  0.2018 -0.1898 -0.1934
15374TIP3    H167537   4.882   1.266  12.710  1.2405  0.1678 -0.9124
15374TIP3    H267538   4.895   1.416  12.722  0.4509  0.2919 -1.5669
15375TIP3   OH267539   5.800   0.013  14.068 -0.0344 -0.2432  0.2476
15375TIP3    H167540   5.850  -0.029  13.998 -0.4201  1.1390 -0.8828
15375TIP3    H267541   5.865   0.062  14.117 -0.1944  1.2553 -1.0001
15376TIP3   OH267542   1.379   5.548   2.734 -0.3225  0.0160 -0.4315
15376TIP3    H167543   1.458   5.494   2.744  0.0444  0.6193 -0.0534
15376TIP3    H267544   1.329   5.504   2.666  1.5434  1.0311 -2.5291
15377TIP3   OH267545   1.925   2.236  16.748  0.1261  0.4416  0.1157
15377TIP3    H167546   1.922   2.249  16.654  0.0263 -0.8419 -0.0749
15377TIP3    H267547   1.950   2.321  16.784 -0.6768  1.1646 -1.0011
15378TIP3   OH267548   1.555   0.885   2.757  0.0968  0.1406 -0.0976
15378TIP3    H167549   1.489   0.868   2.824  1.0719 -0.7820  0.6542
15378TIP3    H267550   1.529   0.968   2.718 -1.3750 -0.0938  0.3372
15379TIP3   OH267551   3.452   3.033   2.226 -0.2571 -0.4226 -0.1679
15379TIP3    H167552   3.513   2.958   2.228  1.2243  0.7066 -1.4673
15379TIP3    H267553   3.455   3.064   2.135 -2.8985 -0.4032 -0.2895
15380TIP3   OH267554   4.020   1.876  15.884  0.0109  0.2505 -0.0723
15380TIP3    H167555   4.110   1.908  15.895  0.8333 -1.6743 -0.9055
15380TIP3    H267556   3.996   1.900  15.795 -0.3013  0.7475  0.1432
15381TIP3   OH267557   2.918   1.932  12.724  0.4745  0.4426 -0.1708
15381TIP3    H167558   2.952   1.845  12.703 -0.7734 -0.2766  0.7438
15381TIP3    H267559   2.932   1.940  12.818  3.2861  2.4363 -0.6948
15382TIP3   OH267560   5.625   4.572   4.581  0.8882 -0.2850  0.0816
15382TIP3    H167561   5.636   4.515   4.658  1.4267 -1.7144 -1.0285
15382TIP3    H267562   5.530   4.571   4.565  0.7953 -0.1383  0.6268
15383TIP3   OH267563   0.153   6.213   0.907 -0.2013  0.0861  0.4964
15383TIP3    H167564   0.229   6.212   0.966  0.5366 -0.2924 -0.4276
15383TIP3    H267565   0.085   6.260   0.955  0.2118 -0.6705  1.8482
15384TIP3   OH267566   3.030   0.681  15.150  0.2225  0.0301  0.3153
15384TIP3    H167567   2.995   0.639  15.072  2.3792  1.4404 -1.4968
15384TIP3    H267568   2.961   0.672  15.216 -2.4889  0.5560 -2.3333
15385TIP3   OH267569   1.056   2.882  16.095 -0.1118 -0.0327  0.3228
15385TIP3    H167570   0.996   2.835  16.152  0.3945 -1.7500 -0.5245
15385TIP3    H267571   1.006   2.956  16.062 -0.7738  0.3171  2.0605
15386TIP3   OH267572   5.840   2.465   1.128 -0.3011 -0.2353 -0.3872
15386TIP3    H167573   5.765   2.488   1.182  0.3422  0.7902  0.1020
15386TIP3    H267574   5.823   2.508   1.044 -0.2958 -0.0349 -0.2882
15387TIP3   OH267575   3.802   2.633   4.181 -0.1711  0.5395 -0.2137
15387TIP3    H167576   3.886   2.610   4.141 -0.1260  2.2612 -1.1560
15387TIP3    H267577   3.809   2.601   4.271  0.9113 -0.6546 -0.7045
15388TIP3   OH267578   2.498   6.153  14.969 -0.0605  0.5759 -1.0584
15388TIP3    H167579   2.531   6.079  14.918 -0.2206  1.7083 -2.8278
15388TIP3    H267580   2.409   6.166  14.938 -1.3000 -0.7416  1.7957
15389TIP3   OH267581   2.723   3.999  10.700 -0.3706 -0.5891 -0.3408
15389TIP3    H167582   2.736   3.958  10.785 -0.7920  0.7696  0.3862
15389TIP3    H267583   2.790   3.960  10.644  0.1751 -1.1734  0.7109
15390TIP3   OH267584   1.067   1.930  11.024  0.4813 -0.1290 -0.1019
15390TIP3    H167585   1.039   1.883  11.103  2.1454  1.0239  1.2127
15390TIP3    H267586   1.151   1.890  11.001  0.4583  0.1915 -0.7489
15391TIP3   OH267587   5.509   2.329  16.990 -0.0183  0.3636  0.4294
15391TIP3    H167588   5.581   2.272  16.964 -0.0683  0.8883 -0.8789
15391TIP3    H267589   5.476   2.289  17.071  0.2473 -1.2035 -0.2056
15392TIP3   OH267590   4.861   6.074  13.849 -0.1668  0.4143 -0.1281
15392TIP3    H167591   4.783   6.130  13.852 -1.5876 -1.2735 -2.7546
15392TIP3    H267592   4.891   6.081  13.759  0.6279 -1.7044 -0.0434
15393TIP3   OH267593   0.450   5.115   2.136 -0.0219  0.1366 -0.3633
15393TIP3    H167594   0.473   5.119   2.043 -0.6028  0.7148 -0.4845
15393TIP3    H267595   0.411   5.200   2.155  0.3504  0.1219  0.4840
15394TIP3   OH267596   4.125   1.263   3.910  0.0367 -0.0964 -0.0976
15394TIP3    H167597   4.082   1.307   3.837  1.0951  1.5132  0.2282
15394TIP3    H267598   4.070   1.282   3.986  0.0907  0.0493 -0.0944
15395TIP3   OH267599   2.604   6.502  14.904 -0.2444 -0.1144  0.5171
15395TIP3    H167600   2.608   6.434  14.836 -1.5242 -0.3096  0.6257
15395TIP3    H267601   2.665   6.472  14.972  0.3107 -0.4010 -0.0952
15396TIP3   OH267602   5.625   2.679   3.738 -0.1698 -0.0371  0.0806
15396TIP3    H167603   5.586   2.757   3.777 -0.6944 -0.4651  0.4224
15396TIP3    H267604   5.556   2.643   3.682  0.4652  0.4007 -1.0127
15397TIP3   OH267605   5.395   6.632  11.845 -0.2227  0.3663 -0.0761
15397TIP3    H167606   5.324   6.694  11.829 -1.0993 -0.4711  0.5300
15397TIP3    H267607   5.475   6.680  11.822 -0.9448  1.4749 -0.2797
15398TIP3   OH267608   4.743   5.786  15.761 -0.3011  0.2471  0.0524
15398TIP3    H167609   4.775   5.739  15.838  1.0386  0.1972 -0.5133
15398TIP3    H267610   4.816   5.843  15.736 -0.3289 -0.4716 -1.7575
15399TIP3   OH267611   4.937   5.405  15.642  0.8621  0.0711  0.5049
15399TIP3    H167612   4.918   5.360  15.724 -2.8485  0.5433 -0.0356
15399TIP3    H267613   4.951   5.334  15.579  0.2686 -0.2897  0.7754
15400TIP3   OH267614   4.965   1.269  15.622 -0.0488  0.4138  0.4129
15400TIP3    H167615   4.942   1.303  15.536 -0.6904  2.3106  1.3137
15400TIP3    H267616   5.054   1.235  15.611 -0.4376 -0.1579 -1.1906
15401TIP3   OH267617   3.527   3.169   1.967 -0.0797 -0.6388  0.1974
15401TIP3    H167618   3.619   3.156   1.944  0.7809 -0.9105  3.5161
15401TIP3    H267619   3.516   3.264   1.968 -0.0540 -0.6147 -0.9071
15402TIP3   OH267620   4.290   3.343  15.208 -0.3039 -0.3028  0.1243
15402TIP3    H167621   4.315   3.401  15.136 -1.8112 -0.1646 -0.2945
15402TIP3    H267622   4.283   3.256  15.168  0.0559 -0.4511  0.3692
15403TIP3   OH267623   5.325   4.152  16.058  0.3820 -0.3315  0.2666
15403TIP3    H167624   5.273   4.206  15.999 -0.4069 -0.3779  0.9063
15403TIP3    H267625   5.318   4.064  16.022  0.3580 -0.2716  0.1221
15404TIP3   OH267626   3.067   2.915  13.443 -0.2402 -0.1597 -0.2429
15404TIP3    H167627   3.077   3.010  13.447 -1.7885  0.1227 -2.2372
15404TIP3    H267628   2.984   2.898  13.486 -0.6772 -0.4668 -1.2142
15405TIP3   OH267629   1.102   4.157   2.542 -0.1901  0.1892 -0.8094
15405TIP3    H167630   1.153   4.224   2.496  0.8898  0.1400  0.2763
15405TIP3    H267631   1.136   4.074   2.507  0.1788  0.1658 -0.3997
15406TIP3   OH267632   5.043   6.248  15.420  0.3689 -0.0563  0.0638
15406TIP3    H167633   5.071   6.167  15.377  0.3824  1.0361 -2.0632
15406TIP3    H267634   4.961   6.225  15.463 -0.3875 -0.8458 -1.7548
15407TIP3   OH267635   2.966   5.968   1.296  0.0488  0.3853  0.2042
15407TIP3    H167636   3.044   6.017   1.323 -0.0242  0.4613  0.2804
15407TIP3    H267637   2.995   5.915   1.222  0.5563 -0.7519  1.2098
15408TIP3   OH267638   0.352   0.362  15.005 -0.3714  0.2438  0.2075
15408TIP3    H167639   0.405   0.385  14.929 -1.1060 -1.3128 -0.8107
15408TIP3    H267640   0.262   0.377  14.978 -0.6519 -0.4827  0.7070
15409TIP3   OH267641   0.463   6.492  14.030  0.4535 -0.1813 -0.4762
15409TIP3    H167642   0.520   6.475  13.955  0.3233  1.1230 -0.8743
15409TIP3    H267643   0.503   6.566  14.075  0.2079 -0.5821  0.4172
15410TIP3   OH267644   4.530   3.774  12.738  0.1187  0.3028  0.0865
15410TIP3    H167645   4.591   3.781  12.811  0.6678 -0.1022 -0.3345
15410TIP3    H267646   4.466   3.844  12.754  0.7734  0.8228  0.4467
15411TIP3   OH267647   0.159   0.594  12.589  0.0997  0.0936 -0.4637
15411TIP3    H167648   0.189   0.541  12.663 -2.9786  3.5149  3.5225
15411TIP3    H267649   0.076   0.554  12.563 -0.4002  0.7380  0.1093
15412TIP3   OH267650   2.668   6.355   6.219  0.1123 -0.1404  0.2247
15412TIP3    H167651   2.734   6.425   6.224 -0.5627  0.4562  0.8828
15412TIP3    H267652   2.718   6.275   6.231  0.8220  0.2666  0.0248
15413TIP3   OH267653   6.679   6.490   3.517  0.4582 -0.0581  0.2143
15413TIP3    H167654   6.683   6.427   3.445  0.1927  1.4524 -1.1639
15413TIP3    H267655   6.617   6.556   3.487  0.6368  0.7887  1.6859
15414TIP3   OH267656   2.630   0.630   2.658 -0.2441  0.6658  0.2044
15414TIP3    H167657   2.534   0.640   2.655 -0.4566 -1.5133 -1.0962
15414TIP3    H267658   2.653   0.597   2.571  1.3376 -1.5813  1.4338
15415TIP3   OH267659   5.747   3.861   0.177  0.0358  0.1391 -0.2229
15415TIP3    H167660   5.678   3.924   0.154  0.2237 -0.0237 -1.2530
15415TIP3    H267661   5.720   3.780   0.134  0.1470 -0.3067  0.5429
15416TIP3   OH267662   0.991   4.471   0.585  0.1406  0.8484  0.4639
15416TIP3    H167663   1.039   4.508   0.511 -0.4752  0.7404 -0.0021
15416TIP3    H267664   1.033   4.507   0.662  0.9898  0.7247  0.0625
15417TIP3   OH267665   4.201   4.030  11.536  0.2500  0.0582  0.3760
15417TIP3    H167666   4.279   4.079  11.509 -0.5064  0.6355 -0.8011
15417TIP3    H267667   4.211   4.019  11.631  1.9971 -0.3019  0.1698
15418TIP3   OH267668   2.336   0.861   4.188 -0.2940  0.0044  0.0705
15418TIP3    H167669   2.408   0.799   4.200 -0.7249 -0.9033 -1.8261
15418TIP3    H267670   2.269   0.834   4.251  0.3596 -0.1472  0.7034
15419TIP3   OH267671   5.866   0.737  14.250  0.2917 -0.2037  0.2724
15419TIP3    H167672   5.927   0.791  14.199  1.3214 -0.2643  1.4045
15419TIP3    H267673   5.864   0.654  14.203  1.0277 -0.1738  0.1679
15420TIP3   OH267674   5.373   2.817   2.675 -0.0012  0.6804 -0.3304
15420TIP3    H167675   5.398   2.891   2.731 -2.6858  1.6863 -0.4160
15420TIP3    H267676   5.336   2.752   2.735 -1.4597  1.1261 -0.7303
15421TIP3   OH267677   6.537   1.631   2.803  0.2384 -0.6294 -0.1946
15421TIP3    H167678   6.509   1.540   2.806  1.8496 -1.1683 -0.5422
15421TIP3    H267679   6.487   1.675   2.872  0.2535 -2.0171  0.7149
15422TIP3   OH267680   0.323   3.005  15.921  0.1387  0.1525  0.0468
15422TIP3    H167681   0.414   3.028  15.903 -0.0641  0.5194 -0.5285
15422TIP3    H267682   0.328   2.927  15.977  0.8184  1.4417  1.8071
15423TIP3   OH267683   5.197   2.767  12.950 -0.6680 -0.2079  0.2182
15423TIP3    H167684   5.187   2.791  12.858 -1.9059  0.7849  0.6004
15423TIP3    H267685   5.257   2.832  12.986  1.6700 -1.9505 -0.3943
15424TIP3   OH267686   1.787   2.685  11.362  0.3870 -0.4374  0.3576
15424TIP3    H167687   1.752   2.687  11.451  1.7459 -1.1009  0.9095
15424TIP3    H267688   1.844   2.761  11.357 -0.1986 -0.0271 -0.1673
15425TIP3   OH267689   2.651   6.369   1.409 -0.3701 -0.0165  0.1342
15425TIP3    H167690   2.681   6.367   1.318  0.3666 -0.0030  0.3691
15425TIP3    H267691   2.663   6.460   1.437 -3.6719  0.7347 -0.7390
15426TIP3   OH267692   6.664   3.208   4.140  0.3564 -0.0808  0.3792
15426TIP3    H167693   6.687   3.260   4.217 -1.6187 -0.1318  1.0340
15426TIP3    H267694   6.612   3.268   4.085  0.3696 -0.5443 -0.1452
15427TIP3   OH267695   1.660   5.016   2.723  0.0208 -0.2541  0.3364
15427TIP3    H167696   1.700   4.986   2.642 -0.1730  0.6179 -0.0895
15427TIP3    H267697   1.646   5.110   2.709 -1.1799 -0.3502  0.8890
15428TIP3   OH267698   1.642   1.868   2.438 -0.1875 -0.3168 -0.0817
15428TIP3    H167699   1.584   1.934   2.401  1.1603  1.0330  0.1896
15428TIP3    H267700   1.632   1.876   2.533 -1.2010 -1.5879 -0.0601
15429TIP3   OH267701   4.453   5.359   1.371 -0.4203  0.2519 -0.1117
15429TIP3    H167702   4.414   5.325   1.291  1.3015  0.5362 -1.1056
15429TIP3    H267703   4.536   5.311   1.380 -0.4630  0.4169  1.3447
15430TIP3   OH267704   1.230   1.311  10.568  0.3476  0.0597 -0.4745
15430TIP3    H167705   1.192   1.371  10.504 -0.1193  0.3282  0.0597
15430TIP3    H267706   1.164   1.242  10.578  1.5350 -1.4252 -2.2932
15431TIP3   OH267707   0.020   5.172  12.550 -0.8761 -0.6730  0.0878
15431TIP3    H167708  -0.017   5.102  12.496 -2.0032 -1.4359  1.7760
15431TIP3    H267709  -0.022   5.252  12.519 -1.2518 -1.0585 -0.3908
15432TIP3   OH267710   2.345   6.188   1.560  0.0083 -0.4785 -0.5960
15432TIP3    H167711   2.375   6.100   1.583  0.3692  0.5158  3.0342
15432TIP3    H267712   2.257   6.175   1.524  0.2191 -2.3389 -0.4877
15433TIP3   OH267713   0.958   4.930  12.464 -0.5388  0.2177  0.1320
15433TIP3    H167714   1.005   5.007  12.431  0.7638 -0.6867 -0.1546
15433TIP3    H267715   1.015   4.896  12.533 -0.0244 -1.7525 -1.2119
15434TIP3   OH267716   1.375   0.255  12.103 -0.2608  0.3673 -0.3911
15434TIP3    H167717   1.429   0.205  12.164 -0.5072  0.5374 -0.0278
15434TIP3    H267718   1.386   0.346  12.130 -0.7802  0.3976 -0.2647
15435TIP3   OH267719   1.374   6.752   2.919 -0.0647 -0.4867 -0.0703
15435TIP3    H167720   1.422   6.827   2.954 -1.6746 -0.5723  2.4736
15435TIP3    H267721   1.422   6.675   2.949  0.8643 -0.5267 -1.5974
15436TIP3   OH267722   1.114   3.217   1.039  0.1259  0.0753  0.2484
15436TIP3    H167723   1.023   3.191   1.026  0.7278 -2.1029  0.2532
15436TIP3    H267724   1.121   3.302   0.995 -2.0971  0.6401  0.9531
15437TIP3   OH267725   0.235   1.690  16.743 -0.0558 -0.4946  0.2116
15437TIP3    H167726   0.268   1.600  16.742 -0.6889 -0.7346 -0.1270
15437TIP3    H267727   0.212   1.706  16.834 -0.5474 -0.9146  0.1686
15438TIP3   OH267728   1.904   4.903   4.863 -0.1431 -0.1908 -0.0778
15438TIP3    H167729   1.978   4.842   4.871  0.1983  0.3165  0.6598
15438TIP3    H267730   1.830   4.855   4.900  0.1250 -0.1736  0.4933
15439TIP3   OH267731   4.445   0.776   4.390  0.6099  0.0893  0.4141
15439TIP3    H167732   4.434   0.685   4.415 -0.9276  0.1278 -0.1469
15439TIP3    H267733   4.494   0.814   4.464  0.3441 -0.9287  1.1269
15440TIP3   OH267734   1.417   5.433  11.109  0.0631 -1.1062  0.2418
15440TIP3    H167735   1.488   5.431  11.045  0.6392 -0.6050  0.8488
15440TIP3    H267736   1.344   5.388  11.066  0.5248 -1.0138 -0.6567
15441TIP3   OH267737   3.951   6.102  12.158  0.4059  0.4106  1.2687
15441TIP3    H167738   3.913   6.155  12.088  1.4611  0.7122  0.9137
15441TIP3    H267739   3.894   6.025  12.164 -1.0863  1.5148  1.7195
15442TIP3   OH267740   3.434   1.599  16.030 -0.1182  0.1351 -0.1303
15442TIP3    H167741   3.386   1.673  16.069 -0.6510  0.1863 -0.8766
15442TIP3    H267742   3.366   1.545  15.990  0.4119  0.0051 -0.8618
15443TIP3   OH267743   0.347   4.605  13.213  0.0883 -0.6228  0.2410
15443TIP3    H167744   0.427   4.638  13.171 -0.1522 -0.2968  0.0377
15443TIP3    H267745   0.278   4.663  13.182 -0.1286 -0.5039  0.9242
15444TIP3   OH267746   4.436   3.052   0.197  0.1047  0.0317 -0.3949
15444TIP3    H167747   4.453   2.958   0.207  1.5700  0.2785 -0.4660
15444TIP3    H267748   4.394   3.060   0.112  0.9319 -0.4581 -0.8603
15445TIP3   OH267749   5.437   4.256  10.804 -0.1806  0.2552  0.0896
15445TIP3    H167750   5.378   4.182  10.791 -2.6278  2.3425 -1.1869
15445TIP3    H267751   5.449   4.293  10.716  1.5152  1.0054  0.6096
15446TIP3   OH267752   5.459   5.307   0.572  0.1246 -0.5888 -0.6533
15446TIP3    H167753   5.371   5.337   0.552 -0.3637 -1.5765 -0.0068
15446TIP3    H267754   5.484   5.254   0.495 -0.6720 -2.0614  0.0815
15447TIP3   OH267755   2.857   5.160   6.151 -0.0938 -0.5999 -0.1532
15447TIP3    H167756   2.847   5.135   6.059  0.1721  0.3892 -0.4632
15447TIP3    H267757   2.843   5.255   6.151 -1.4528 -0.7771  1.0358
15448TIP3   OH267758   0.808   0.748  14.946  0.5871  0.1063 -0.0931
15448TIP3    H167759   0.743   0.815  14.968 -1.6749 -1.2987 -2.2716
15448TIP3    H267760   0.864   0.790  14.882 -0.2148  0.2521 -0.7111
15449TIP3   OH267761   3.559   5.235  15.788 -0.4250  0.3106  0.0058
15449TIP3    H167762   3.592   5.172  15.852  0.6015 -0.0541 -0.8620
15449TIP3    H267763   3.512   5.181  15.724 -0.2268  0.5020 -0.3048
15450TIP3   OH267764   2.038   5.528   3.245 -0.6449  0.2996  0.2837
15450TIP3    H167765   1.977   5.485   3.305 -1.2976  1.8306  0.7553
15450TIP3    H267766   2.115   5.547   3.298 -1.1855  1.5701  0.6378
15451TIP3   OH267767   6.295   1.718  16.283  0.2995  0.6168 -0.0345
15451TIP3    H167768   6.239   1.672  16.220 -0.4502 -0.3218  1.2863
15451TIP3    H267769   6.384   1.694  16.257  0.0967  1.8599 -1.9615
15452TIP3   OH267770   6.223   4.564   0.259 -0.1103  0.0281 -0.4957
15452TIP3    H167771   6.193   4.613   0.336  1.0465 -1.4183  0.8932
15452TIP3    H267772   6.216   4.627   0.187 -1.9848  1.1632  0.6206
15453TIP3   OH267773   5.960   1.641   5.906 -0.3294 -0.0696  0.3529
15453TIP3    H167774   5.910   1.709   5.952  1.2346  1.5217 -0.2349
15453TIP3    H267775   5.931   1.559   5.946 -0.9313  1.0711  2.3356
15454TIP3   OH267776   5.517   6.785   4.569  0.4131  0.4638 -0.3908
15454TIP3    H167777   5.610   6.806   4.571  0.3680  0.6297  0.1887
15454TIP3    H267778   5.479   6.849   4.509  0.1147  2.7645  2.1702
15455TIP3   OH267779   4.636   6.035   2.004  0.1636  0.3193 -0.0988
15455TIP3    H167780   4.608   6.073   2.087 -2.3319 -3.2288  0.7759
15455TIP3    H267781   4.578   6.075   1.938  0.2202  0.9681  0.2392
15456TIP3   OH267782   6.400   6.124  10.986 -0.6251 -0.3535 -0.6131
15456TIP3    H167783   6.438   6.071  10.915 -0.7034  1.5378 -2.0939
15456TIP3    H267784   6.390   6.211  10.948 -1.2611  0.5367  1.5457
15457TIP3   OH267785   4.295   4.531  10.395 -0.3384 -0.2872  0.1486
15457TIP3    H167786   4.357   4.603  10.396 -0.1646 -0.4003 -1.0599
15457TIP3    H267787   4.216   4.566  10.436 -0.9621  1.2735 -2.2758
15458TIP3   OH267788   2.027   0.873  14.415 -0.4945  0.3412  0.0899
15458TIP3    H167789   1.985   0.930  14.479 -0.0073  1.1737 -0.3260
15458TIP3    H267790   2.012   0.784  14.448 -1.8205  0.6743  0.4073
15459TIP3   OH267791   0.916   5.269  12.470  0.4519 -0.0882  0.0695
15459TIP3    H167792   0.919   5.355  12.511 -0.3857  0.3833 -0.8582
15459TIP3    H267793   0.825   5.241  12.480  0.9854 -1.3916  1.4462
15460TIP3   OH267794   0.095   3.062   0.741 -0.8698  0.0202  0.5675
15460TIP3    H167795   0.148   3.021   0.672  1.2377  2.9601  0.3299
15460TIP3    H267796   0.005   3.056   0.709 -0.3089 -1.7462 -0.7948
15461TIP3   OH267797   6.698   5.019   2.893  0.1727  0.2766  0.1087
15461TIP3    H167798   6.681   5.113   2.897  0.3222  0.3327 -0.5859
15461TIP3    H267799   6.791   5.013   2.868 -0.4244 -0.0543 -2.1596
15462TIP3   OH267800   0.007   4.717  16.061 -0.1897 -0.0583 -0.2119
15462TIP3    H167801   0.029   4.750  15.974 -1.0164 -0.7919 -0.7151
15462TIP3    H267802  -0.085   4.691  16.054  0.0084 -1.0135  0.6054
15463TIP3   OH267803   3.822   6.572  15.500  0.0131 -0.2388 -0.7232
15463TIP3    H167804   3.848   6.513  15.571 -0.3080  0.3919 -0.0866
15463TIP3    H267805   3.905   6.601  15.461  0.2811  1.7073  1.2510
15464TIP3   OH267806   2.216   2.105  13.647 -0.3438  0.1569 -0.1266
15464TIP3    H167807   2.257   2.143  13.725  0.0344 -0.1039 -0.1982
15464TIP3    H267808   2.256   2.152  13.574 -3.3386  2.9934 -0.0585
15465TIP3   OH267809   2.271   2.939  16.613  0.4274  0.7323  0.4599
15465TIP3    H167810   2.358   2.964  16.583  0.6202  0.0031  0.3878
15465TIP3    H267811   2.233   3.019  16.647  1.3967  0.9078  1.1371
15466TIP3   OH267812   2.904   4.784  14.227 -0.1421  0.5527  0.0717
15466TIP3    H167813   2.942   4.730  14.296 -0.2782 -0.3790 -0.5829
15466TIP3    H267814   2.866   4.722  14.165 -0.1445  1.3843 -0.7759
15467TIP3   OH267815   6.043   6.733  11.449  0.2881  0.4944 -0.4457
15467TIP3    H167816   6.117   6.674  11.436 -0.8983 -0.7561 -1.6555
15467TIP3    H267817   5.975   6.678  11.490  0.2669  1.8081  1.3540
15468TIP3   OH267818   4.489   5.909   0.343  0.7332 -0.2639 -0.5557
15468TIP3    H167819   4.440   5.914   0.426 -0.2146 -2.2904 -0.9465
15468TIP3    H267820   4.435   5.958   0.281  0.6354 -0.0758 -0.3225
15469TIP3   OH267821   5.025   0.700   3.495  0.2598 -0.0097  0.2255
15469TIP3    H167822   5.024   0.793   3.517  1.2622  0.6132 -2.1879
15469TIP3    H267823   4.950   0.688   3.437  0.5712 -0.5272 -0.0717
15470TIP3   OH267824   3.982   3.334  14.725  0.5381  0.5845  0.4632
15470TIP3    H167825   4.063   3.379  14.703  0.7447  0.0564  0.1653
15470TIP3    H267826   3.923   3.353  14.652  0.5392  0.5866  0.4623
15471TIP3   OH267827   0.532   2.852  14.252  0.2578  0.0139  0.2962
15471TIP3    H167828   0.608   2.876  14.200  0.2712 -0.9117 -0.1303
15471TIP3    H267829   0.458   2.893  14.207  0.5905  1.5982  1.1765
15472TIP3   OH267830   5.209   1.277  16.494  0.8055 -0.2781  0.5114
15472TIP3    H167831   5.264   1.210  16.534  0.1699 -0.3446  1.2989
15472TIP3    H267832   5.268   1.350  16.477  0.9137  0.1098  2.4516
15473TIP3   OH267833   4.656   1.804   1.403  0.1888 -0.0257  0.3977
15473TIP3    H167834   4.646   1.891   1.442  0.0627 -0.1001  0.5319
15473TIP3    H267835   4.603   1.747   1.458 -1.1471  0.0998 -0.7238
15474TIP3   OH267836   4.763   3.765  10.758  0.5044  0.2632 -0.2433
15474TIP3    H167837   4.850   3.764  10.798  0.7600 -0.1000 -0.7813
15474TIP3    H267838   4.764   3.689  10.700 -0.5997 -0.4257  0.6306
15475TIP3   OH267839   6.407   5.882  14.411  0.3884  0.4114  0.0025
15475TIP3    H167840   6.455   5.801  14.429 -0.8699 -0.1096  1.0968
15475TIP3    H267841   6.443   5.945  14.473 -0.1863  0.0818  0.6738
15476TIP3   OH267842   5.981   3.403  11.634 -0.1210 -0.0014  0.1135
15476TIP3    H167843   5.928   3.346  11.579  0.6107 -0.9930  0.4135
15476TIP3    H267844   6.048   3.345  11.671 -0.3176  0.7317  1.6834
15477TIP3   OH267845   5.512   0.991  14.705  0.1003  0.2924  0.5768
15477TIP3    H167846   5.588   1.045  14.683 -0.5137  1.2714  0.8619
15477TIP3    H267847   5.513   0.922  14.638  1.1597  0.3709  0.4975
15478TIP3   OH267848   6.652   4.844   0.645  0.1543  0.2198  0.3054
15478TIP3    H167849   6.698   4.775   0.693  2.0103  1.3329  0.1661
15478TIP3    H267850   6.643   4.915   0.709  0.1295  0.6465 -0.1738
15479TIP3   OH267851   1.779   4.495   3.014  0.0681  0.5097  0.4607
15479TIP3    H167852   1.777   4.412   2.966  3.1082  0.5199  0.2622
15479TIP3    H267853   1.751   4.560   2.950 -0.7433 -0.1233  0.1552
15480TIP3   OH267854   3.228   1.100  15.419 -0.1118  0.0619  0.4045
15480TIP3    H167855   3.164   1.136  15.480  0.0930 -0.6323  1.0485
15480TIP3    H267856   3.177   1.042  15.362 -0.2394  0.4078  0.1652
15481TIP3   OH267857   1.123   4.598  11.665  0.1205  0.8361 -0.3051
15481TIP3    H167858   1.153   4.636  11.747  2.9944 -3.3491  0.7636
15481TIP3    H267859   1.028   4.593  11.674  0.3983  0.3911  2.8304
15482TIP3   OH267860   5.693   6.390  14.819 -0.6820  0.1594  0.1417
15482TIP3    H167861   5.748   6.395  14.741 -0.9771 -1.7749 -0.2213
15482TIP3    H267862   5.747   6.345  14.883 -1.7157 -1.5037 -0.1285
15483TIP3   OH267863   0.358   2.168  12.183  0.0309  0.1280  0.1634
15483TIP3    H167864   0.387   2.153  12.094  0.4323  1.6090  0.0327
15483TIP3    H267865   0.271   2.208  12.174 -0.4945 -0.9366  0.4668
15484TIP3   OH267866   6.400   0.258   2.512  0.4023 -0.1776 -0.0620
15484TIP3    H167867   6.417   0.296   2.598  1.3102  1.1874 -0.8271
15484TIP3    H267868   6.449   0.313   2.451 -0.1452 -1.1886 -1.4500
15485TIP3   OH267869   4.721   3.711   0.063  0.2479 -0.2246 -0.0785
15485TIP3    H167870   4.735   3.658  -0.015  0.5360  0.1683 -0.2933
15485TIP3    H267871   4.630   3.694   0.088  0.0131  0.0064 -0.7654
15486TIP3   OH267872   4.608   3.585  14.147 -0.4422  0.4158  0.3223
15486TIP3    H167873   4.703   3.571  14.154 -0.5886 -0.7649  0.0523
15486TIP3    H267874   4.600   3.673  14.111  0.5322  0.9973  1.4961
15487TIP3   OH267875   4.801   3.124   6.069 -0.3579 -0.0033  0.1040
15487TIP3    H167876   4.817   3.150   6.159 -0.1481  0.3565 -0.0343
15487TIP3    H267877   4.841   3.194   6.016 -0.5724 -0.1548 -0.2639
15488TIP3   OH267878   6.200   4.405   4.111 -0.3843  0.3705  0.4415
15488TIP3    H167879   6.266   4.396   4.042  1.5076  4.2146  1.6036
15488TIP3    H267880   6.243   4.375   4.190 -1.3096 -0.5317  0.6185
15489TIP3   OH267881   5.173   2.289   0.744 -0.3830  0.0794  0.1899
15489TIP3    H167882   5.127   2.294   0.660  0.8823  3.8462 -0.3444
15489TIP3    H267883   5.131   2.215   0.789 -3.2863  0.0079 -2.4144
15490TIP3   OH267884   1.591   2.024  14.679 -0.3054 -0.2562  0.1954
15490TIP3    H167885   1.632   2.101  14.640 -0.6563  0.6013  1.5008
15490TIP3    H267886   1.585   2.044  14.772 -0.2261 -1.9474  0.5864
15491TIP3   OH267887   3.154   0.871   1.141  0.6571 -0.3906  0.2249
15491TIP3    H167888   3.061   0.894   1.148  0.6090  0.1038 -1.6452
15491TIP3    H267889   3.200   0.953   1.155  0.7204 -0.2667 -0.6557
15492TIP3   OH267890   2.721   0.851   1.512 -0.4846  0.0068 -0.0297
15492TIP3    H167891   2.679   0.922   1.463 -0.8495 -1.1873 -1.4516
15492TIP3    H267892   2.648   0.800   1.547 -0.2127 -0.1122  0.3738
15493TIP3   OH267893   4.107   2.276  16.256 -0.4586  0.0660  0.0200
15493TIP3    H167894   4.012   2.287  16.264 -0.4033  0.8689 -0.3272
15493TIP3    H267895   4.119   2.237  16.170 -0.4163  0.9328 -0.3757
15494TIP3   OH267896   4.846   1.042  11.238  0.0233  0.1561  0.7678
15494TIP3    H167897   4.928   1.064  11.283  1.3702 -1.2750 -0.9464
15494TIP3    H267898   4.782   1.103  11.275  1.9348  1.5581  1.8568
15495TIP3   OH267899   4.698   3.247   2.348 -0.6186 -0.3548 -0.1851
15495TIP3    H167900   4.739   3.294   2.420  0.0937 -0.1375 -0.7173
15495TIP3    H267901   4.762   3.179   2.325 -0.6814 -0.1979 -0.8350
15496TIP3   OH267902   1.326   0.769  12.772  0.1562  0.0152 -0.4248
15496TIP3    H167903   1.381   0.720  12.710  0.6463 -2.5772  1.9800
15496TIP3    H267904   1.377   0.848  12.791  0.2662  0.5785 -2.8171
15497TIP3   OH267905   2.419   3.682  17.164 -0.2524 -0.2959 -0.2220
15497TIP3    H167906   2.418   3.764  17.114 -0.8921 -0.8931 -1.1836
15497TIP3    H267907   2.327   3.666  17.184 -0.1471 -0.9379 -0.2680
15498TIP3   OH267908   0.806   2.221  16.767 -0.2050 -0.7478 -0.0783
15498TIP3    H167909   0.771   2.299  16.723  0.3590 -0.9680 -0.9297
15498TIP3    H267910   0.827   2.251  16.855 -1.7391 -0.3979  0.1838
15499TIP3   OH267911   4.992   6.665   5.250 -1.1587 -0.8911 -0.6469
15499TIP3    H167912   5.043   6.637   5.174 -0.3865 -0.3372 -0.3488
15499TIP3    H267913   4.977   6.585   5.300 -0.2087 -1.0010 -0.5242
15500TIP3   OH267914   2.862   3.061  11.894 -0.1098 -0.5352  0.6233
15500TIP3    H167915   2.934   2.997  11.898 -0.7828 -1.3141  0.4727
15500TIP3    H267916   2.819   3.044  11.810  1.2795  1.8751 -0.6255
15501TIP3   OH267917   1.394   0.831   2.287 -0.4768  0.1829  0.1510
15501TIP3    H167918   1.400   0.741   2.320  1.5006 -0.6335 -2.2575
15501TIP3    H267919   1.327   0.827   2.218 -1.2330  0.8439  0.8301
15502TIP3   OH267920   1.232   3.023  12.493  0.1476  0.7153  0.0508
15502TIP3    H167921   1.230   3.043  12.399  1.7439  1.1769  0.1060
15502TIP3    H267922   1.324   3.028  12.517  0.2130 -2.8055  0.9121
15503TIP3   OH267923   3.623   5.877   3.909  0.2859  0.4367  0.1862
15503TIP3    H167924   3.687   5.813   3.939 -2.0958 -1.7107  0.8253
15503TIP3    H267925   3.622   5.866   3.814  0.1323 -0.2592  0.2637
15504TIP3   OH267926   1.128   6.201  14.142  0.3728  0.0495  0.2092
15504TIP3    H167927   1.094   6.232  14.058 -0.2263 -0.1057  0.3921
15504TIP3    H267928   1.076   6.124  14.163  1.6063 -0.8769 -0.0577
15505TIP3   OH267929   6.524   0.523   5.302 -0.2498 -0.3138  0.2896
15505TIP3    H167930   6.548   0.496   5.391  0.8855 -2.1772 -0.5734
15505TIP3    H267931   6.428   0.522   5.302 -0.2754  0.4919  1.7187
15506TIP3   OH267932   3.016   0.424   4.025 -0.4160 -0.2630  0.6752
15506TIP3    H167933   3.061   0.509   4.027 -2.9192  1.1076 -0.1836
15506TIP3    H267934   2.943   0.436   3.965 -0.8561 -3.0322  0.5851
15507TIP3   OH267935   4.386   4.189   0.405  0.0695 -0.1843  0.1123
15507TIP3    H167936   4.394   4.097   0.426  0.7974  0.1403  1.3121
15507TIP3    H267937   4.293   4.201   0.383 -0.3895 -0.8404  1.6639
15508TIP3   OH267938   2.075   4.656  14.431  0.3340  0.1254  0.5716
15508TIP3    H167939   2.071   4.630  14.523  1.2984  2.1796  1.2080
15508TIP3    H267940   2.037   4.743  14.428 -1.9434 -0.8607 -1.3988
15509TIP3   OH267941   4.838   5.594   1.217  0.3829  0.4179 -0.4490
15509TIP3    H167942   4.748   5.613   1.192  0.4705  0.6391 -0.5943
15509TIP3    H267943   4.891   5.649   1.159  0.6270 -0.1160 -0.7360
15510TIP3   OH267944   0.833   1.186  14.897 -0.0135 -0.4625  0.1034
15510TIP3    H167945   0.751   1.141  14.876 -1.5529  2.2747  0.0952
15510TIP3    H267946   0.825   1.210  14.989  0.8662 -0.3333  0.1501
15511TIP3   OH267947   3.652   6.074  16.069 -0.2663 -0.2003 -0.0398
15511TIP3    H167948   3.652   5.981  16.048  0.7935 -0.0271 -0.8145
15511TIP3    H267949   3.744   6.100  16.063 -0.6822  1.1144 -0.7591
15512TIP3   OH267950   0.834   0.421  13.974 -0.1248  0.4544  0.2433
15512TIP3    H167951   0.897   0.436  13.904 -0.3669  0.6182  0.0588
15512TIP3    H267952   0.859   0.482  14.043 -0.5276  1.0376 -0.1243
15513TIP3   OH267953   1.385   3.812   2.222 -0.1950  0.3880 -0.3507
15513TIP3    H167954   1.418   3.740   2.168 -0.2556  1.1421 -1.4158
15513TIP3    H267955   1.436   3.889   2.194  1.7980  0.2530  2.7013
15514TIP3   OH267956   5.075   1.015   2.902  0.2653  0.8312  0.2645
15514TIP3    H167957   5.010   0.960   2.859 -0.0382 -0.4614  2.2940
15514TIP3    H267958   5.088   1.089   2.842  0.7724 -1.4833 -2.5847
15515TIP3   OH267959   2.462   2.049  15.649 -0.4536 -0.4534 -0.1444
15515TIP3    H167960   2.455   2.103  15.728 -0.5122 -0.7218  0.0377
15515TIP3    H267961   2.548   2.068  15.613  0.5666 -2.1207  1.3199
15516TIP3   OH267962   0.637   2.845  13.887  0.2926  0.1626 -0.1437
15516TIP3    H167963   0.557   2.883  13.850 -0.8802 -1.1448  0.9891
15516TIP3    H267964   0.637   2.754  13.857  0.5281 -0.2832  1.1674
15517TIP3   OH267965   4.850   0.769  15.173  0.5615  0.1205  0.3987
15517TIP3    H167966   4.802   0.782  15.255  0.8470 -1.2525  0.8035
15517TIP3    H267967   4.939   0.746  15.201  0.9966  0.8936 -0.3224
15518TIP3   OH267968   6.291   0.689  11.345  0.0761  0.4931  0.3754
15518TIP3    H167969   6.327   0.769  11.307 -0.5416  1.4637  1.8259
15518TIP3    H267970   6.323   0.688  11.435 -1.1956 -0.0949  0.8291
15519TIP3   OH267971   1.906   4.965   5.579 -0.6344 -0.2589 -0.3528
15519TIP3    H167972   1.969   4.963   5.508 -0.4064 -1.3475 -0.1274
15519TIP3    H267973   1.859   5.048   5.567 -0.4934 -0.3583 -1.6658
15520TIP3   OH267974   3.527   0.649  12.045 -0.1560 -0.1109  0.9835
15520TIP3    H167975   3.602   0.618  11.993 -0.4210 -0.9111  1.0759
15520TIP3    H267976   3.480   0.570  12.068 -1.0393  0.3939  0.9257
15521TIP3   OH267977   2.820   0.421  14.116  0.3743  0.6150  0.9316
15521TIP3    H167978   2.735   0.398  14.078 -0.2324  0.4750  2.3371
15521TIP3    H267979   2.881   0.418  14.042 -0.4575 -1.3535  0.2774
15522TIP3   OH267980   4.139   0.614  15.996 -0.1549  0.6272  0.3155
15522TIP3    H167981   4.192   0.684  16.034  0.8185  0.2618 -0.3438
15522TIP3    H267982   4.108   0.649  15.912  1.6025 -0.2494 -0.7436
15523TIP3   OH267983   5.267   0.418  13.424 -0.2789 -0.3841 -0.4959
15523TIP3    H167984   5.249   0.464  13.342  0.5809  0.5577 -0.1594
15523TIP3    H267985   5.282   0.487  13.488  0.4229 -1.1206  0.1479
15524TIP3   OH267986   6.771   5.066   3.269 -0.4885  0.0149 -0.5082
15524TIP3    H167987   6.841   5.028   3.216  0.0140 -0.4413  0.4760
15524TIP3    H267988   6.815   5.098   3.347 -1.3109  0.2165 -0.1232
15525TIP3   OH267989   1.645   0.595   5.568 -0.2535 -0.2270  0.0938
15525TIP3    H167990   1.568   0.652   5.565 -0.1380 -0.1431 -1.6834
15525TIP3    H267991   1.661   0.581   5.661 -0.8199  1.9395  0.5470
15526TIP3   OH267992   3.329   3.100  12.362  0.2645  0.1054 -0.0035
15526TIP3    H167993   3.374   3.135  12.285 -2.7952  0.8272 -1.5725
15526TIP3    H267994   3.336   3.005  12.354  1.1357  0.2095 -0.4487
15527TIP3   OH267995   3.714   3.286  13.253  0.5387 -0.8525  0.2324
15527TIP3    H167996   3.661   3.230  13.196 -0.9408 -0.7355  1.4773
15527TIP3    H267997   3.775   3.225  13.295  0.4740 -1.1938 -0.1638
15528TIP3   OH267998   2.404   2.860  12.532 -0.0111  0.2459 -0.4397
15528TIP3    H167999   2.462   2.841  12.458  2.0732  1.3728  0.8511
15528TIP3    H268000   2.354   2.936  12.504 -3.3298 -2.6527 -2.8505
15529TIP3   OH268001   2.564   4.990  14.255 -0.7143 -0.3933 -0.1232
15529TIP3    H168002   2.618   5.066  14.235  0.0423 -0.8357  0.2145
15529TIP3    H268003   2.509   4.978  14.178  0.4894 -0.6296 -0.9569
15530TIP3   OH268004   5.439   1.297   0.367  0.1731 -0.1042  0.0255
15530TIP3    H168005   5.458   1.376   0.417 -0.2204  0.0526 -0.0690
15530TIP3    H268006   5.449   1.323   0.276  0.8477 -0.3784  0.0157
15531TIP3   OH268007   2.204   2.907   0.260  0.2749  0.3805  0.6794
15531TIP3    H168008   2.139   2.890   0.191 -1.5516 -0.3647  2.5321
15531TIP3    H268009   2.215   3.002   0.259  1.1388  0.2756 -1.4114
15532TIP3   OH268010   3.482   3.386   1.266  0.3931  0.0557  0.1111
15532TIP3    H168011   3.494   3.291   1.260  0.5787  0.0924 -0.0989
15532TIP3    H268012   3.527   3.411   1.346 -0.2683 -0.1347  0.5441
15533TIP3   OH268013   0.698   5.964  11.414 -0.2108 -0.1699  0.6028
15533TIP3    H168014   0.673   6.035  11.354  2.2092  0.6072  0.4191
15533TIP3    H268015   0.721   5.892  11.356 -0.3563 -0.2872  0.6922
15534TIP3   OH268016   0.056   1.662   6.723  0.2969  0.0069  0.2216
15534TIP3    H168017  -0.019   1.673   6.782 -2.6038  3.2135 -3.8223
15534TIP3    H268018   0.054   1.569   6.699 -1.3217 -0.3171  1.5041
15535TIP3   OH268019   1.876   3.564   0.944 -0.0933 -0.7301  0.7264
15535TIP3    H168020   1.906   3.473   0.939  1.1740 -0.3252  0.8906
15535TIP3    H268021   1.798   3.566   0.889  0.7131 -1.5870 -0.4782
15536TIP3   OH268022   6.732   3.406  13.846  0.4711  0.2216 -0.1968
15536TIP3    H168023   6.670   3.338  13.821  0.2067  0.2925  0.2594
15536TIP3    H268024   6.723   3.473  13.777 -0.5962  0.6317  0.3301
15537TIP3   OH268025   3.087   6.757   4.278 -0.2154  0.6096  0.0069
15537TIP3    H168026   3.127   6.688   4.225 -1.6525 -0.0274 -0.2439
15537TIP3    H268027   3.062   6.824   4.214 -0.7409  0.4298  0.0243
15538TIP3   OH268028   1.778   6.772  15.495  0.0550 -0.2284 -0.2475
15538TIP3    H168029   1.750   6.812  15.413  1.7128 -1.7520 -1.5899
15538TIP3    H268030   1.835   6.838  15.535  0.4455 -0.0669 -1.0467
15539TIP3   OH268031   0.505   0.986   4.802 -0.0298 -0.2418 -0.2116
15539TIP3    H168032   0.544   0.974   4.888 -0.6943 -0.4830  0.0600
15539TIP3    H268033   0.562   1.049   4.758  1.5407 -1.7802 -0.4030
15540TIP3   OH268034   0.100   6.473   2.865 -0.0836  0.0990 -0.3276
15540TIP3    H168035   0.142   6.393   2.834 -1.4386 -0.8914  0.3632
15540TIP3    H268036   0.111   6.472   2.960  1.6115  1.7335 -0.4800
15541TIP3   OH268037   6.679   1.499  11.688  0.3931 -0.1037  0.2210
15541TIP3    H168038   6.644   1.544  11.611  0.6307  1.7696  1.2049
15541TIP3    H268039   6.638   1.412  11.685 -0.1495  0.1878 -1.6164
15542TIP3   OH268040   2.912   6.308   3.169  0.0097  0.4426  0.3499
15542TIP3    H168041   2.928   6.343   3.081  1.7779  2.6476  1.4948
15542TIP3    H268042   2.985   6.248   3.185  0.6380  1.3784  0.9885
15543TIP3   OH268043   4.977   5.466   4.693 -0.3219 -0.5856  0.4759
15543TIP3    H168044   4.931   5.382   4.690 -3.0599  0.8260  1.1736
15543TIP3    H268045   4.942   5.509   4.771  0.5241  1.4977 -0.2749
15544TIP3   OH268046   0.791   6.196  16.499  0.1065 -0.5421 -0.1113
15544TIP3    H168047   0.801   6.154  16.414  0.3711 -1.3114  0.2947
15544TIP3    H268048   0.872   6.245  16.511 -0.0205 -0.2598 -0.3939
15545TIP3   OH268049   3.895   5.324  12.390  0.8212  0.8936  0.1612
15545TIP3    H168050   3.867   5.360  12.306  0.7598 -1.5046 -0.8731
15545TIP3    H268051   3.958   5.256  12.367  0.0538 -0.4643  1.9925
15546TIP3   OH268052   2.288   6.327  15.172 -0.3667 -0.3509 -0.0101
15546TIP3    H168053   2.264   6.290  15.257  2.2131 -0.3420  0.7762
15546TIP3    H268054   2.355   6.392  15.192 -0.0191 -0.0479 -2.0268
15547TIP3   OH268055   6.310   0.737   2.243  0.1728 -0.9756  0.2042
15547TIP3    H168056   6.315   0.832   2.230 -0.3736 -0.8942  0.5525
15547TIP3    H268057   6.378   0.718   2.307  1.0782 -0.9938 -0.7485
15548TIP3   OH268058   0.299   3.683   4.862 -0.0423 -0.0781  0.4931
15548TIP3    H168059   0.220   3.635   4.885 -0.7900  0.4461 -0.9406
15548TIP3    H268060   0.359   3.666   4.935 -0.5860 -2.4796  0.4322
15549TIP3   OH268061   1.490   6.280  12.075  0.2528  0.0774 -0.0943
15549TIP3    H168062   1.504   6.222  12.001  2.4682  0.3716  0.0595
15549TIP3    H268063   1.415   6.333  12.051 -0.9285 -1.8780 -0.8319
15550TIP3   OH268064   3.604   2.571  13.602  0.5743 -0.6562  0.1440
15550TIP3    H168065   3.616   2.591  13.509  1.7513  1.5229  0.7336
15550TIP3    H268066   3.518   2.530  13.606  0.2858 -0.3159 -1.8563
15551TIP3   OH268067   5.421   0.713   4.193  0.0281 -0.0091 -0.1799
15551TIP3    H168068   5.476   0.646   4.153  0.4491  0.5442 -0.5258
15551TIP3    H268069   5.413   0.781   4.127 -2.3003 -0.7467 -0.7047
15552TIP3   OH268070   1.390   5.805  12.581  0.1870  0.4188 -0.1889
15552TIP3    H168071   1.384   5.775  12.491 -0.0011 -2.3043  0.6951
15552TIP3    H268072   1.481   5.789  12.606  0.3132  1.4307  0.0526
15553TIP3   OH268073   2.285   0.099   3.192 -0.1836 -0.2061 -0.1643
15553TIP3    H168074   2.222   0.069   3.258 -0.4461 -0.8499 -0.6926
15553TIP3    H268075   2.320   0.180   3.227 -1.8286  0.5347 -0.1697
15554TIP3   OH268076   0.142   0.204   5.340 -0.3301  0.1760 -1.0821
15554TIP3    H168077   0.154   0.179   5.431  2.1335  0.5520 -1.2835
15554TIP3    H268078   0.099   0.129   5.299  0.4444 -0.8136 -0.0757
15555TIP3   OH268079   4.040   6.399   1.560  0.6420  0.3457  0.0032
15555TIP3    H168080   4.110   6.412   1.623  2.0850  1.6936 -1.8072
15555TIP3    H268081   4.078   6.345   1.491 -1.1658 -1.8305  0.6278
15556TIP3   OH268082   6.309   0.772   6.415  0.0706 -0.1380  0.2569
15556TIP3    H168083   6.350   0.693   6.380 -1.1499 -0.0327 -1.5118
15556TIP3    H268084   6.244   0.739   6.477 -0.9923 -0.6034 -1.0654
15557TIP3   OH268085   5.370   2.754   5.677 -0.1558  0.5447 -0.1271
15557TIP3    H168086   5.329   2.669   5.661 -1.9892  1.0501  1.6425
15557TIP3    H268087   5.462   2.734   5.696 -0.9202 -1.2023  1.8168
15558TIP3   OH268088   3.393   1.313   6.431  0.1981 -0.2585  0.0906
15558TIP3    H168089   3.317   1.364   6.402 -0.1266 -0.2795  0.8891
15558TIP3    H268090   3.387   1.231   6.384 -0.5520 -0.4498  0.5194
15559TIP3   OH268091   2.448   2.562  16.148  0.2640  0.7237  0.1917
15559TIP3    H168092   2.494   2.523  16.073 -0.4658  1.8743 -0.8799
15559TIP3    H268093   2.357   2.571  16.118 -0.0310  1.2312  1.2096
15560TIP3   OH268094   5.304   2.173  12.464 -0.2385  0.0549 -0.2677
15560TIP3    H168095   5.211   2.163  12.443 -0.3900 -0.8153  0.7633
15560TIP3    H268096   5.349   2.139  12.386 -0.7951 -1.9214  0.2279
15561TIP3   OH268097   3.600   1.971  17.202 -0.6284  0.5258 -0.0145
15561TIP3    H168098   3.637   2.048  17.246 -0.2681  0.4063 -0.1009
15561TIP3    H268099   3.674   1.935  17.152 -0.2994 -0.9470  1.4975
15562TIP3   OH268100   1.223   3.536   1.254  0.1551 -0.1559 -0.4577
15562TIP3    H168101   1.245   3.612   1.199  2.0143 -0.0892  0.3274
15562TIP3    H268102   1.134   3.513   1.228  0.6079  0.5088 -2.7662
15563TIP3   OH268103   6.114   1.777  13.862  0.3497 -0.3141  0.4173
15563TIP3    H168104   6.111   1.825  13.945  3.2179  2.2960 -0.8809
15563TIP3    H268105   6.046   1.819  13.808 -0.7630 -1.2759  1.0641
15564TIP3   OH268106   4.492   2.153   4.212 -0.2145  0.3568 -0.1116
15564TIP3    H168107   4.458   2.242   4.200  2.2708  1.6149  1.7557
15564TIP3    H268108   4.568   2.164   4.269  0.2831 -2.9603 -0.0535
15565TIP3   OH268109   2.521   3.469   0.722  0.5435  0.0706 -0.6377
15565TIP3    H168110   2.473   3.479   0.639  0.7250  1.3691 -0.5934
15565TIP3    H268111   2.598   3.418   0.698  0.1085 -0.3912 -1.0820
15566TIP3   OH268112   4.575   5.496  13.330 -0.0152  0.3883 -0.2682
15566TIP3    H168113   4.539   5.531  13.248 -2.3210 -0.0808  0.5141
15566TIP3    H268114   4.526   5.542  13.399  1.6007  0.4584  0.8539
15567TIP3   OH268115   6.737   6.115  15.208  0.2166 -0.1262 -0.4861
15567TIP3    H168116   6.731   6.198  15.257  1.4575 -0.1836 -0.2337
15567TIP3    H268117   6.823   6.080  15.230  0.3569 -0.6905 -1.8769
15568TIP3   OH268118   0.872   0.699   0.894 -0.2538  0.7143  0.4181
15568TIP3    H168119   0.866   0.610   0.860 -2.2901  0.4341  1.4442
15568TIP3    H268120   0.954   0.701   0.942 -0.6609 -0.9243  1.2268
15569TIP3   OH268121   4.922   5.667  16.093  0.5980 -0.0436  0.3697
15569TIP3    H168122   4.991   5.705  16.038 -1.7272  0.3232 -2.3746
15569TIP3    H268123   4.956   5.580  16.116  0.4498 -1.3997 -4.0760
15570TIP3   OH268124   2.010   4.028  14.092  0.5209 -0.0943  0.2851
15570TIP3    H168125   1.921   4.017  14.061  0.5369 -1.3439  0.6529
15570TIP3    H268126   2.057   3.951  14.058  1.2285  0.0762  0.8565
15571TIP3   OH268127   3.728   2.369  13.870  0.4177  0.1924  0.8304
15571TIP3    H168128   3.821   2.371  13.892  0.4637  0.1657  0.6399
15571TIP3    H268129   3.725   2.335  13.780  0.2425  0.4619  0.7338
15572TIP3   OH268130   3.086   5.941  14.846 -0.1012  0.3972  0.8234
15572TIP3    H168131   3.019   5.914  14.908 -0.8303 -0.8146 -0.4831
15572TIP3    H268132   3.156   5.877  14.856 -1.1951 -1.1370 -1.2163
15573TIP3   OH268133   6.116   4.720   6.224 -0.5320 -0.2611 -0.5780
15573TIP3    H168134   6.025   4.749   6.228 -0.3889  0.1138  0.1851
15573TIP3    H268135   6.132   4.680   6.310  0.7395  1.8724  0.2381
15574TIP3   OH268136   6.531   4.710  14.233  0.0076 -0.2409  0.2407
15574TIP3    H168137   6.533   4.756  14.149 -0.5730  0.3132  0.5244
15574TIP3    H268138   6.445   4.668  14.236  0.0220 -0.2500  0.5618
15575TIP3   OH268139   0.471   1.807   0.880 -0.0611  0.0254  0.0873
15575TIP3    H168140   0.469   1.827   0.974 -0.5539 -1.1920  0.3458
15575TIP3    H268141   0.494   1.890   0.838  1.5193  0.2717  1.3852
15576TIP3   OH268142   2.041   0.076   0.628  0.2761 -0.0690 -0.1942
15576TIP3    H168143   2.075  -0.006   0.662  1.4311  0.0612 -1.0016
15576TIP3    H268144   2.118   0.121   0.592 -0.7490  0.2012 -2.1296
15577TIP3   OH268145   0.318   2.652   1.494 -0.1547  0.0971 -0.2986
15577TIP3    H168146   0.250   2.643   1.427  1.6182  0.1401 -2.1498
15577TIP3    H268147   0.269   2.660   1.576 -2.3415 -1.3352 -1.4028
15578TIP3   OH268148   4.803   1.370  10.960  0.9206  0.5623  0.1919
15578TIP3    H168149   4.839   1.284  10.936 -0.1538 -0.6092  2.5741
15578TIP3    H268150   4.875   1.431  10.946  2.1345 -0.9446 -0.2486
15579TIP3   OH268151   0.983   2.274   2.519 -0.0110 -0.1180 -0.4441
15579TIP3    H168152   1.022   2.338   2.579  0.8485 -1.6176  0.6624
15579TIP3    H268153   1.039   2.276   2.442  1.6744 -1.4444  0.6870
15580TIP3   OH268154   1.855   0.207  15.280  0.2499  0.4842  0.8746
15580TIP3    H168155   1.818   0.291  15.309 -0.2942  0.6350 -0.2557
15580TIP3    H268156   1.784   0.163  15.234  1.3969  0.7090 -1.1834
15581TIP3   OH268157   2.401   5.533   2.482 -0.3292  0.3029 -0.0375
15581TIP3    H168158   2.354   5.507   2.403 -0.3919  1.3969 -0.3677
15581TIP3    H268159   2.335   5.528   2.551 -0.2085 -0.9116  0.0008
15582TIP3   OH268160   6.560   0.429  12.906  0.4487 -0.0863  0.3692
15582TIP3    H168161   6.560   0.386  12.992 -1.8880  0.9077  0.8998
15582TIP3    H268162   6.551   0.357  12.844 -1.3770 -0.5703  1.1566
15583TIP3   OH268163   5.606   3.914  13.076  0.3748  0.4254  0.3349
15583TIP3    H168164   5.681   3.855  13.071  0.1355  0.1472  0.0249
15583TIP3    H268165   5.531   3.857  13.087  0.0043  0.5818 -1.2133
15584TIP3   OH268166   4.792   1.626  12.989 -0.3150 -0.2431 -0.1143
15584TIP3    H168167   4.788   1.552  12.928 -0.6068 -0.7958  0.5699
15584TIP3    H268168   4.835   1.695  12.940 -1.5265 -0.3320 -1.3276
15585TIP3   OH268169   4.881   6.321  13.357  0.0202  1.0065  0.5129
15585TIP3    H168170   4.909   6.412  13.349  0.2203  0.8675 -0.4926
15585TIP3    H268171   4.916   6.279  13.278 -1.7714  0.4905 -0.0169
15586TIP3   OH268172   3.808   3.691   1.064 -0.2552 -0.1145  0.1067
15586TIP3    H168173   3.749   3.766   1.066 -1.5013 -1.0795 -0.5432
15586TIP3    H268174   3.751   3.615   1.058  1.0184 -1.1029  0.3542
15587TIP3   OH268175   4.956   4.964  11.970  0.8861 -0.1859  0.2126
15587TIP3    H168176   5.026   4.917  12.017  1.7926  1.0804  0.1437
15587TIP3    H268177   5.002   5.017  11.906 -0.1113  1.0463  0.5073
15588TIP3   OH268178   4.390   2.760  16.551 -0.1039  0.5848 -0.5750
15588TIP3    H168179   4.320   2.808  16.594  1.3646  0.1811  2.3873
15588TIP3    H268180   4.467   2.817  16.560  0.8579 -0.7667 -0.1502
15589TIP3   OH268181   0.678   5.450  14.843 -0.0974  0.2422  0.0486
15589TIP3    H168182   0.707   5.406  14.764 -1.0149 -0.7532  0.2602
15589TIP3    H268183   0.757   5.456  14.897 -0.3581 -3.0066  0.8725
15590TIP3   OH268184   4.095   5.203  15.036  0.4909 -0.7709  0.1427
15590TIP3    H168185   4.079   5.133  15.100 -2.4030  0.5305  0.8925
15590TIP3    H268186   4.020   5.200  14.978  0.1371  1.9734  0.4200
15591TIP3   OH268187   1.620   5.496  14.068 -0.1780  0.0790  0.1620
15591TIP3    H168188   1.704   5.497  14.022 -0.7237  0.4009 -0.8639
15591TIP3    H268189   1.564   5.553  14.015 -0.6255  1.0490  1.6334
15592TIP3   OH268190   2.453   2.062  15.114  0.0330  0.9434 -0.0534
15592TIP3    H168191   2.433   2.153  15.091  1.2506  1.6828  1.7143
15592TIP3    H268192   2.547   2.054  15.098  0.2347  0.4673  1.3158
15593TIP3   OH268193   6.010   0.895  14.486  0.0421 -0.2335  0.3869
15593TIP3    H168194   6.062   0.962  14.441  1.2820 -0.3021  1.7021
15593TIP3    H268195   5.996   0.828  14.419 -1.4010  1.3945 -1.0142
15594TIP3   OH268196   4.441   2.708  11.990 -0.5165 -0.2578  0.4326
15594TIP3    H168197   4.416   2.646  11.921  3.4499  0.6700 -2.0708
15594TIP3    H268198   4.390   2.787  11.971 -0.5384 -0.5074 -0.5923
15595TIP3   OH268199   4.738   2.782  14.004 -0.0688  0.1460  0.5630
15595TIP3    H168200   4.693   2.863  14.028 -0.6093  0.4232 -1.3163
15595TIP3    H268201   4.765   2.795  13.914  0.9309 -1.3044  0.6286
15596TIP3   OH268202   0.882   2.621  11.066 -0.4590  0.2072 -0.4750
15596TIP3    H168203   0.806   2.678  11.082 -0.8127  0.4138 -2.7700
15596TIP3    H268204   0.945   2.678  11.021  0.9315 -0.0720  1.0562
15597TIP3   OH268205   3.584   6.083   2.267  0.2354  0.1184 -0.6672
15597TIP3    H168206   3.636   6.039   2.199 -0.0143  0.0217 -0.7987
15597TIP3    H268207   3.599   6.176   2.252  0.6153  0.0870 -0.5095
15598TIP3   OH268208   1.844   1.917   2.884 -0.4134  0.1867 -0.0134
15598TIP3    H168209   1.873   1.916   2.976  2.0938  0.3601 -0.7606
15598TIP3    H268210   1.749   1.920   2.889 -0.3677 -1.3550  2.5851
15599TIP3   OH268211   5.980   0.064   5.237  0.1854 -0.0573  0.2655
15599TIP3    H168212   5.960   0.085   5.328 -0.2751  0.2582  0.0916
15599TIP3    H268213   5.923  -0.010   5.216  2.4478 -2.1263  1.1558
15600TIP3   OH268214   5.096   2.988   2.218 -0.2385  0.0810  1.1058
15600TIP3    H168215   5.123   2.948   2.135 -0.7437 -0.9961  1.4506
15600TIP3    H268216   5.010   3.026   2.198  1.0635  2.7745  0.2406
15601TIP3   OH268217   5.023   2.653   5.897 -0.3625 -0.2551  0.1080
15601TIP3    H168218   4.934   2.621   5.916 -0.3034  0.7239  2.1827
15601TIP3    H268219   5.072   2.636   5.978  1.0541  0.2439 -0.6322
15602TIP3   OH268220   4.098   1.704   6.353 -0.1775 -0.5564 -0.0222
15602TIP3    H168221   4.080   1.700   6.259 -0.6779 -0.4606  0.0678
15602TIP3    H268222   4.013   1.725   6.392  0.3144  0.8750  0.3239
15603TIP3   OH268223   1.802   0.018   3.994  0.1490  0.3407 -0.1526
15603TIP3    H168224   1.882   0.002   4.044  0.4295  1.8177 -0.1230
15603TIP3    H268225   1.732  -0.007   4.054  0.5005  1.5977  0.7954
15604TIP3   OH268226   2.962   6.027  11.561 -0.0678 -0.0996 -0.3330
15604TIP3    H168227   2.911   6.094  11.517  0.9729 -0.0429 -1.4700
15604TIP3    H268228   3.049   6.066  11.572 -0.6935  0.5265  3.2436
15605TIP3   OH268229   5.585   5.735   6.144 -0.0826  0.3450 -0.1443
15605TIP3    H168230   5.678   5.752   6.131 -0.1540  0.6130 -0.3035
15605TIP3    H268231   5.577   5.640   6.135  0.0635  0.3939 -0.8698
15606TIP3   OH268232   5.194   1.791   3.174 -0.0158 -0.9674  0.4131
15606TIP3    H168233   5.114   1.787   3.122  0.4523  0.4583 -0.4701
15606TIP3    H268234   5.252   1.847   3.123  0.3681  0.6763  2.5782
15607TIP3   OH268235   5.175   3.654  11.408  0.0234 -0.3591  0.3824
15607TIP3    H168236   5.251   3.659  11.351  0.6591  0.4580  1.2859
15607TIP3    H268237   5.183   3.568  11.450  0.4345 -0.2797  0.4684
15608TIP3   OH268238   2.775   6.086  14.904 -0.0166  0.0867  0.6118
15608TIP3    H168239   2.827   6.114  14.829  0.0495  1.2530  1.0882
15608TIP3    H268240   2.726   6.010  14.872 -1.5583  1.8021 -1.2220
15609TIP3   OH268241   5.963   5.942   1.558  0.1868  0.2424 -0.2723
15609TIP3    H168242   5.871   5.965   1.546  0.7470  1.7427 -1.9902
15609TIP3    H268243   5.961   5.852   1.591 -1.8605 -0.3409 -1.8584
15610TIP3   OH268244   6.098   4.492   3.798  0.0784  0.5021 -0.4580
15610TIP3    H168245   6.177   4.507   3.851  0.4467 -1.2100 -0.4986
15610TIP3    H268246   6.029   4.477   3.862  0.1382  0.2853 -0.4450
15611TIP3   OH268247   4.892   6.749  14.739 -0.2125  0.4488 -0.2582
15611TIP3    H168248   4.843   6.818  14.784 -1.1523  0.9730 -2.0282
15611TIP3    H268249   4.833   6.718  14.670  1.7143  0.7580 -2.1401
15612TIP3   OH268250   0.477   6.503  14.707 -0.0458 -0.0883 -0.1766
15612TIP3    H168251   0.468   6.548  14.623 -2.7435  1.4431  0.8661
15612TIP3    H268252   0.432   6.420  14.694 -1.4595  0.6270  0.0740
15613TIP3   OH268253   6.436   2.971   1.438  0.4699 -0.5892 -0.2249
15613TIP3    H168254   6.451   3.065   1.424  0.8559 -0.5712  0.2590
15613TIP3    H268255   6.458   2.958   1.531  2.2842 -1.5102 -0.7530
15614TIP3   OH268256   1.131   1.526   0.809  0.1580  0.3550 -0.3756
15614TIP3    H168257   1.211   1.552   0.764  0.8909  0.2383  0.8482
15614TIP3    H268258   1.140   1.563   0.897 -0.5138 -0.8273  0.1949
15615TIP3   OH268259   2.771   0.794   5.085 -0.9418  0.1110 -0.3982
15615TIP3    H168260   2.717   0.717   5.097  0.9376 -1.0740  0.6242
15615TIP3    H268261   2.861   0.763   5.096 -0.2563  2.9100  2.8237
15616TIP3   OH268262   2.826   6.286   2.118 -0.0211 -0.4486  0.7128
15616TIP3    H168263   2.755   6.242   2.071 -0.8877  0.0634  1.5474
15616TIP3    H268264   2.807   6.379   2.111  0.4055 -0.3194  1.2020
15617TIP3   OH268265   3.043   5.060   1.226 -0.3959 -0.2090 -0.1441
15617TIP3    H168266   3.071   5.124   1.160 -0.1272 -2.0247 -1.8572
15617TIP3    H268267   3.068   4.975   1.188 -2.5849 -1.4651  1.1518
15618TIP3   OH268268   5.000   6.073   0.693  0.5448  0.3394 -0.1920
15618TIP3    H168269   5.020   6.118   0.775  0.0835  0.7857 -0.3160
15618TIP3    H268270   5.001   5.980   0.715 -0.8955  0.5064  0.6239
15619TIP3   OH268271   3.648   5.818  15.993  0.2047 -0.0947  0.2491
15619TIP3    H168272   3.574   5.759  16.007  0.9165 -0.9795  0.4036
15619TIP3    H268273   3.725   5.760  15.996  0.8378  0.6597 -0.7818
15620TIP3   OH268274   0.836   4.755   4.385  0.1199  0.2077  0.4251
15620TIP3    H168275   0.755   4.715   4.417  0.7987 -2.2971 -0.8349
15620TIP3    H268276   0.899   4.742   4.456  0.0344 -0.0152  0.4632
15621TIP3   OH268277   4.955   1.781   2.617 -0.3171 -0.6809 -0.5065
15621TIP3    H168278   5.028   1.780   2.555 -1.2455 -1.4457 -1.6045
15621TIP3    H268279   4.877   1.778   2.563 -1.1492 -1.3289  0.6960
15622TIP3   OH268280   4.069   2.455   2.834 -0.0616 -0.1463  0.2118
15622TIP3    H168281   4.087   2.515   2.906  1.9697 -0.6359  0.1459
15622TIP3    H268282   4.097   2.502   2.756  2.9265 -1.6715  0.2902
15623TIP3   OH268283   3.707   2.410   1.759 -0.3982  0.7486 -0.0821
15623TIP3    H168284   3.656   2.466   1.817 -1.1538 -0.9127  0.9159
15623TIP3    H268285   3.788   2.392   1.808  0.5110  2.1573 -1.0308
15624TIP3   OH268286   4.938   5.116   4.799 -0.0131 -0.0894 -0.2814
15624TIP3    H168287   4.851   5.149   4.776  0.4002  1.2332 -0.0116
15624TIP3    H268288   4.929   5.081   4.887 -0.0673  0.8989  0.1123
15625TIP3   OH268289   4.639   0.065  15.639  0.1487 -0.3052 -0.0397
15625TIP3    H168290   4.712   0.048  15.580  0.3081  0.6762 -0.1252
15625TIP3    H268291   4.609   0.153  15.616  2.1665  1.4045  3.3406
15626TIP3   OH268292   6.526   6.533  10.777 -0.1570  0.2521 -0.2210
15626TIP3    H168293   6.554   6.624  10.773 -2.2645  0.9721  0.9038
15626TIP3    H268294   6.572   6.491  10.704  1.2832  2.0688 -0.3933
15627TIP3   OH268295   1.390   1.553  16.998 -0.0284  0.4859 -0.0319
15627TIP3    H168296   1.450   1.627  16.992  0.6444 -0.0766 -0.2944
15627TIP3    H268297   1.432   1.493  17.060  1.2575 -1.3540 -2.6258
15628TIP3   OH268298   2.285   1.425  15.264 -0.1652 -0.0349 -0.2463
15628TIP3    H168299   2.204   1.402  15.309  1.1500  0.3234  2.4086
15628TIP3    H268300   2.324   1.494  15.318  1.4390  0.5098 -2.0249
15629TIP3   OH268301   2.886   4.995   0.526 -1.0275 -0.5432 -0.3283
15629TIP3    H168302   2.833   4.960   0.455  1.8590 -1.2232 -2.2538
15629TIP3    H268303   2.881   4.930   0.595 -3.4304 -0.1328 -0.0749
15630TIP3   OH268304   0.304   4.560  14.623 -0.3022  0.1940  0.1815
15630TIP3    H168305   0.353   4.522  14.550  1.7727  0.6629  1.2904
15630TIP3    H268306   0.268   4.641  14.588 -0.3742 -0.2046 -0.6843
15631TIP3   OH268307   0.056   0.160  14.797 -0.4761  0.3410  0.4157
15631TIP3    H168308   0.088   0.091  14.855  0.7375 -1.0250 -1.7888
15631TIP3    H268309   0.079   0.242  14.842  0.6900 -0.6727  1.7078
15632TIP3   OH268310   0.064   6.677  13.785  0.1884  0.0627 -0.2858
15632TIP3    H168311   0.027   6.589  13.778 -0.2704  0.1746  0.6656
15632TIP3    H268312   0.108   6.677  13.870  0.5338  0.6210 -0.4673
15633TIP3   OH268313   2.277   5.913  14.502  0.1392 -0.2295  0.0874
15633TIP3    H168314   2.344   5.980  14.490  1.1499 -1.3988 -0.9389
15633TIP3    H268315   2.195   5.957  14.478  0.8940  0.4221 -1.3874
15634TIP3   OH268316   3.704   1.821  15.869 -0.5481  0.8146  0.1723
15634TIP3    H168317   3.701   1.726  15.865 -1.3469  0.8966 -1.1076
15634TIP3    H268318   3.756   1.839  15.948 -1.0509 -0.6656  0.8715
15635TIP3   OH268319   0.037   2.673  16.282 -0.2527 -0.3183  0.1110
15635TIP3    H168320   0.040   2.767  16.261  0.5023 -0.4780 -0.5488
15635TIP3    H268321   0.090   2.632  16.213 -1.2353 -1.3143 -0.0658
15636TIP3   OH268322   2.343   1.117   1.667 -0.5598 -0.1479  0.0306
15636TIP3    H168323   2.264   1.139   1.717 -0.2477 -3.5831  2.2293
15636TIP3    H268324   2.411   1.107   1.733  0.1472 -3.6778 -1.1057
15637TIP3   OH268325   1.382   6.724  13.027  0.0365  0.2945 -0.0748
15637TIP3    H168326   1.464   6.712  13.074 -0.3504 -1.3090  0.1945
15637TIP3    H268327   1.346   6.806  13.063  0.7251  0.1569  0.9508
15638TIP3   OH268328   0.965   4.761  15.091  0.0512  0.2202 -0.5302
15638TIP3    H168329   0.880   4.771  15.048  0.3356  0.8294 -0.9625
15638TIP3    H268330   1.011   4.694  15.040 -0.2967 -0.3477 -0.0960
15639TIP3   OH268331   5.374   4.641   4.545 -0.4196 -0.5150 -0.2027
15639TIP3    H168332   5.286   4.606   4.552 -0.3841 -0.3087  1.3877
15639TIP3    H268333   5.390   4.685   4.629  0.3959  1.3060 -1.2776
15640TIP3   OH268334   1.159   4.574  17.226  0.1385  0.4022 -0.1901
15640TIP3    H168335   1.157   4.615  17.139  1.7476 -1.2025 -1.0216
15640TIP3    H268336   1.068   4.576  17.256 -0.1944  2.2854 -1.2820
15641TIP3   OH268337   0.187   5.478   4.602  0.0386  0.1317 -0.0707
15641TIP3    H168338   0.199   5.493   4.508 -1.2220  0.1654 -0.2266
15641TIP3    H268339   0.143   5.557   4.633  0.8844  0.3286  0.6481
15642TIP3   OH268340   0.016   5.063  13.549  0.6515  0.0393 -0.0638
15642TIP3    H168341   0.016   5.125  13.622 -1.7490 -1.5836  1.4334
15642TIP3    H268342  -0.062   5.085  13.499  0.5476 -0.8503 -0.3088
15643TIP3   OH268343   4.509   6.609  11.744  0.1685  0.1884  0.0876
15643TIP3    H168344   4.595   6.571  11.728  1.7002  2.3214  2.8356
15643TIP3    H268345   4.466   6.547  11.803  1.3602  0.9732  1.8331
15644TIP3   OH268346   5.888   0.356   6.059  0.3731 -0.5507 -0.1720
15644TIP3    H168347   5.823   0.331   6.125  1.0006 -1.0265  0.2840
15644TIP3    H268348   5.897   0.278   6.004  0.4381 -0.4300 -0.3317
15645TIP3   OH268349   0.244   2.993   3.288  0.1046 -0.0819 -0.4483
15645TIP3    H168350   0.327   3.033   3.314 -0.0774  0.3975 -0.5974
15645TIP3    H268351   0.182   3.066   3.286  0.6414  0.3528 -4.6093
15646TIP3   OH268352   0.103   6.182   5.557 -0.0967 -0.1258  0.0580
15646TIP3    H168353   0.064   6.172   5.470 -1.4619  3.7418  0.1271
15646TIP3    H268354   0.051   6.125   5.613 -0.6501 -0.9440 -1.2540
15647TIP3   OH268355   6.201   0.525   0.898 -0.3169  0.3557  0.2940
15647TIP3    H168356   6.240   0.576   0.969  1.4024  0.3815 -0.6362
15647TIP3    H268357   6.109   0.516   0.922 -0.0194  1.4358  1.8937
15648TIP3   OH268358   1.313   4.158   3.075  0.2338  0.1545  0.0038
15648TIP3    H168359   1.290   4.073   3.037 -1.9081 -0.4606  2.5381
15648TIP3    H268360   1.374   4.137   3.146 -1.9805  0.4815  2.0472
15649TIP3   OH268361   1.200   3.421   2.829 -0.0181 -0.0193  0.0644
15649TIP3    H168362   1.286   3.408   2.790  0.2272  0.0415  0.5811
15649TIP3    H268363   1.206   3.506   2.873 -1.3078  1.4572 -2.4902
15650TIP3   OH268364   2.226   0.179   2.493  0.3750  0.3063  0.1970
15650TIP3    H168365   2.315   0.156   2.519  0.3844  0.3794  0.2292
15650TIP3    H268366   2.235   0.217   2.405  0.6540  2.3692  1.0803
15651TIP3   OH268367   5.586   1.673   2.713 -0.2757 -0.2693  1.2217
15651TIP3    H168368   5.651   1.629   2.659 -1.9264 -0.3662 -0.7699
15651TIP3    H268369   5.606   1.766   2.702 -0.0813 -0.3219  1.1218
15652TIP3   OH268370   5.481   5.743   1.565 -0.3537 -0.0824 -0.1853
15652TIP3    H168371   5.572   5.733   1.592 -1.2460 -0.8853  2.7144
15652TIP3    H268372   5.432   5.684   1.622 -2.8301  1.1050 -0.9788
15653TIP3   OH268373   6.021   1.425   2.459  0.2020 -0.2402 -0.0385
15653TIP3    H168374   5.952   1.446   2.397  1.3488  1.7225 -0.7000
15653TIP3    H268375   5.982   1.360   2.518 -1.0226 -1.8539 -2.5516
15654TIP3   OH268376   3.486   5.327   1.595  0.1318  0.1812  0.2268
15654TIP3    H168377   3.533   5.262   1.647  0.6169  0.5654  0.2710
15654TIP3    H268378   3.456   5.392   1.658 -1.0077 -0.3897  0.2796
15655TIP3   OH268379   6.722   1.957  15.883  0.3591 -0.2119 -0.2694
15655TIP3    H168380   6.696   1.955  15.791 -0.5664 -0.8812  0.0036
15655TIP3    H268381   6.799   2.015  15.885 -1.2199  1.9564 -1.0420
15656TIP3   OH268382   4.968   3.262   3.218 -0.5540 -0.7377  0.3581
15656TIP3    H168383   4.891   3.280   3.273  0.3713 -0.6217  1.6360
15656TIP3    H268384   5.032   3.223   3.278 -0.0519 -1.9722 -0.9568
15657TIP3   OH268385   0.575   5.830   5.195 -0.2344  0.6387 -0.2061
15657TIP3    H168386   0.559   5.920   5.224 -2.9746 -0.0365  0.4832
15657TIP3    H268387   0.567   5.834   5.100 -0.9355  1.0253 -0.1369
15658TIP3   OH268388   0.365   3.948   1.415 -0.0170  0.3055 -0.0565
15658TIP3    H168389   0.273   3.954   1.439  0.6805  1.3263  2.5230
15658TIP3    H268390   0.412   3.951   1.499  2.4320  1.6127 -1.4147
15659TIP3   OH268391   6.239   5.105  12.639  0.2051  0.0411 -0.0757
15659TIP3    H168392   6.237   5.147  12.553  1.0296  0.4010  0.0687
15659TIP3    H268393   6.331   5.109  12.665 -0.0146 -0.1982  0.7602
15660TIP3   OH268394   4.485   5.338  15.585  0.2669  0.0215 -0.6012
15660TIP3    H168395   4.481   5.426  15.621 -0.2139 -0.9703  1.8797
15660TIP3    H268396   4.435   5.343  15.503 -0.7130  1.7954  0.0717
15661TIP3   OH268397   2.181   3.900   1.010  0.5088  0.4599  0.2371
15661TIP3    H168398   2.197   3.807   0.992 -1.5616  0.1681 -0.2447
15661TIP3    H268399   2.234   3.946   0.945  0.9533 -0.3894 -0.0185
15662TIP3   OH268400   2.621   6.382   2.502 -0.3476  0.2042 -0.4021
15662TIP3    H168401   2.598   6.376   2.409 -0.7225 -0.1127 -0.2902
15662TIP3    H268402   2.698   6.326   2.511  0.2815  1.0060 -0.7116
15663TIP3   OH268403   3.571   0.114  13.787  0.1525  0.4560  0.1878
15663TIP3    H168404   3.519   0.071  13.854 -1.0778  0.3598 -0.8251
15663TIP3    H268405   3.659   0.078  13.798 -0.4975 -1.0728  0.4232
15664TIP3   OH268406   3.306   2.277   1.910 -0.3334  0.2478 -0.1770
15664TIP3    H168407   3.322   2.370   1.896  2.7550 -0.4013 -1.3121
15664TIP3    H268408   3.282   2.243   1.824  0.7950 -0.3942 -0.2526
15665TIP3   OH268409   2.623   0.542  16.748 -0.2809 -0.0429 -0.5920
15665TIP3    H168410   2.614   0.452  16.778 -0.6246 -0.3650 -1.6399
15665TIP3    H268411   2.644   0.535  16.655 -0.6350  0.9627 -0.7599
15666TIP3   OH268412   4.161   3.113  11.611  0.4799 -0.6476  0.2513
15666TIP3    H168413   4.159   3.019  11.594 -0.3565 -0.9837  2.0924
15666TIP3    H268414   4.137   3.153  11.527 -0.1760 -2.1053 -0.2696
15667TIP3   OH268415   2.290   4.871   1.985  0.6430 -0.6501  0.3121
15667TIP3    H168416   2.322   4.796   1.935  1.9040 -1.2060  1.9157
15667TIP3    H268417   2.288   4.943   1.922  1.4111 -1.5245 -0.7250
15668TIP3   OH268418   6.411   5.147   3.806 -0.1871 -0.0424  0.0190
15668TIP3    H168419   6.421   5.235   3.842 -0.6574  0.0721 -0.1352
15668TIP3    H268420   6.417   5.090   3.883 -3.3473  0.3198  0.6113
15669TIP3   OH268421   3.749   4.273  13.274  0.1074 -0.2919  0.0668
15669TIP3    H168422   3.769   4.236  13.360  0.5676 -2.0417 -0.7763
15669TIP3    H268423   3.822   4.333  13.257  0.3827 -0.4709  0.5861
15670TIP3   OH268424   2.831   0.588   2.432  0.3756  0.1825 -0.0158
15670TIP3    H168425   2.841   0.680   2.409  2.8481 -0.0034  0.1044
15670TIP3    H268426   2.900   0.543   2.382 -0.1548 -1.4555  0.6794
15671TIP3   OH268427   0.639   5.879   4.288  0.1887 -0.4860 -0.8672
15671TIP3    H168428   0.691   5.910   4.363 -0.2574  0.2536 -0.8592
15671TIP3    H268429   0.705   5.851   4.224  0.6978  2.5987 -1.7821
15672TIP3   OH268430   6.386   6.222  14.281  0.2984 -0.3287  0.2003
15672TIP3    H168431   6.329   6.225  14.358 -0.1471  1.0518 -0.1685
15672TIP3    H268432   6.475   6.217  14.317 -0.0060 -1.7194  0.7832
15673TIP3   OH268433   4.497   2.383   5.626  0.0605 -0.5970 -0.1440
15673TIP3    H168434   4.426   2.343   5.676 -0.5204  0.1639 -0.3509
15673TIP3    H268435   4.509   2.469   5.665  1.2706 -0.9423  0.2634
15674TIP3   OH268436   3.436   0.388  14.817  1.0608 -0.1152  0.1556
15674TIP3    H168437   3.408   0.390  14.725 -3.1442  1.6287  1.3529
15674TIP3    H268438   3.479   0.472  14.831  0.9436 -0.0253 -0.0197
15675TIP3   OH268439   5.250   3.571   2.126  0.1104 -0.2925 -0.0488
15675TIP3    H168440   5.299   3.572   2.208 -0.8334 -2.5201  0.5838
15675TIP3    H268441   5.159   3.575   2.152 -0.1263  1.9304 -1.1424
15676TIP3   OH268442   6.066   4.004   1.211  0.0722  0.1442  0.6007
15676TIP3    H168443   6.099   3.919   1.241 -0.2836  0.6763  2.6433
15676TIP3    H268444   5.977   4.008   1.247 -0.2226  1.0018 -0.2379
15677TIP3   OH268445   3.905   1.354  11.260 -0.0366 -0.1716  0.1179
15677TIP3    H168446   3.819   1.390  11.283 -0.9817 -2.6397  0.6670
15677TIP3    H268447   3.885   1.270  11.219  2.0844 -0.1517 -1.0210
15678TIP3   OH268448   2.286   2.441  11.553 -0.0984 -0.2721 -0.6303
15678TIP3    H168449   2.320   2.518  11.507 -0.2237  0.2270  0.1079
15678TIP3    H268450   2.246   2.388  11.484  1.8939 -0.7238 -1.4790
15679TIP3   OH268451   3.165   5.255  12.542 -0.2497 -0.0993 -0.7447
15679TIP3    H168452   3.077   5.292  12.547 -1.3649 -2.6594 -0.9249
15679TIP3    H268453   3.185   5.228  12.632  0.1942  0.1003 -0.7812
15680TIP3   OH268454   6.513   3.736   2.828 -0.2008 -0.1252 -0.2022
15680TIP3    H168455   6.519   3.826   2.796 -0.4434  0.1079  0.4122
15680TIP3    H268456   6.598   3.697   2.805  0.3804  0.6231  0.6421
15681TIP3   OH268457   2.878   5.197   5.383 -0.5526 -0.3190  0.8078
15681TIP3    H168458   2.927   5.238   5.312  0.5409 -1.0434  1.1410
15681TIP3    H268459   2.926   5.218   5.462 -2.0239  0.8756  1.4205
15682TIP3   OH268460   2.830   2.812  16.053  0.6788 -0.2745  0.3352
15682TIP3    H168461   2.745   2.852  16.068  1.2891  1.5051 -0.8318
15682TIP3    H268462   2.810   2.733  16.003 -0.1303  1.2389 -1.7992
15683TIP3   OH268463   6.589   2.537  15.886  0.6889  0.2427 -0.7089
15683TIP3    H168464   6.568   2.460  15.940  3.6667  0.1883  0.4235
15683TIP3    H268465   6.589   2.610  15.948 -0.2275  0.8961 -1.4565
15684TIP3   OH268466   3.741   1.824   0.208 -0.4729 -0.5958 -0.4812
15684TIP3    H168467   3.716   1.744   0.254 -0.4614 -0.1729  0.2697
15684TIP3    H268468   3.658   1.861   0.178 -0.5516 -0.4366 -0.0694
15685TIP3   OH268469   6.258   6.333   2.912 -0.0669  0.0271  0.1792
15685TIP3    H168470   6.278   6.255   2.964 -0.6335 -0.3332 -0.1446
15685TIP3    H268471   6.169   6.318   2.879  0.6895 -0.2146 -1.7736
15686TIP3   OH268472   6.666   5.838  15.558  0.8781  0.3600 -0.0071
15686TIP3    H168473   6.585   5.882  15.533 -0.3110 -2.0620 -0.6450
15686TIP3    H268474   6.637   5.753  15.593  3.0348  0.2065  1.4993
15687TIP3   OH268475   0.813   1.203  14.032  0.7860  0.3615  0.4943
15687TIP3    H168476   0.821   1.218  14.126  0.1159  0.1122  0.5897
15687TIP3    H268477   0.728   1.241  14.009  0.9201  0.3635 -0.0001
15688TIP3   OH268478   0.022   4.912   4.310  0.7478  0.0072 -0.0043
15688TIP3    H168479  -0.040   4.955   4.369  0.1989 -1.9999  0.9311
15688TIP3    H268480   0.103   4.963   4.319  0.7256 -0.3282  2.6335
15689TIP3   OH268481   5.780   4.285   0.779 -0.0670 -0.0010 -0.3350
15689TIP3    H168482   5.788   4.340   0.857  0.5323 -0.8303  0.1955
15689TIP3    H268483   5.869   4.283   0.743 -0.9914  3.2743 -3.0565
15690TIP3   OH268484   6.525   5.843   1.545  0.8008  0.0235  0.8256
15690TIP3    H168485   6.560   5.756   1.525  1.9068  0.1500  2.1867
15690TIP3    H268486   6.433   5.838   1.520  1.5728 -0.5416 -2.1191
15691TIP3   OH268487   3.330   2.656  14.210 -0.1049  0.1534  0.0456
15691TIP3    H168488   3.359   2.748  14.207  0.6869 -0.0658  0.6485
15691TIP3    H268489   3.390   2.615  14.272 -0.0439 -0.9285 -0.7242
15692TIP3   OH268490   6.600   0.595  15.445 -0.6891  0.7025 -0.0296
15692TIP3    H168491   6.558   0.516  15.412 -0.4627  0.1594  0.9560
15692TIP3    H268492   6.685   0.597  15.402 -0.0973 -0.3967  1.0675
15693TIP3   OH268493   1.330   3.890   6.013  0.0094 -0.4386 -0.2232
15693TIP3    H168494   1.309   3.878   6.106  1.8218 -2.2246  0.0016
15693TIP3    H268495   1.385   3.969   6.011 -0.7014  0.0674  0.1124
15694TIP3   OH268496   1.470   2.466   6.159 -0.1501  0.1338 -0.2019
15694TIP3    H168497   1.516   2.543   6.128 -1.2569  1.5930  1.6565
15694TIP3    H268498   1.501   2.453   6.249 -0.6970 -0.9851 -0.1560
15695TIP3   OH268499   2.295   2.133   0.857 -0.3174 -0.4023  0.3786
15695TIP3    H168500   2.317   2.220   0.826 -3.0002  0.4306  0.6878
15695TIP3    H268501   2.245   2.093   0.786 -0.5914 -1.0193  0.9028
15696TIP3   OH268502   4.173   6.265  14.299  0.3494 -0.0921  0.3731
15696TIP3    H168503   4.083   6.249  14.272 -0.1113 -0.0663  1.8172
15696TIP3    H268504   4.226   6.244  14.222 -0.8647 -0.4029 -0.3896
15697TIP3   OH268505   1.197   5.320   2.078 -0.1213  0.1634 -0.2429
15697TIP3    H168506   1.214   5.298   1.987  2.0945 -2.9447  0.8459
15697TIP3    H268507   1.284   5.328   2.117 -1.0413 -1.3482  2.2214
15698TIP3   OH268508   5.678   2.465   2.039  0.3427 -0.4773 -0.4379
15698TIP3    H168509   5.696   2.559   2.034 -4.2331  0.5178 -0.1449
15698TIP3    H268510   5.751   2.430   2.090  2.1349  2.8917 -0.5263
15699TIP3   OH268511   3.402   2.804   3.229  0.6816  0.3183 -0.7210
15699TIP3    H168512   3.445   2.887   3.205 -0.2330  0.5643 -1.5754
15699TIP3    H268513   3.467   2.737   3.209  1.1107  0.7731 -0.8640
15700TIP3   OH268514   6.316   0.414  15.750  0.1388 -0.2389  0.0232
15700TIP3    H168515   6.226   0.392  15.776  0.8487 -1.7985  1.2960
15700TIP3    H268516   6.354   0.330  15.722  0.0537  1.0338 -4.2964
15701TIP3   OH268517   3.983   1.499   2.178  0.2949  0.0302  0.1530
15701TIP3    H168518   3.998   1.592   2.195  2.2628 -0.0176 -1.2348
15701TIP3    H268519   3.988   1.458   2.264  0.0913  1.1056  0.6880
15702TIP3   OH268520   3.560   4.646   1.123 -0.0583  0.1214  1.0447
15702TIP3    H168521   3.584   4.718   1.182 -0.5681  0.7480  0.4813
15702TIP3    H268522   3.643   4.619   1.084 -0.3448  3.0643 -1.7833
15703TIP3   OH268523   3.441   6.053  14.494  0.2550  0.2757  0.1420
15703TIP3    H168524   3.416   6.145  14.496  0.4092  0.3104  0.6377
15703TIP3    H268525   3.437   6.025  14.586 -0.7785 -0.4776 -0.1193
15704TIP3   OH268526   0.491   0.295  12.378  0.1480 -0.3785  0.6262
15704TIP3    H168527   0.515   0.224  12.319  0.1059  1.2418 -1.3840
15704TIP3    H268528   0.470   0.251  12.461  1.4359 -2.5678 -0.1726
15705TIP3   OH268529   4.603   6.032   4.643 -0.1851  0.2636  0.4862
15705TIP3    H168530   4.556   6.010   4.562  0.5088 -0.0868  0.1739
15705TIP3    H268531   4.569   6.118   4.667 -0.8041  0.1271  0.1284
15706TIP3   OH268532   1.911   2.755  15.667  0.2497  0.8161  0.1088
15706TIP3    H168533   1.891   2.848  15.657  0.5223  0.8069 -0.5382
15706TIP3    H268534   1.894   2.717  15.581  0.4459  0.3233  0.2841
15707TIP3   OH268535   3.840   5.660  10.849  0.1475  0.1963 -0.0106
15707TIP3    H168536   3.824   5.749  10.881  0.7422  0.5917 -0.8045
15707TIP3    H268537   3.935   5.649  10.856  0.1656 -0.0807 -0.6950
15708TIP3   OH268538   6.703   4.379  14.893 -0.1372  0.2652 -0.3572
15708TIP3    H168539   6.608   4.381  14.905 -0.3307  1.3738 -1.9394
15708TIP3    H268540   6.724   4.286  14.887 -1.2175  0.0410 -0.7892
15709TIP3   OH268541   1.741   2.872   5.883 -0.1734 -0.0787 -0.1926
15709TIP3    H168542   1.806   2.924   5.931 -0.9498  0.0542  0.7329
15709TIP3    H268543   1.753   2.897   5.792 -0.3209  1.4774  0.2073
15710TIP3   OH268544   1.559   5.744   3.441  0.0059 -0.4102  0.0200
15710TIP3    H168545   1.650   5.731   3.414  0.2365 -1.2206  1.1314
15710TIP3    H268546   1.526   5.655   3.455  0.9558 -0.0520  5.7700
15711TIP3   OH268547   0.128   5.187   3.503  0.2345 -0.0775 -0.0805
15711TIP3    H168548   0.092   5.228   3.582  0.0959  3.2516 -1.7877
15711TIP3    H268549   0.196   5.247   3.474 -0.7885 -0.3984 -3.3606
15712TIP3   OH268550   0.350   1.411   0.629  0.0219 -0.6610 -0.3767
15712TIP3    H168551   0.398   1.489   0.655 -0.2179 -0.6603  0.0702
15712TIP3    H268552   0.387   1.341   0.682 -1.7640 -0.3204  1.3886
15713TIP3   OH268553   3.050   0.526   0.212 -0.2416 -0.0911  0.4115
15713TIP3    H168554   3.049   0.513   0.117 -1.2843 -1.7022  0.6430
15713TIP3    H268555   2.972   0.482   0.244 -0.9075  2.0251  1.8427
15714TIP3   OH268556   2.340   6.319   4.534  0.0681 -0.1495  0.4608
15714TIP3    H168557   2.382   6.406   4.536  0.3747 -0.3059  0.8020
15714TIP3    H268558   2.341   6.290   4.625 -2.9703  0.8893  0.8881
15715TIP3   OH268559   6.772   6.025  12.356 -0.7635 -0.0652 -0.4967
15715TIP3    H168560   6.765   5.941  12.402  1.5105  0.9963  1.8607
15715TIP3    H268561   6.708   6.081  12.399  0.6185  0.6174  0.6857
15716TIP3   OH268562   2.127   1.495   4.066 -0.4227  0.7289 -0.3643
15716TIP3    H168563   2.156   1.421   4.012 -0.5573 -0.4154  1.1010
15716TIP3    H268564   2.116   1.567   4.004  0.7484 -0.1839 -1.6656
15717TIP3   OH268565   6.022   0.219   2.732  0.3529  0.2248 -0.0892
15717TIP3    H168566   6.060   0.280   2.794 -0.5551  0.1795  0.5262
15717TIP3    H268567   5.936   0.197   2.769  0.6309 -1.3541 -0.3359
15718TIP3   OH268568   1.698   1.904   4.587  0.1061  0.0377 -0.0783
15718TIP3    H168569   1.744   1.907   4.504  1.4547  2.7466  0.7303
15718TIP3    H268570   1.658   1.990   4.597 -2.6443 -1.2369  0.6817
15719TIP3   OH268571   3.068   5.377  14.163 -0.0746 -0.3159 -0.2033
15719TIP3    H168572   2.999   5.323  14.125  1.2791 -0.0012 -3.2994
15719TIP3    H268573   3.142   5.316  14.173  0.7069  0.3878 -1.5038
15720TIP3   OH268574   1.135   1.458  17.089 -0.4605  0.1641  0.0061
15720TIP3    H168575   1.211   1.482  17.036 -1.5728 -0.3777 -1.9248
15720TIP3    H268576   1.102   1.541  17.123  0.3636  0.5204 -0.0555
15721TIP3   OH268577   6.518   1.077   0.711 -0.8421 -0.1824  0.2244
15721TIP3    H168578   6.442   1.089   0.769 -0.5371  0.2907  0.5285
15721TIP3    H268579   6.594   1.080   0.769 -0.4104  2.1453 -0.4118
15722TIP3   OH268580   5.507   6.006   0.124  0.3834 -0.1307  0.3709
15722TIP3    H168581   5.541   5.938   0.183 -1.2348 -0.3757  1.0647
15722TIP3    H268582   5.466   5.957   0.053 -2.2289  0.0184  1.6886
15723TIP3   OH268583   0.469   1.436  11.633  0.1848 -0.2063  0.2989
15723TIP3    H168584   0.562   1.458  11.645 -0.2828  2.1970 -0.2988
15723TIP3    H268585   0.431   1.444  11.721 -0.0884  2.0520  0.0100
15724TIP3   OH268586   0.302   4.333   0.097  0.2691 -0.1418 -0.0424
15724TIP3    H168587   0.390   4.298   0.103  0.5833  0.3856 -1.2976
15724TIP3    H268588   0.293   4.392   0.171  1.7149  1.3892 -1.0560
15725TIP3   OH268589   3.473   3.694  15.247 -0.1102  0.1683 -0.3030
15725TIP3    H168590   3.497   3.784  15.270  2.3239 -0.5043 -0.0137
15725TIP3    H268591   3.491   3.688  15.153 -3.4742  0.9086 -1.0653
15726TIP3   OH268592   2.116   1.362   4.601 -0.5156 -0.1074  0.3164
15726TIP3    H168593   2.056   1.337   4.671  1.3835 -4.3880  0.5793
15726TIP3    H268594   2.174   1.427   4.641 -2.1256  0.7179  1.3591
15727TIP3   OH268595   1.470   2.325   6.452 -0.0972 -0.4305 -0.1533
15727TIP3    H168596   1.398   2.268   6.425 -0.9691  0.4250  0.3368
15727TIP3    H268597   1.544   2.296   6.400 -0.8751 -1.1133 -0.8951
15728TIP3   OH268598   5.435   0.930   5.769 -0.2650 -0.1047  0.1449
15728TIP3    H168599   5.432   1.011   5.819 -0.7641  0.5931 -0.9795
15728TIP3    H268600   5.359   0.879   5.800 -1.7381  1.1655 -1.2461
15729TIP3   OH268601   0.025   6.170   5.277  0.0328  0.6342 -0.3425
15729TIP3    H168602   0.011   6.263   5.262  1.3618  0.7143 -1.1940
15729TIP3    H268603   0.082   6.142   5.205  0.9696 -0.4764  0.7913
15730TIP3   OH268604   2.867   4.981   1.921  0.2613 -0.1998  0.5394
15730TIP3    H168605   2.825   5.008   2.003 -0.9837 -0.2604 -0.0739
15730TIP3    H268606   2.854   4.886   1.917  2.1003 -0.5026  1.2595
15731TIP3   OH268607   1.075   0.285  16.496 -0.8419  0.2522  0.0900
15731TIP3    H168608   0.984   0.255  16.489 -0.2412 -1.8917  0.9574
15731TIP3    H268609   1.119   0.215  16.543  1.7900  0.1511 -2.3633
15732TIP3   OH268610   2.162   0.217   1.529  0.3436  0.4148  0.2337
15732TIP3    H168611   2.107   0.174   1.464  0.1775 -0.5726  1.0207
15732TIP3    H268612   2.107   0.224   1.607  1.0703  0.1072  0.7897
15733TIP3   OH268613   5.350   5.048   3.321  0.6159 -0.5891  0.1566
15733TIP3    H168614   5.302   5.061   3.403  1.1714 -1.9055  0.7163
15733TIP3    H268615   5.321   5.119   3.264 -0.9001 -0.5217  0.9812
15734TIP3   OH268616   1.312   4.810  13.362  0.0334 -0.0870 -0.2597
15734TIP3    H168617   1.362   4.859  13.428  1.2895 -0.8803 -0.6014
15734TIP3    H268618   1.344   4.720  13.370 -0.5632 -0.3937 -1.2345
15735TIP3   OH268619   3.512   3.196   3.769  0.5931  0.0644  0.5841
15735TIP3    H168620   3.491   3.274   3.718 -1.3881 -0.2412  0.9154
15735TIP3    H268621   3.608   3.195   3.771  0.6591  2.1536  0.0834
15736TIP3   OH268622   1.162   5.117  12.465  0.0991  0.4063 -0.6894
15736TIP3    H168623   1.232   5.126  12.530 -1.1660 -2.1681  1.1206
15736TIP3    H268624   1.092   5.174  12.498 -0.2700 -0.3437 -0.1633
15737TIP3   OH268625   5.410   2.816  13.217 -0.1158 -0.3810 -0.8560
15737TIP3    H168626   5.505   2.816  13.233  0.2200 -1.8250 -2.6812
15737TIP3    H268627   5.394   2.898  13.169  0.1894 -0.0889 -0.4648
15738TIP3   OH268628   5.703   6.356  13.577 -0.2610  0.4034  0.5173
15738TIP3    H168629   5.750   6.364  13.493 -2.7360  1.9259 -0.7759
15738TIP3    H268630   5.734   6.431  13.629  2.0525 -1.1253  1.3932
15739TIP3   OH268631   0.541   0.532   1.225  0.7960  0.0190  0.4622
15739TIP3    H168632   0.482   0.571   1.161  0.5958 -0.8204  0.1281
15739TIP3    H268633   0.594   0.605   1.257 -0.6087  0.8465  0.9793
15740TIP3   OH268634   3.619   2.870   1.868  0.2067  0.2254  0.1882
15740TIP3    H168635   3.645   2.907   1.953 -0.2839 -0.7953  0.7909
15740TIP3    H268636   3.702   2.841   1.829  0.4734  1.0109  0.1597
15741TIP3   OH268637   0.209   4.211   3.906 -0.4353 -0.5397  0.0146
15741TIP3    H168638   0.203   4.129   3.856 -0.1114 -0.5703  0.0263
15741TIP3    H268639   0.253   4.272   3.848  0.5570 -0.7738  0.5036
15742TIP3   OH268640   5.702   4.687  15.014 -0.5673 -0.1253  0.9248
15742TIP3    H168641   5.623   4.727  14.977 -0.8493  0.1715  1.8257
15742TIP3    H268642   5.774   4.741  14.982 -0.6092 -1.0892 -0.8652
15743TIP3   OH268643   2.626   4.374  16.733  0.0681 -0.1298 -0.1280
15743TIP3    H168644   2.628   4.329  16.817 -1.4789 -0.7119 -0.3749
15743TIP3    H268645   2.711   4.418  16.726  0.4298 -0.5619  1.4588
15744TIP3   OH268646   3.664   3.358   5.420 -0.1462  0.0852 -0.6804
15744TIP3    H168647   3.572   3.351   5.445  0.2843 -1.3490  0.5281
15744TIP3    H268648   3.692   3.268   5.405  0.5306  0.6554 -3.0496
15745TIP3   OH268649   6.707   1.166   0.465  0.0777 -0.3471  0.6185
15745TIP3    H168650   6.661   1.130   0.389 -0.0093  0.1454  0.4349
15745TIP3    H268651   6.745   1.248   0.433  0.1076 -0.1802  1.0830
15746TIP3   OH268652   1.806   3.736  15.788  0.1023  0.2598 -0.3568
15746TIP3    H168653   1.828   3.649  15.822  0.5055  0.7631  0.6891
15746TIP3    H268654   1.722   3.723  15.744  1.2296 -1.1391 -2.1907
15747TIP3   OH268655   2.868   5.914   3.263 -0.0456 -0.1837  0.1908
15747TIP3    H168656   2.855   5.907   3.169  1.6180 -4.1192  0.1544
15747TIP3    H268657   2.959   5.939   3.274  0.1442 -1.0811  0.7499
15748TIP3   OH268658   1.403   6.026   4.646  0.3632 -0.2765  0.2166
15748TIP3    H168659   1.319   5.992   4.613  0.1191 -0.1874  0.7418
15748TIP3    H268660   1.393   6.121   4.646  1.4299 -0.1253 -2.2624
15749TIP3   OH268661   0.606   6.142  15.205 -0.2068 -0.4745 -0.0112
15749TIP3    H168662   0.662   6.104  15.137  0.2809  1.3764 -0.6674
15749TIP3    H268663   0.577   6.067  15.256 -2.8005 -2.3021 -3.8851
15750TIP3   OH268664   0.783   3.839  16.228  0.2713  0.6299  0.0365
15750TIP3    H168665   0.705   3.859  16.177  0.7531 -0.9910 -1.3532
15750TIP3    H268666   0.752   3.839  16.319 -1.9524 -2.5915 -0.6360
15751TIP3   OH268667   5.278   0.418  12.629 -0.3175  0.4720  1.0770
15751TIP3    H168668   5.298   0.471  12.552  0.0355  1.9702  2.1801
15751TIP3    H268669   5.364   0.399  12.668 -0.5207  0.0386  1.3156
15752TIP3   OH268670   0.400   6.275   1.378  0.3879 -0.5138 -0.0521
15752TIP3    H168671   0.316   6.294   1.336  0.8649  0.6123 -0.5255
15752TIP3    H268672   0.432   6.198   1.332  0.4609  0.1457 -1.1150
15753TIP3   OH268673   5.918   1.450  13.252 -0.0834 -0.6513 -0.0808
15753TIP3    H168674   5.835   1.495  13.271 -0.0729 -0.0333 -1.3985
15753TIP3    H268675   5.985   1.507  13.288 -0.0211  0.8465 -2.4381
15754TIP3   OH268676   5.524   1.404  15.630 -0.8863  0.4044  0.1629
15754TIP3    H168677   5.587   1.456  15.580 -0.8436  0.3082  0.1168
15754TIP3    H268678   5.452   1.464  15.649 -0.9418  0.4159 -0.0852
15755TIP3   OH268679   0.761   6.275   5.783 -0.0572  0.2102 -0.1001
15755TIP3    H168680   0.734   6.224   5.859 -1.3548 -1.8922 -1.8985
15755TIP3    H268681   0.846   6.238   5.759  0.0819  0.4755 -0.0137
15756TIP3   OH268682   4.410   0.831   1.955  0.0265  0.0480 -0.6771
15756TIP3    H168683   4.374   0.914   1.925  1.3393  0.5452 -0.9175
15756TIP3    H268684   4.474   0.807   1.887  1.7385  0.3023  0.8021
15757TIP3   OH268685   6.622   2.916   2.019  0.2934 -0.4823 -0.1048
15757TIP3    H168686   6.699   2.954   1.976  0.1251  0.7952  0.6941
15757TIP3    H268687   6.561   2.990   2.028 -0.4769 -1.1871  0.4855
15758TIP3   OH268688   2.028   0.036   5.453  1.1725  0.1322 -0.2114
15758TIP3    H168689   2.093   0.075   5.511  0.2758 -0.1513  1.0056
15758TIP3    H268690   2.079  -0.006   5.384  2.2154  1.4093 -0.2385
15759TIP3   OH268691   0.323   3.437  13.606  0.2940 -0.8775  0.1147
15759TIP3    H168692   0.259   3.380  13.566  1.2156 -0.5116 -1.9598
15759TIP3    H268693   0.271   3.505  13.649 -0.7344 -1.0327 -0.8518
15760TIP3   OH268694   2.360   6.003   6.527  0.0168  0.5426 -0.1972
15760TIP3    H168695   2.317   6.088   6.520  0.9587  1.1025  0.5838
15760TIP3    H268696   2.326   5.952   6.453 -0.8447  1.4644 -0.4438
15761TIP3   OH268697   2.272   3.101  12.915  0.0377  0.8916  0.5779
15761TIP3    H168698   2.205   3.103  12.846 -0.0816 -0.6444  0.6409
15761TIP3    H268699   2.337   3.038  12.883 -0.7421 -0.9459  2.5280
15762TIP3   OH268700   0.147   0.933   4.367  0.2272  0.0426 -0.0995
15762TIP3    H168701   0.243   0.927   4.362  0.3867  0.0899  2.2902
15762TIP3    H268702   0.123   0.867   4.432 -1.3669  0.2092 -0.5058
15763TIP3   OH268703   1.186   6.517   4.079 -0.0847  0.1169 -0.3824
15763TIP3    H168704   1.190   6.577   4.154  1.3208 -1.5793  0.9583
15763TIP3    H268705   1.219   6.434   4.114 -1.8485 -1.4039 -2.2336
15764TIP3   OH268706   4.241   0.406  11.065 -0.2136 -0.1707  0.2471
15764TIP3    H168707   4.318   0.378  11.115 -0.3633  0.7732  1.0241
15764TIP3    H268708   4.277   0.449  10.988  0.0641  1.4162  1.2464
15765TIP3   OH268709   2.974   1.010   0.714  0.3725 -0.2417  0.3530
15765TIP3    H168710   3.056   1.035   0.757  1.8658 -3.3326 -0.5538
15765TIP3    H268711   2.989   1.030   0.621  0.7111 -2.2070 -0.0354
15766TIP3   OH268712   6.782   4.604  14.734 -0.0490 -0.3577 -0.5515
15766TIP3    H168713   6.756   4.519  14.770 -2.8713 -0.1219 -1.9145
15766TIP3    H268714   6.753   4.602  14.643  2.3664  1.0402 -1.4191
15767TIP3   OH268715   0.043   6.648  12.763 -0.2995  0.1643 -0.0450
15767TIP3    H168716   0.002   6.605  12.687  0.1083 -0.6169  0.1673
15767TIP3    H268717   0.050   6.578  12.829  1.7796  0.1673 -0.2311
15768TIP3   OH268718   0.845   2.019  14.923 -0.3449  0.4033  0.1777
15768TIP3    H168719   0.867   2.053  14.837  0.0871  2.5237  1.0942
15768TIP3    H268720   0.916   2.049  14.980 -1.7765  0.9769  1.7037
15769TIP3   OH268721   6.544   5.854   6.229  0.6011 -0.4993  0.1025
15769TIP3    H168722   6.474   5.869   6.165  0.0260  2.1443  1.2887
15769TIP3    H268723   6.617   5.819   6.177 -0.5828 -0.4790 -1.6288
15770TIP3   OH268724   0.830   3.608   2.622 -0.0309  0.1098 -0.2163
15770TIP3    H168725   0.766   3.562   2.567 -1.2909 -1.2174  2.2834
15770TIP3    H268726   0.852   3.687   2.572 -2.3484 -0.2498 -1.8912
15771TIP3   OH268727   0.928   2.837  15.525 -0.6431  0.3698  0.3883
15771TIP3    H168728   1.009   2.839  15.474 -0.6373  1.2532  0.4179
15771TIP3    H268729   0.891   2.924  15.514 -0.5718  0.6209  2.0020
15772TIP3   OH268730   0.408   1.792   5.160 -0.1056  0.1556 -0.4867
15772TIP3    H168731   0.376   1.734   5.229 -0.7764  2.0500  0.8232
15772TIP3    H268732   0.489   1.829   5.196 -1.0990  2.0736 -0.2044
15773TIP3   OH268733   1.972   3.010  12.109  0.2511 -0.1464 -0.1139
15773TIP3    H168734   2.047   3.052  12.152  1.5514 -2.5520  0.0604
15773TIP3    H268735   1.900   3.019  12.172  0.0221  3.2055 -0.7631
15774TIP3   OH268736   4.528   2.221  14.258 -0.1180 -0.4723 -0.8294
15774TIP3    H168737   4.623   2.206  14.254  0.5395  3.5519 -2.3598
15774TIP3    H268738   4.506   2.209  14.351  2.2306  0.3417 -0.1333
15775TIP3   OH268739   0.897   2.532   5.927 -0.4553 -0.1303  0.6571
15775TIP3    H168740   0.919   2.440   5.940 -0.7082 -0.2822  0.0012
15775TIP3    H268741   0.980   2.574   5.904 -0.5144 -0.3671  0.0132
15776TIP3   OH268742   5.232   5.736   4.451 -0.3084 -0.0464  0.4158
15776TIP3    H168743   5.223   5.717   4.357 -0.1153 -0.6943  0.5280
15776TIP3    H268744   5.267   5.826   4.454 -0.0020 -0.1452 -0.1378
15777TIP3   OH268745   4.730   2.332   1.320 -0.4195  0.0414  1.3047
15777TIP3    H168746   4.712   2.370   1.406  1.3916  1.1987  1.1968
15777TIP3    H268747   4.799   2.387   1.283 -1.1131 -0.4803 -0.8729
15778TIP3   OH268748   6.165   5.491  16.261 -0.6525  0.0455  0.0574
15778TIP3    H168749   6.079   5.498  16.302 -1.0480  0.5519 -0.8368
15778TIP3    H268750   6.180   5.577  16.220 -0.1063 -0.3215 -0.5315
15779TIP3   OH268751   1.335   0.148   2.435  0.0050  0.0009 -0.1717
15779TIP3    H168752   1.383   0.143   2.518  0.1614  0.2164 -0.2477
15779TIP3    H268753   1.282   0.068   2.433  0.3427 -0.2314 -0.0724
15780TIP3   OH268754   3.643   4.358   3.516 -0.3495 -0.3781 -0.5102
15780TIP3    H168755   3.561   4.367   3.469 -0.1103  1.9852 -0.5362
15780TIP3    H268756   3.707   4.335   3.448 -0.3498  1.2327 -1.0888
15781TIP3   OH268757   6.092   4.305   0.194 -0.3436  0.3005  0.2037
15781TIP3    H168758   6.106   4.383   0.248 -1.2420  2.3107 -2.3566
15781TIP3    H268759   6.140   4.236   0.239  0.5963  2.3510  2.4811
15782TIP3   OH268760   1.774   3.660  12.630 -0.1286 -0.0538  0.0141
15782TIP3    H168761   1.806   3.610  12.555 -2.1950 -1.7898  0.2318
15782TIP3    H268762   1.680   3.672  12.612 -0.3144  0.9148  1.5436
15783TIP3   OH268763   5.520   4.867  14.655 -0.1634  1.1626  0.0509
15783TIP3    H168764   5.460   4.931  14.619 -0.8878 -0.0681 -0.9727
15783TIP3    H268765   5.544   4.812  14.581 -0.9692 -0.8583  1.2358
15784TIP3   OH268766   0.546   6.290   4.573 -0.3227 -0.1625 -0.6205
15784TIP3    H168767   0.601   6.366   4.554  1.8988 -0.9228  2.2991
15784TIP3    H268768   0.544   6.240   4.492  1.7443  0.8760 -1.3333
15785TIP3   OH268769   2.438   1.357  13.088 -0.0828  0.6821  0.2096
15785TIP3    H168770   2.402   1.446  13.091 -2.3196 -0.1712 -0.7650
15785TIP3    H268771   2.436   1.333  12.996  0.6910 -0.3231  0.4474
15786TIP3   OH268772   3.400   5.526  13.956  1.1228  0.5159  0.4002
15786TIP3    H168773   3.464   5.519  13.885  0.1853  0.3698 -0.4285
15786TIP3    H268774   3.315   5.513  13.914  0.5548  0.5102  1.5333
15787TIP3   OH268775   2.167   0.309  15.453 -0.9240 -0.0262 -0.0490
15787TIP3    H168776   2.225   0.385  15.452 -1.2672  0.2694  1.7918
15787TIP3    H268777   2.080   0.344  15.434 -1.0982  0.0653  0.8987
15788TIP3   OH268778   3.913   2.104   5.544  0.4293  0.0026 -0.0829
15788TIP3    H168779   3.920   2.166   5.471  1.5757  1.1442  0.9755
15788TIP3    H268780   3.837   2.134   5.594  0.2766 -0.1523 -0.2206
15789TIP3   OH268781   3.682   0.304   1.913  0.4706  0.0382 -0.0316
15789TIP3    H168782   3.768   0.300   1.872  0.1991  1.2243 -0.7414
15789TIP3    H268783   3.701   0.310   2.007  1.2062  1.4627 -0.2510
15790TIP3   OH268784   2.258   1.453   2.367  0.0240  0.2478 -0.0762
15790TIP3    H168785   2.301   1.536   2.347  0.4658 -0.4390 -2.0557
15790TIP3    H268786   2.174   1.459   2.322  0.4805 -0.7889 -1.0783
15791TIP3   OH268787   4.858   0.130   1.681  0.0189 -0.1316 -0.4614
15791TIP3    H168788   4.951   0.147   1.671  0.4957 -2.6563 -0.6656
15791TIP3    H268789   4.836   0.073   1.608 -1.5258 -0.1098 -0.0310
15792TIP3   OH268790   5.471   1.434   0.135 -0.2246 -0.1028  0.0923
15792TIP3    H168791   5.438   1.523   0.119  2.0148  0.7306 -0.1095
15792TIP3    H268792   5.566   1.445   0.140 -0.0115 -2.3065  1.3419
15793TIP3   OH268793   2.185   6.763   1.214 -0.1918 -1.2204  0.3183
15793TIP3    H168794   2.227   6.849   1.214 -2.1339 -0.1805 -2.3501
15793TIP3    H268795   2.092   6.782   1.226 -0.5033 -3.0459  0.9077
15794TIP3   OH268796   4.250   2.641  15.642 -0.1665 -0.2539  0.7271
15794TIP3    H168797   4.338   2.650  15.678 -0.4149 -1.6517  1.7205
15794TIP3    H268798   4.198   2.607  15.715 -1.2573 -0.6091 -0.1986
15795TIP3   OH268799   5.054   3.127  14.760 -0.8574  0.2270 -0.2632
15795TIP3    H168800   5.136   3.167  14.730 -1.0158  0.6346 -0.1591
15795TIP3    H268801   5.015   3.090  14.681 -0.5664  0.0237 -0.3113
15796TIP3   OH268802   5.417   1.652   2.912  0.4877 -0.0342 -0.2901
15796TIP3    H168803   5.425   1.741   2.944  1.2407 -0.1804 -0.0587
15796TIP3    H268804   5.475   1.648   2.836  2.0358 -0.8892  0.9171
15797TIP3   OH268805   2.725   2.511  12.422 -0.2254 -0.4190  0.5488
15797TIP3    H168806   2.749   2.528  12.331 -0.6034 -1.3301  0.2747
15797TIP3    H268807   2.764   2.584  12.471  0.4250 -0.2041 -0.2731
15798TIP3   OH268808   6.380   1.971   0.554 -0.1312  0.2314 -0.1494
15798TIP3    H168809   6.375   2.066   0.548 -1.3858  0.3133  1.6779
15798TIP3    H268810   6.289   1.942   0.543  0.1268 -0.6942  0.1389
15799TIP3   OH268811   5.140   3.324   0.213 -0.2442 -0.5714 -0.3162
15799TIP3    H168812   5.173   3.293   0.298 -0.2056 -0.0486 -0.1404
15799TIP3    H268813   5.057   3.368   0.234  2.0935  3.8709  0.1239
15800TIP3   OH268814   6.156   0.378  14.588 -0.4880 -0.9402 -0.1498
15800TIP3    H168815   6.243   0.388  14.550 -0.5854  1.2549  0.1282
15800TIP3    H268816   6.171   0.378  14.683 -0.8958  0.8307 -0.0691
15801TIP3   OH268817   4.643   5.185   3.740 -0.3387  0.0812  0.6529
15801TIP3    H168818   4.652   5.279   3.757 -1.6559  0.5350 -1.0139
15801TIP3    H268819   4.564   5.160   3.788 -1.2245  0.2978 -0.6805
15802TIP3   OH268820   5.273   5.862   0.374  0.4725  0.1977  0.2570
15802TIP3    H168821   5.243   5.947   0.405 -1.4553 -0.2011 -0.4821
15802TIP3    H268822   5.272   5.869   0.279  0.0936 -0.7214  0.1846
15803TIP3   OH268823   3.650   2.464  11.184 -0.7626  0.3386 -0.4982
15803TIP3    H168824   3.729   2.517  11.180 -0.9079  0.4997 -1.3540
15803TIP3    H268825   3.666   2.401  11.255  0.4215 -0.0808 -1.1289
15804TIP3   OH268826   6.136   4.896   4.532  0.2409 -0.4978 -0.3271
15804TIP3    H168827   6.189   4.904   4.611  2.1987 -2.4119 -1.4329
15804TIP3    H268828   6.099   4.808   4.536 -0.3058 -0.3157 -1.1743
15805TIP3   OH268829   0.207   5.353   3.157  0.3802  1.0805  0.3002
15805TIP3    H168830   0.138   5.379   3.218  0.6260  0.9924  0.6180
15805TIP3    H268831   0.173   5.376   3.071  0.1135  1.3860  0.4873
15806TIP3   OH268832   4.071   4.552   3.255  0.1519  0.0280 -0.5028
15806TIP3    H168833   4.048   4.468   3.215  1.2161 -0.0195 -1.0326
15806TIP3    H268834   4.117   4.528   3.335 -0.3564  0.1208 -0.1764
15807TIP3   OH268835   2.451   1.324   4.095 -0.3489  0.3980 -0.4063
15807TIP3    H168836   2.380   1.289   4.148  1.5234  0.7153  2.3779
15807TIP3    H268837   2.516   1.355   4.158  1.6563  1.3970 -2.8680
15808TIP3   OH268838   4.289   6.054   0.496 -0.0420 -0.4654 -0.3038
15808TIP3    H168839   4.207   6.092   0.527 -0.0641  0.1905 -1.1438
15808TIP3    H268840   4.306   6.098   0.413  0.4402 -1.5999 -0.8257
15809TIP3   OH268841   0.041   2.610   3.103  0.1778 -0.3055 -0.1967
15809TIP3    H168842  -0.009   2.669   3.046 -2.2960 -1.7359  0.4250
15809TIP3    H268843   0.097   2.668   3.155 -2.2705  1.5487  0.4626
15810TIP3   OH268844   2.026   2.517  10.992  0.2616 -0.0037  0.3262
15810TIP3    H168845   1.992   2.439  11.036 -1.7598  1.5901  1.6601
15810TIP3    H268846   2.071   2.566  11.061 -0.5556  1.1682  0.0534
15811TIP3   OH268847   4.916   0.646   5.146  0.0161 -0.2441 -0.4673
15811TIP3    H168848   4.914   0.585   5.072 -0.9494 -0.5671 -0.1824
15811TIP3    H268849   4.888   0.594   5.221 -1.9175  0.8200 -0.4346
15812TIP3   OH268850   3.071   2.293  14.535  0.4151  0.0534 -0.6340
15812TIP3    H168851   3.160   2.279  14.570 -0.4399 -1.0821  1.1867
15812TIP3    H268852   3.047   2.380  14.566  0.6287  0.0896 -0.5639
15813TIP3   OH268853   5.174   2.771   6.413  0.1637  0.0372 -0.1793
15813TIP3    H168854   5.084   2.754   6.441 -0.0882  2.2526  0.4021
15813TIP3    H268855   5.227   2.723   6.476 -0.5748 -0.7363 -0.1247
15814TIP3   OH268856   5.908   3.411  15.713  0.1614 -0.0712 -0.5636
15814TIP3    H168857   5.934   3.339  15.770 -1.8040 -0.2742  0.0999
15814TIP3    H268858   5.865   3.368  15.639 -0.5914  0.3935 -0.3980
15815TIP3   OH268859   4.105   5.916  12.372  0.5591  0.0080  0.2627
15815TIP3    H168860   4.143   5.836  12.408 -0.4217 -1.0573 -1.0228
15815TIP3    H268861   4.028   5.933  12.426  0.0763 -0.6012 -0.2373
15816TIP3   OH268862   3.461   6.191  11.161 -0.3171 -0.9196 -0.0639
15816TIP3    H168863   3.482   6.146  11.243 -0.4634 -0.5072  0.1989
15816TIP3    H268864   3.543   6.188  11.110  0.5601  1.1166  1.1569
15817TIP3   OH268865   4.583   2.924  15.935  0.3403 -0.2166  0.0665
15817TIP3    H168866   4.643   2.967  15.996 -0.4488  2.2583 -0.8624
15817TIP3    H268867   4.638   2.899  15.861  0.9610 -1.6401  0.9708
15818TIP3   OH268868   6.747   5.583  13.531 -0.7028  0.1679  0.8245
15818TIP3    H168869   6.703   5.554  13.451 -1.2793  1.2585  0.7426
15818TIP3    H268870   6.705   5.666  13.554  0.7554  0.8302  1.1957
15819TIP3   OH268871   0.585   4.402   5.745 -0.0303  0.1485 -0.1800
15819TIP3    H168872   0.495   4.431   5.759  0.0052  0.0252  0.3095
15819TIP3    H268873   0.623   4.398   5.833  0.2450 -0.4790 -0.3267
15820TIP3   OH268874   0.976   5.165   5.955  0.0377 -0.0547  0.8091
15820TIP3    H168875   0.931   5.213   5.886 -0.5390 -0.6019  0.7902
15820TIP3    H268876   0.941   5.201   6.036 -0.1325 -0.1912  0.7985
15821TIP3   OH268877   6.335   6.352  11.846 -0.3923 -0.0735  0.4178
15821TIP3    H168878   6.311   6.384  11.759 -0.3469 -0.0175  0.4260
15821TIP3    H268879   6.305   6.420  11.906 -0.6914 -0.2505  0.4680
15822TIP3   OH268880   4.711   0.555   5.808 -0.1158 -0.1530 -0.2004
15822TIP3    H168881   4.700   0.632   5.753  0.9600  0.7518  0.8198
15822TIP3    H268882   4.765   0.585   5.881 -2.1042 -1.1390  1.7232
15823TIP3   OH268883   5.938   6.175   0.681  0.0247  0.1960 -0.3769
15823TIP3    H168884   5.908   6.107   0.620  1.3478 -0.2045 -0.6007
15823TIP3    H268885   5.897   6.153   0.764  0.3882 -0.8421 -0.4698
15824TIP3   OH268886   2.500   3.441   1.279  0.1142  0.1108 -0.2343
15824TIP3    H168887   2.437   3.388   1.326 -0.3830  0.2977 -0.6865
15824TIP3    H268888   2.521   3.390   1.200 -1.3755  1.1730 -1.3401
15825TIP3   OH268889   1.597   5.915  11.407 -0.6600  0.0792 -0.2451
15825TIP3    H168890   1.645   5.966  11.472 -1.0465  1.3603 -0.9436
15825TIP3    H268891   1.505   5.923  11.432 -0.6688 -0.8422  0.0307
15826TIP3   OH268892   1.611   6.239  16.599  0.5649 -0.1902  0.0148
15826TIP3    H168893   1.678   6.172  16.606  1.4000  0.2116 -3.5501
15826TIP3    H268894   1.529   6.191  16.586  0.5847 -0.5707  1.1891
15827TIP3   OH268895   4.386   1.033   0.816  0.0146  0.2213 -0.1808
15827TIP3    H168896   4.422   1.081   0.891  0.0043  1.1468 -0.7758
15827TIP3    H268897   4.457   1.034   0.751  0.1463 -0.8630 -0.0787
15828TIP3   OH268898   6.052   4.128  13.425 -0.5876  0.3281  0.6103
15828TIP3    H168899   6.130   4.155  13.377  0.8478  0.8839  3.1535
15828TIP3    H268900   6.049   4.187  13.500 -2.9051 -0.3473  1.0694
15829TIP3   OH268901   2.436   0.235  15.178 -0.4568  0.0986  0.2431
15829TIP3    H168902   2.480   0.305  15.129 -1.5011 -1.0715 -2.4575
15829TIP3    H268903   2.351   0.272  15.201  0.0997  0.7093  1.3892
15830TIP3   OH268904   4.192   4.235  14.046  0.1662  0.5527  0.0428
15830TIP3    H168905   4.277   4.217  14.086  0.6093  1.1926 -0.6153
15830TIP3    H268906   4.144   4.285  14.112  0.2058 -0.0114  0.5058
15831TIP3   OH268907   6.535   3.704   3.886 -0.8358  0.1415 -0.2244
15831TIP3    H168908   6.475   3.735   3.818 -1.6079 -1.4294 -0.2728
15831TIP3    H268909   6.622   3.720   3.850 -1.1966  2.8426  0.0239
15832TIP3   OH268910   6.098   1.432   0.892 -0.0338 -0.5865  0.1235
15832TIP3    H168911   6.043   1.465   0.820  0.6834 -0.4523 -0.3731
15832TIP3    H268912   6.184   1.472   0.876  0.0831 -0.4155  1.1674
15833TIP3   OH268913   2.615   3.517  11.515 -0.3128 -0.0300 -0.1841
15833TIP3    H168914   2.607   3.608  11.487  0.8642  1.1034  2.9987
15833TIP3    H268915   2.566   3.468  11.449 -0.4065  2.8144 -2.3325
15834TIP3   OH268916   3.499   4.054  13.346 -0.1559  0.0266  0.1932
15834TIP3    H168917   3.543   4.080  13.265  0.8793 -0.7852  0.5001
15834TIP3    H268918   3.412   4.095  13.340 -0.1012 -0.0719 -1.3431
15835TIP3   OH268919   6.550   5.032   0.847 -0.5770  0.2714  0.4797
15835TIP3    H168920   6.538   5.100   0.913  0.1664  0.2529  0.6466
15835TIP3    H268921   6.482   5.047   0.783  1.1947  2.8067 -0.8651
15836TIP3   OH268922   0.532   3.478   5.450 -0.1765 -0.0852  0.4863
15836TIP3    H168923   0.475   3.555   5.452 -0.5707 -0.3677  0.2318
15836TIP3    H268924   0.608   3.506   5.400  0.7116  0.8364  2.3141
15837TIP3   OH268925   3.784   2.736  15.157  0.0247  0.0216  0.5007
15837TIP3    H168926   3.747   2.815  15.198  0.4672  0.0807  0.7860
15837TIP3    H268927   3.842   2.699  15.223  0.3234 -0.1849  0.1283
15838TIP3   OH268928   1.616   2.069  16.335  0.3891  0.1547 -0.6131
15838TIP3    H168929   1.634   2.158  16.305 -0.2485  0.7481  0.7485
15838TIP3    H268930   1.699   2.036  16.367  0.4111  0.6007 -0.2232
15839TIP3   OH268931   2.354   1.217  16.620 -0.0715 -0.3175  0.9895
15839TIP3    H168932   2.343   1.253  16.707 -0.0463  0.5499  0.6339
15839TIP3    H268933   2.356   1.122  16.633  0.2275 -0.1750  1.9594
15840TIP3   OH268934   3.924   3.630  11.592 -0.8186 -0.3297 -0.0404
15840TIP3    H168935   3.831   3.623  11.614 -1.4119 -0.4216 -2.3558
15840TIP3    H268936   3.938   3.723  11.578 -0.8408 -0.4178 -0.6950
15841TIP3   OH268937   2.913   1.518   0.484 -0.0357  0.0137 -0.3868
15841TIP3    H168938   2.998   1.552   0.456 -0.4507  2.1207  0.7649
15841TIP3    H268939   2.852   1.550   0.418 -0.0641 -0.7225 -0.7168
15842TIP3   OH268940   0.479   4.418  16.033 -0.1899  0.1302  0.2468
15842TIP3    H168941   0.461   4.395  15.942  1.9052  0.3554 -0.2687
15842TIP3    H268942   0.481   4.514  16.033 -0.8791  0.1449  0.6809
15843TIP3   OH268943   4.106   3.271  14.969 -0.0828 -0.1246 -0.1503
15843TIP3    H168944   4.113   3.176  14.963  1.2301  0.0425 -1.4815
15843TIP3    H268945   4.052   3.297  14.895 -1.1378  0.1035  0.6865
15844TIP3   OH268946   5.142   5.853   5.692  0.0643 -0.1030 -0.0395
15844TIP3    H168947   5.125   5.786   5.758  1.2474 -0.2295  0.1339
15844TIP3    H268948   5.214   5.817   5.639 -2.2400 -0.9817 -2.7348
15845TIP3   OH268949   6.399   4.617   2.034 -0.1212 -0.0159 -0.3689
15845TIP3    H168950   6.447   4.669   1.970 -0.0646 -1.4729 -1.5307
15845TIP3    H268951   6.307   4.627   2.009 -0.0641 -0.9859 -1.0049
15846TIP3   OH268952   0.840   5.042  11.036  0.7091 -0.4879  0.3722
15846TIP3    H168953   0.786   5.061  11.113 -0.3887  1.3117 -0.7986
15846TIP3    H268954   0.921   5.091  11.052 -0.7068  2.3842 -0.9712
15847TIP3   OH268955   4.819   6.743  13.885 -0.4181  0.6729  0.5374
15847TIP3    H168956   4.820   6.668  13.826 -1.7052  1.3570 -0.3733
15847TIP3    H268957   4.905   6.785  13.871  0.0253 -0.2323  0.5436
15848TIP3   OH268958   2.048   0.532   5.372  0.7703 -0.3618 -0.4795
15848TIP3    H168959   1.982   0.540   5.303  0.6482 -1.5472 -0.5088
15848TIP3    H268960   2.088   0.447   5.357 -0.9226 -1.7381  2.3370
15849TIP3   OH268961   5.052   5.455  13.487 -0.3485 -0.0417 -0.0538
15849TIP3    H168962   5.109   5.469  13.562 -1.0384  0.4612  0.3769
15849TIP3    H268963   5.097   5.389  13.434  0.3554 -0.0544  0.5686
15850TIP3   OH268964   3.549   3.904   1.045 -0.1562 -0.2273  0.6972
15850TIP3    H168965   3.473   3.859   1.082 -1.6160  0.8892 -0.8623
15850TIP3    H268966   3.565   3.977   1.104 -1.3827  0.5356  0.0929
15851TIP3   OH268967   4.294   0.563  10.854 -0.4055 -0.1516  0.1498
15851TIP3    H168968   4.279   0.500  10.783 -0.5959  0.7502 -0.6117
15851TIP3    H268969   4.380   0.600  10.836 -0.0137 -0.6504  0.9572
15852TIP3   OH268970   3.062   4.326  12.653 -0.2261  0.0869 -0.3004
15852TIP3    H168971   3.132   4.261  12.652  0.6806  1.0391  0.8116
15852TIP3    H268972   2.982   4.275  12.651  0.4286 -1.1816  3.3691
15853TIP3   OH268973   0.358   3.371   4.860  0.2912 -0.2400 -0.1186
15853TIP3    H168974   0.268   3.389   4.885 -0.1900 -1.4588 -0.9037
15853TIP3    H268975   0.355   3.359   4.765  1.2759 -0.2690 -0.1562
15854TIP3   OH268976   0.955   2.472   2.161 -0.4765  0.5873  0.0587
15854TIP3    H168977   0.943   2.380   2.137  0.6342  0.9491 -2.0445
15854TIP3    H268978   1.049   2.481   2.177 -0.5606  1.3772  0.1374
15855TIP3   OH268979   1.907   4.662  15.206 -0.2531 -0.4289 -0.1169
15855TIP3    H168980   1.825   4.666  15.254 -0.4229  0.3459 -0.4512
15855TIP3    H268981   1.886   4.700  15.120  0.3588 -0.5842 -0.3393
15856TIP3   OH268982   1.787   3.405   2.949 -0.1388  0.6216 -0.3511
15856TIP3    H168983   1.821   3.390   3.037 -0.6676 -0.1820 -0.2702
15856TIP3    H268984   1.692   3.401   2.960 -0.1985 -3.2842 -1.5583
15857TIP3   OH268985   4.376   0.243   1.661  0.1897  0.0769 -0.0167
15857TIP3    H168986   4.416   0.162   1.630 -0.3378 -0.1635 -0.0765
15857TIP3    H268987   4.300   0.256   1.604  0.8924  1.2008 -0.7265
15858TIP3   OH268988   5.923   2.090  17.126  0.6470  1.1600  0.5565
15858TIP3    H168989   5.930   1.996  17.143  2.3466  1.1077 -0.3215
15858TIP3    H268990   6.014   2.121  17.122  0.1189  2.7526  0.3517
15859TIP3   OH268991   4.866   6.005  12.879 -0.3935  0.0397  0.3345
15859TIP3    H168992   4.858   5.911  12.863 -1.5851  0.1326  0.3239
15859TIP3    H268993   4.929   6.036  12.813  0.4849 -0.8460  0.7499
15860TIP3   OH268994   2.885   2.407   4.419  0.0508  0.0227 -0.1212
15860TIP3    H168995   2.909   2.384   4.329  1.4913 -1.6299  0.6668
15860TIP3    H268996   2.964   2.392   4.470 -1.4172 -1.3135  1.8109
15861TIP3   OH268997   0.089   4.878   4.963 -0.3248 -0.1403  0.3822
15861TIP3    H168998   0.083   4.900   4.870  0.7604 -1.0627  0.0793
15861TIP3    H268999  -0.003   4.871   4.991 -0.6943 -1.9241 -1.1427
15862TIP3   OH269000   5.473   5.907  12.864 -0.1870  0.4670 -0.6969
15862TIP3    H169001   5.430   5.835  12.910 -1.2107 -0.2592 -2.7686
15862TIP3    H269002   5.566   5.884  12.865 -0.5072 -0.8832 -1.3411
15863TIP3   OH269003   3.866   1.790   1.724  0.1846 -0.0253  0.0371
15863TIP3    H169004   3.901   1.778   1.812  1.1421 -0.0710 -0.3415
15863TIP3    H269005   3.847   1.884   1.718 -1.8994 -0.3518  1.0144
15864TIP3   OH269006   0.519   2.906   6.161 -0.2190  0.3477 -0.0639
15864TIP3    H169007   0.547   2.894   6.252 -0.3960  0.9716  0.0772
15864TIP3    H269008   0.597   2.886   6.109 -0.3418 -0.7987  0.1829
15865TIP3   OH269009   5.150   5.911  11.489  0.7733 -0.0050  0.0993
15865TIP3    H169010   5.198   5.993  11.484 -0.3323  0.6125 -0.8367
15865TIP3    H269011   5.134   5.897  11.582 -1.3329  2.2466  0.1333
15866TIP3   OH269012   1.337   2.696   0.074 -0.6358  0.0471 -0.6544
15866TIP3    H169013   1.355   2.772   0.128 -2.0112 -0.3396  0.3737
15866TIP3    H269014   1.422   2.673   0.036  0.2095  0.7504  0.7658
15867TIP3   OH269015   0.786   2.134  10.662  0.4630 -0.1547  0.4240
15867TIP3    H169016   0.859   2.174  10.614  1.2715 -0.6651  1.2124
15867TIP3    H269017   0.797   2.040  10.646 -0.4843 -0.1769 -0.0965
15868TIP3   OH269018   4.314   5.353  14.980 -0.3348  0.2541 -0.4691
15868TIP3    H169019   4.345   5.265  14.998  0.8659  0.4687 -1.4326
15868TIP3    H269020   4.218   5.346  14.984 -0.2713 -1.2313 -1.2218
15869TIP3   OH269021   6.147   4.473  15.307 -0.5115 -0.3722  0.8526
15869TIP3    H169022   6.163   4.383  15.335  0.9645 -0.2133  0.5785
15869TIP3    H269023   6.153   4.471  15.212  1.4903  0.3437  0.9340
15870TIP3   OH269024   5.280   0.500  16.069  0.2412  0.1546  1.4281
15870TIP3    H169025   5.299   0.506  15.975 -1.5696  0.8638  1.0741
15870TIP3    H269026   5.364   0.514  16.112  1.0443  0.0630 -0.0925
15871TIP3   OH269027   6.394   6.707   0.058  0.3243  0.8830 -0.5825
15871TIP3    H169028   6.315   6.721   0.110  1.8620  1.3927  1.6672
15871TIP3    H269029   6.434   6.793   0.050  0.8220  0.5813 -1.4313
15872TIP3   OH269030   3.498   3.188   5.921  0.0313  0.1483 -0.1313
15872TIP3    H169031   3.582   3.234   5.929  0.6379 -1.2895  2.4936
15872TIP3    H269032   3.509   3.130   5.846  1.8640 -0.9475  0.9516
15873TIP3   OH269033   1.849   5.901  15.599  0.3712  0.0034  0.3337
15873TIP3    H169034   1.816   5.986  15.629 -0.2491 -0.1822  0.2037
15873TIP3    H269035   1.808   5.889  15.513  1.1337 -0.0409 -0.0224
15874TIP3   OH269036   5.822   0.591   2.244 -0.2112 -0.0121 -0.2125
15874TIP3    H169037   5.776   0.571   2.164 -1.1512 -0.9207  0.5496
15874TIP3    H269038   5.753   0.615   2.307  0.2688 -1.9655  1.1051
15875TIP3   OH269039   0.914   4.960   1.027 -0.4598 -0.1969  0.3639
15875TIP3    H169040   0.929   5.051   1.000 -1.9699 -0.2472 -0.7143
15875TIP3    H269041   0.895   4.914   0.946  2.5311 -1.9959  0.6168
15876TIP3   OH269042   1.182   1.741  14.984  0.0504  0.3703 -0.1742
15876TIP3    H169043   1.265   1.708  14.949 -0.1322 -0.0872 -0.1861
15876TIP3    H269044   1.150   1.801  14.917  0.5462  0.8261 -0.0092
15877TIP3   OH269045   0.706   1.966   1.193 -0.2324 -0.1169  0.4928
15877TIP3    H169046   0.725   1.899   1.259 -0.6301  1.0638  1.8389
15877TIP3    H269047   0.611   1.967   1.185 -0.1211 -1.2228 -1.1484
15878TIP3   OH269048   0.608   2.452   2.298  0.2348 -0.0205  0.5111
15878TIP3    H169049   0.669   2.454   2.225 -1.2350  0.3034 -0.7362
15878TIP3    H269050   0.570   2.364   2.296  1.2719 -0.5182  1.8172
15879TIP3   OH269051   6.572   5.930   4.842  0.5682 -0.8310  0.8361
15879TIP3    H169052   6.560   5.955   4.750 -0.0727 -0.3702  1.0412
15879TIP3    H269053   6.590   6.012   4.887 -0.0703 -0.9322  1.2757
15880TIP3   OH269054   1.578   1.649   5.793  0.0137 -0.0496 -0.3210
15880TIP3    H169055   1.513   1.689   5.734  0.2025 -2.1670 -1.9874
15880TIP3    H269056   1.526   1.622   5.869 -0.4847  1.2779 -0.1617
15881TIP3   OH269057   1.679   6.762  14.242  0.0500 -0.2315  0.9064
15881TIP3    H169058   1.595   6.796  14.275  1.1269  1.7348  1.6702
15881TIP3    H269059   1.692   6.808  14.160  0.4006 -0.5165  0.8051
15882TIP3   OH269060   6.579   2.712  10.888 -0.1165 -0.2271  0.1003
15882TIP3    H169061   6.545   2.629  10.857 -0.4053  0.1504 -0.5911
15882TIP3    H269062   6.663   2.722  10.844 -0.5705  0.3533 -0.6415
15883TIP3   OH269063   0.768   4.687   2.698  0.0599 -0.4392 -0.1332
15883TIP3    H169064   0.831   4.679   2.770  0.4786 -0.7161 -0.5193
15883TIP3    H269065   0.740   4.597   2.682 -2.2688 -0.0653  1.6231
15884TIP3   OH269066   3.120   3.483   5.021 -0.0028 -0.1896  0.1396
15884TIP3    H169067   3.161   3.509   4.938 -0.6483 -0.3551 -0.2362
15884TIP3    H269068   3.034   3.524   5.019  1.0756  2.3325  2.0898
15885TIP3   OH269069   5.355   4.555  14.984  0.3847  0.2662 -0.0223
15885TIP3    H169070   5.289   4.544  14.915 -0.6471  0.6385  0.8818
15885TIP3    H269071   5.405   4.632  14.957  0.0377  0.3628 -0.3998
15886TIP3   OH269072   6.476   3.734   0.566  0.5208 -0.6233  0.3098
15886TIP3    H169073   6.386   3.761   0.550  1.1830  1.2042 -0.3888
15886TIP3    H269074   6.515   3.806   0.616  2.1187 -0.5520 -0.9909
15887TIP3   OH269075   1.607   2.299  14.563 -0.1662  0.2212  0.1983
15887TIP3    H169076   1.692   2.332  14.534  0.0849  2.1930  2.9690
15887TIP3    H269077   1.552   2.303  14.485  1.8264  0.4944 -1.2312
15888TIP3   OH269078   4.245   6.446   1.288  0.5529  0.1432  0.0088
15888TIP3    H169079   4.241   6.351   1.276  0.9061  0.2135 -0.7700
15888TIP3    H269080   4.329   6.461   1.331 -0.5316 -0.0793  2.2300
15889TIP3   OH269081   5.416   2.454  12.363  0.0373 -1.0398 -0.5117
15889TIP3    H169082   5.394   2.495  12.279  0.8988 -1.0594 -0.7504
15889TIP3    H269083   5.341   2.397  12.382 -1.0173  0.3395 -0.3531
15890TIP3   OH269084   2.927   2.916   4.748  0.1039 -0.4061 -0.0384
15890TIP3    H169085   2.883   2.871   4.821  1.1950 -1.4837 -0.0295
15890TIP3    H269086   3.020   2.900   4.763  0.4941  1.6784 -0.1931
15891TIP3   OH269087   4.481   4.431  13.640 -0.4185  0.2699 -0.6214
15891TIP3    H169088   4.453   4.523  13.635  1.7173  0.8965 -1.4103
15891TIP3    H269089   4.538   4.419  13.565  3.0115 -0.4247  1.9938
15892TIP3   OH269090   0.673   1.906  14.634  0.0345  0.4946  0.3448
15892TIP3    H169091   0.627   1.984  14.665  0.4137  0.4127  1.1019
15892TIP3    H269092   0.732   1.939  14.566 -1.5337  0.5267 -1.0377
15893TIP3   OH269093   6.656   5.421   2.266  0.6295  0.6756 -0.0961
15893TIP3    H169094   6.574   5.385   2.233  2.3173 -2.0507 -1.4832
15893TIP3    H269095   6.657   5.512   2.237 -1.3902  0.4212 -0.9815
15894TIP3   OH269096   1.350   3.275   4.038  0.3897 -0.9018  0.0885
15894TIP3    H169097   1.258   3.291   4.018  0.5118  0.5677  0.6156
15894TIP3    H269098   1.355   3.276   4.133  0.6319 -2.9967  0.1187
15895TIP3   OH269099   4.846   3.312  17.135 -0.8124 -0.1647 -0.6021
15895TIP3    H169100   4.882   3.293  17.222  0.4893  1.3112 -0.7773
15895TIP3    H269101   4.802   3.232  17.108  0.9242 -1.4764  0.3774
15896TIP3   OH269102   1.943   1.240  14.981 -0.5624 -0.3360  0.2338
15896TIP3    H169103   1.977   1.305  15.042  0.5432 -0.8642  0.1910
15896TIP3    H269104   1.884   1.186  15.034 -1.5744  0.7637  0.2431
15897TIP3   OH269105   6.083   3.824   5.115  0.1213 -0.8433  0.2107
15897TIP3    H169106   5.992   3.854   5.120 -0.0578 -1.7687  3.3785
15897TIP3    H269107   6.095   3.801   5.022 -3.0101 -1.1315 -0.1803
15898TIP3   OH269108   2.770   0.593  12.520 -0.1200  0.2097  0.2495
15898TIP3    H169109   2.776   0.629  12.609 -1.7133 -1.6107  1.1356
15898TIP3    H269110   2.682   0.619  12.491 -0.0310 -0.1754 -0.3562
15899TIP3   OH269111   0.613   2.332  16.014 -0.0458  0.2088  0.3508
15899TIP3    H169112   0.659   2.312  15.933 -1.0095 -0.9210  0.0602
15899TIP3    H269113   0.638   2.422  16.035  2.4502 -0.4479  0.3425
15900TIP3   OH269114   3.811   0.083   4.450 -0.2569  0.1022  0.0056
15900TIP3    H169115   3.725   0.086   4.492  0.8652  1.1987  2.3246
15900TIP3    H269116   3.871   0.116   4.516  1.7922  0.5852 -2.0308
15901TIP3   OH269117   2.303   4.892  14.144  0.2661  0.1513  0.0737
15901TIP3    H169118   2.246   4.836  14.091  1.0688  0.6575 -1.3403
15901TIP3    H269119   2.277   4.981  14.122  2.3144  0.4200 -1.4158
15902TIP3   OH269120   1.075   1.188   1.562  0.5819 -0.1850 -0.8122
15902TIP3    H169121   1.017   1.112   1.562 -0.7076  0.7909 -0.0597
15902TIP3    H269122   1.029   1.254   1.509  0.6368  0.8557  0.4094
15903TIP3   OH269123   2.179   4.253   3.654  0.3859 -0.2305 -0.1520
15903TIP3    H169124   2.129   4.172   3.636  1.3743 -0.5721 -1.4398
15903TIP3    H269125   2.122   4.303   3.712 -0.7577 -1.3423 -0.2753
15904TIP3   OH269126   4.597   2.494   0.377 -0.5454  0.0119 -0.0483
15904TIP3    H169127   4.615   2.564   0.439 -0.3986  0.9293 -1.1295
15904TIP3    H269128   4.649   2.515   0.300  0.7941 -2.1547  0.2033
15905TIP3   OH269129   6.141   3.945  15.727 -0.5789  0.4492  0.6186
15905TIP3    H169130   6.061   3.979  15.766  0.2852  1.1241  1.8363
15905TIP3    H269131   6.111   3.889  15.656 -2.1489  0.2029  1.4546
15906TIP3   OH269132   5.213   0.977   1.624  0.1803 -0.6011  0.0580
15906TIP3    H169133   5.250   0.915   1.561  1.0142 -3.2651  3.0405
15906TIP3    H269134   5.276   1.049   1.628 -0.3835  0.1328 -2.8218
15907TIP3   OH269135   3.261   1.015  12.275  0.7075  0.4512 -0.5729
15907TIP3    H169136   3.212   0.942  12.237 -1.0077  1.2261  0.0775
15907TIP3    H269137   3.294   1.064  12.200  3.0051 -1.7093 -1.0140
15908TIP3   OH269138   4.349   6.160   3.731 -0.3574  0.4614  0.2986
15908TIP3    H169139   4.369   6.090   3.669 -1.2879  1.0229 -0.6694
15908TIP3    H269140   4.318   6.115   3.810  0.6041 -0.2503  0.2685
15909TIP3   OH269141   6.670   1.857  11.352 -0.2429 -0.4988 -0.3260
15909TIP3    H169142   6.615   1.794  11.306  0.8420 -0.1251 -2.1913
15909TIP3    H269143   6.756   1.817  11.354 -0.1742 -0.3225  1.0640
15910TIP3   OH269144   4.703   4.634  15.001 -0.2637 -0.0933  0.2490
15910TIP3    H169145   4.781   4.618  15.053 -0.7614 -0.4168  0.9007
15910TIP3    H269146   4.634   4.587  15.046 -0.5826 -0.8814 -1.0374
15911TIP3   OH269147   3.607   4.308  14.782 -0.6085  0.1067 -0.3653
15911TIP3    H169148   3.666   4.288  14.708 -0.7686 -1.6338 -0.0589
15911TIP3    H269149   3.611   4.229  14.837 -2.5713  0.3055  0.0920
15912TIP3   OH269150   4.874   2.264  15.445  0.1927 -0.1537  0.0360
15912TIP3    H169151   4.915   2.324  15.382  1.6284 -0.8656  0.2709
15912TIP3    H269152   4.856   2.185  15.394 -1.0493  0.1992 -0.0974
15913TIP3   OH269153   2.264   5.450   0.081  0.6471  0.5493  0.9346
15913TIP3    H169154   2.311   5.368   0.068 -1.5775 -0.5938 -0.1386
15913TIP3    H269155   2.283   5.501   0.002 -0.4541 -0.1790  0.1989
15914TIP3   OH269156   3.552   4.556  14.552 -0.2035 -0.0712  0.0964
15914TIP3    H169157   3.609   4.586  14.623 -2.0699 -1.1307  2.1234
15914TIP3    H269158   3.480   4.619  14.551  0.5735  0.8154 -1.9227
15915TIP3   OH269159   3.776   3.161  14.569  0.0974 -0.0923 -0.4575
15915TIP3    H169160   3.714   3.098  14.532  0.3435 -0.4536 -0.2489
15915TIP3    H269161   3.772   3.236  14.509 -0.7981  0.0272 -0.2575
15916TIP3   OH269162   4.138   3.778  16.290 -0.5220  0.3464 -0.1590
15916TIP3    H169163   4.191   3.845  16.247 -0.0605 -1.0422 -1.8091
15916TIP3    H269164   4.140   3.704  16.230 -4.7444  0.4158 -0.5224
15917TIP3   OH269165   4.318   1.233  15.212  0.2232 -0.2151  0.2451
15917TIP3    H169166   4.395   1.211  15.159 -1.1980 -1.9702 -1.1439
15917TIP3    H269167   4.332   1.187  15.294  0.5532 -0.7424 -0.0990
15918TIP3   OH269168   0.124   3.482  11.772  0.2519 -0.2013  0.5893
15918TIP3    H169169   0.215   3.494  11.746  0.5668 -0.3421  1.6038
15918TIP3    H269170   0.099   3.566  11.812 -0.2322  0.0220 -0.1684
15919TIP3   OH269171   6.444   4.519  12.879  0.2964  0.1191  0.1292
15919TIP3    H169172   6.381   4.587  12.903 -1.5652 -0.8800 -1.8095
15919TIP3    H269173   6.507   4.563  12.823  0.2276  0.6878  0.4945
15920TIP3   OH269174   1.339   3.410   5.552  0.1495  0.2579  0.1061
15920TIP3    H169175   1.292   3.474   5.499  0.9498  0.3814 -0.4683
15920TIP3    H269176   1.401   3.370   5.491 -1.0502 -1.8148  0.2061
15921TIP3   OH269177   2.850   4.663   2.759  0.6915 -0.1130  0.0886
15921TIP3    H169178   2.755   4.659   2.745  0.4952  0.2437  1.2777
15921TIP3    H269179   2.863   4.625   2.845  1.6549 -0.3264 -0.1507
15922TIP3   OH269180   0.630   3.445   1.210 -0.1480 -0.0404  0.0306
15922TIP3    H169181   0.709   3.412   1.252 -0.0814 -0.9100 -0.7548
15922TIP3    H269182   0.625   3.398   1.127 -2.2450 -1.0474  0.6770
15923TIP3   OH269183   4.649   2.937   1.930 -0.7457  0.0793 -0.5961
15923TIP3    H169184   4.586   2.867   1.948  1.4066 -2.0695 -1.0568
15923TIP3    H269185   4.641   2.953   1.836 -2.3850  1.6463 -0.2136
15924TIP3   OH269186   2.503   0.090   5.706 -0.0178  0.5820  0.5116
15924TIP3    H169187   2.583   0.127   5.670 -0.2214 -0.2442 -0.8085
15924TIP3    H269188   2.530   0.046   5.787  1.0253 -0.5627 -0.4440
15925TIP3   OH269189   5.371   2.557  12.111  0.0814  0.1130  0.5231
15925TIP3    H169190   5.402   2.551  12.021 -0.3032 -1.2743  0.4644
15925TIP3    H269191   5.279   2.582  12.104 -0.0153 -0.2408  0.5158
15926TIP3   OH269192   5.158   2.336  10.654  0.0525 -0.0184  0.4256
15926TIP3    H169193   5.114   2.382  10.725 -1.1537 -1.4566  0.6249
15926TIP3    H269194   5.110   2.363  10.575  0.5398  0.5132  0.3003
15927TIP3   OH269195   3.150   4.206  11.432  0.3933 -0.1058  0.0023
15927TIP3    H169196   3.181   4.191  11.522  0.6344 -2.1689 -0.4025
15927TIP3    H269197   3.185   4.132  11.382 -1.2376  0.0670 -1.4333
15928TIP3   OH269198   0.624   4.757  12.533 -0.2450  0.3513  0.1595
15928TIP3    H169199   0.645   4.680  12.587  0.5038 -1.1020 -2.1479
15928TIP3    H269200   0.533   4.778  12.557 -0.6365 -1.5737  0.4501
15929TIP3   OH269201   1.687   3.233  13.142  0.3463 -0.5122  0.5802
15929TIP3    H169202   1.592   3.231  13.152  0.1850  0.7665 -0.5904
15929TIP3    H269203   1.713   3.320  13.171  0.7587  0.3206 -2.1368
15930TIP3   OH269204   5.279   5.416  16.307 -0.4218 -0.2210 -0.8188
15930TIP3    H169205   5.298   5.470  16.384 -1.7000 -1.1030  0.1674
15930TIP3    H269206   5.275   5.477  16.234 -1.9534  1.0407  0.2906
15931TIP3   OH269207   1.332   1.803  12.518 -0.0725 -0.7543 -0.6556
15931TIP3    H169208   1.342   1.827  12.610 -0.6363  0.4274 -0.8829
15931TIP3    H269209   1.421   1.800  12.483  0.0466  0.5161 -0.4791
15932TIP3   OH269210   6.329   6.350   3.811  0.0042 -0.4845  0.1470
15932TIP3    H169211   6.351   6.279   3.750  1.0683  0.9398 -1.1590
15932TIP3    H269212   6.234   6.359   3.804 -0.1265 -1.6634  0.2105
15933TIP3   OH269213   0.476   1.129   0.767 -0.4533  0.0864 -0.4039
15933TIP3    H169214   0.569   1.107   0.775 -0.5545  0.4115  2.1289
15933TIP3    H269215   0.441   1.063   0.707  1.3802 -0.1161 -1.2861
15934TIP3   OH269216   0.800   4.293   1.899  0.2908  0.1761 -0.1182
15934TIP3    H169217   0.885   4.252   1.883  1.4082  2.2984  0.1951
15934TIP3    H269218   0.797   4.303   1.994  0.0223  0.8185 -0.1978
15935TIP3   OH269219   4.550   4.433  12.710 -0.3004 -0.6695  0.1772
15935TIP3    H169220   4.499   4.475  12.779  1.2847 -0.8505  1.5105
15935TIP3    H269221   4.551   4.496  12.638 -0.9790  0.0263  0.7721
15936TIP3   OH269222   4.849   2.084   3.133  0.8623 -0.0640 -0.6275
15936TIP3    H169223   4.860   1.990   3.148  0.9399  0.2519  1.3958
15936TIP3    H269224   4.754   2.096   3.132  0.8545  0.0223  0.4377
15937TIP3   OH269225   3.792   3.398  15.093  0.2404  0.5104 -0.1781
15937TIP3    H169226   3.727   3.333  15.121  1.5804 -0.3737  0.9591
15937TIP3    H269227   3.837   3.355  15.019  0.7675  0.3423  0.2326
15938TIP3   OH269228   0.624   3.884  13.965 -0.1921 -0.2239 -0.4296
15938TIP3    H169229   0.553   3.824  13.992  0.6448 -1.2388 -0.4465
15938TIP3    H269230   0.702   3.829  13.966  0.3085  0.4321 -2.1862
15939TIP3   OH269231   2.499   0.791  15.341  0.0873  0.6981  0.4042
15939TIP3    H169232   2.464   0.871  15.380 -0.5840  0.2647  0.6919
15939TIP3    H269233   2.424   0.751  15.296  0.8669  1.2562 -1.4483
15940TIP3   OH269234   3.435   0.426  15.302  0.0172  0.1987 -0.0612
15940TIP3    H169235   3.426   0.484  15.377 -0.5877  0.2983 -0.2099
15940TIP3    H269236   3.422   0.482  15.226 -3.4997 -0.6384 -0.1450
15941TIP3   OH269237   6.715   2.333   1.784 -0.0567  0.5976  0.1339
15941TIP3    H169238   6.753   2.416   1.754 -0.6069  1.0982  0.8018
15941TIP3    H269239   6.713   2.341   1.880 -0.3367 -0.0924  0.1870
15942TIP3   OH269240   3.330   6.309  13.018  0.3036  0.8551  0.0399
15942TIP3    H169241   3.254   6.272  12.973  0.6410 -1.4914  1.3031
15942TIP3    H269242   3.401   6.306  12.954 -0.1590  1.1031 -0.4808
15943TIP3   OH269243   0.800   2.033  17.022  0.1441  0.3137 -0.0337
15943TIP3    H169244   0.792   2.003  17.112  1.6266 -0.0244  0.0014
15943TIP3    H269245   0.831   2.123  17.029 -1.3606  0.8674 -0.1936
15944TIP3   OH269246   2.995   5.092  12.230  0.1653  0.0492 -0.4682
15944TIP3    H169247   3.070   5.052  12.186 -0.2599 -1.1065 -0.1694
15944TIP3    H269248   2.998   5.056  12.319 -1.4217 -0.9258 -0.7905
15945TIP3   OH269249   4.280   6.371   2.999 -0.2884 -0.4104 -0.2072
15945TIP3    H169250   4.261   6.464   3.013 -0.1505 -0.4559  0.2801
15945TIP3    H269251   4.268   6.331   3.085 -0.3189 -0.8401 -0.4102
15946TIP3   OH269252   0.873   6.094   3.704 -0.6219  0.3810  0.3626
15946TIP3    H169253   0.933   6.145   3.759  0.5646 -0.1393 -0.4161
15946TIP3    H269254   0.930   6.053   3.638 -2.2093  2.8142 -2.6749
15947TIP3   OH269255   1.137   6.491  14.014 -0.1570 -0.4183  0.4151
15947TIP3    H169256   1.132   6.420  13.950  2.6210 -0.8381  0.6030
15947TIP3    H269257   1.218   6.537  13.993  0.1078  0.2841  2.7894
15948TIP3   OH269258   2.536   3.964  16.481 -0.5929 -0.1901 -0.2517
15948TIP3    H169259   2.477   4.029  16.443 -1.0385 -0.1584  0.4790
15948TIP3    H269260   2.507   3.956  16.572  1.0586  0.4324  0.3505
15949TIP3   OH269261   3.352   5.381  15.037 -0.0388 -0.6092 -0.1350
15949TIP3    H169262   3.411   5.414  15.105 -0.8942 -1.7664  1.1930
15949TIP3    H269263   3.410   5.345  14.970  0.7838 -0.4637  0.4945
15950TIP3   OH269264   4.741   2.098   3.418 -0.0178 -0.1290 -0.0179
15950TIP3    H169265   4.810   2.060   3.363  1.4967  1.1809  0.9129
15950TIP3    H269266   4.740   2.191   3.393 -0.3591  0.1658  1.0698
15951TIP3   OH269267   4.713   2.179   4.417 -0.3337  0.9139  0.7392
15951TIP3    H169268   4.718   2.102   4.473 -1.0984  0.9175  0.8293
15951TIP3    H269269   4.803   2.210   4.410 -0.1492  0.5621  1.4711
15952TIP3   OH269270   4.822   0.996  16.660  0.4888  0.2432 -0.2090
15952TIP3    H169271   4.862   0.943  16.592  2.3727  1.0950  0.2050
15952TIP3    H269272   4.845   1.086  16.638  1.1447  0.5297  1.5600
15953TIP3   OH269273   4.003   0.611  14.282 -0.0728 -0.4553 -0.1440
15953TIP3    H169274   3.940   0.583  14.349 -0.7931 -1.3521 -1.1678
15953TIP3    H269275   3.951   0.616  14.201  0.9739 -0.2722 -0.8189
15954TIP3   OH269276   6.395   0.071  14.147  0.0402 -0.3211  0.0986
15954TIP3    H169277   6.357   0.014  14.079  1.1877  0.9909 -1.6870
15954TIP3    H269278   6.333   0.144  14.154  0.2065 -0.1768  0.0559
15955TIP3   OH269279   3.372   0.440   5.559  0.2947 -0.0442 -0.7943
15955TIP3    H169280   3.330   0.361   5.591 -1.2807 -0.2906 -3.3479
15955TIP3    H269281   3.437   0.461   5.626 -0.2910 -2.6203  0.6551
15956TIP3   OH269282   5.133   1.337   1.124  0.2994  0.2244 -0.8320
15956TIP3    H169283   5.105   1.330   1.215 -1.4730  0.0967 -1.3687
15956TIP3    H269284   5.174   1.252   1.104  0.7482  0.2799 -0.1458
15957TIP3   OH269285   4.051   4.586   5.454 -0.1959  0.5222 -0.1011
15957TIP3    H169286   4.056   4.552   5.365 -0.3490 -0.7390  0.3675
15957TIP3    H269287   4.069   4.511   5.510  1.0708  1.5597  0.9128
15958TIP3   OH269288   2.317   1.429  17.131  0.8330 -0.0045  0.7113
15958TIP3    H169289   2.222   1.430  17.123  0.9993  1.1647 -1.4520
15958TIP3    H269290   2.339   1.336  17.138 -0.3307 -0.3831 -0.4993
15959TIP3   OH269291   5.714   3.319   0.577 -0.4413 -0.2916 -0.1788
15959TIP3    H169292   5.692   3.231   0.609  1.1759 -1.2524 -1.6016
15959TIP3    H269293   5.632   3.352   0.539 -0.4302 -2.2678 -2.0097
15960TIP3   OH269294   1.027   2.472   5.341  0.3663  0.2707  0.3231
15960TIP3    H169295   0.950   2.502   5.292  1.1394  1.5836 -0.1043
15960TIP3    H269296   0.993   2.452   5.428 -0.7574 -0.7013 -0.3275
15961TIP3   OH269297   0.861   2.706  12.417 -0.0438  0.4505  0.3707
15961TIP3    H169298   0.795   2.771  12.392 -0.1421 -0.6954 -2.6387
15961TIP3    H269299   0.857   2.641  12.347  2.0511 -1.3045  1.8380
15962TIP3   OH269300   0.349   3.618   0.578 -0.0575 -0.1410 -0.5300
15962TIP3    H169301   0.300   3.544   0.542  1.8060 -0.4720 -2.4648
15962TIP3    H269302   0.344   3.606   0.673 -1.4695 -1.6081 -0.7569
15963TIP3   OH269303   3.868   5.172   2.676  0.6256 -0.5984 -0.0306
15963TIP3    H169304   3.788   5.129   2.648  0.5355 -0.5722  0.1877
15963TIP3    H269305   3.908   5.112   2.738 -0.1882  0.2362  1.3137
15964TIP3   OH269306   5.952   4.348  12.442 -0.1632 -0.2379 -0.2095
15964TIP3    H169307   5.875   4.293  12.455  1.0006 -1.8360  0.0942
15964TIP3    H269308   5.950   4.409  12.515  0.6155 -2.3971  1.6872
15965TIP3   OH269309   3.113   0.648  13.450  0.2490 -0.1005  0.1025
15965TIP3    H169310   3.074   0.649  13.362 -0.8808 -0.8976  0.5954
15965TIP3    H269311   3.067   0.716  13.498  0.1245 -0.3982  0.4043
15966TIP3   OH269312   3.189   4.829   2.974  0.1504 -0.2068  0.8545
15966TIP3    H169313   3.127   4.883   3.024  1.5243  1.3103  0.9430
15966TIP3    H269314   3.158   4.835   2.884 -0.3242 -0.1466  1.0174
15967TIP3   OH269315   4.188   5.479   4.914 -0.3259 -0.6562 -0.1807
15967TIP3    H169316   4.193   5.563   4.960  0.7208 -0.6754 -0.2347
15967TIP3    H269317   4.116   5.432   4.956 -0.0297 -0.2748  0.7559
15968TIP3   OH269318   1.094   2.551   0.330  0.5342  0.0039  0.3662
15968TIP3    H169319   1.076   2.626   0.273 -1.2413 -0.0620  0.8186
15968TIP3    H269320   1.179   2.571   0.369 -0.3671  2.3196  1.2805
15969TIP3   OH269321   3.996   3.102  14.058 -0.3297  0.7422 -0.0553
15969TIP3    H169322   4.086   3.112  14.089 -0.2677  0.9746 -0.3068
15969TIP3    H269323   3.956   3.188  14.071 -1.2302  0.0249  2.2729
15970TIP3   OH269324   6.080   1.669  12.929  0.4844 -0.1258  0.1805
15970TIP3    H169325   6.000   1.621  12.953 -0.3292  1.0602 -0.1415
15970TIP3    H269326   6.150   1.621  12.973 -0.2430 -2.0254 -0.6844
15971TIP3   OH269327   5.668   0.637  13.247  0.4152 -0.1296 -0.2490
15971TIP3    H169328   5.732   0.701  13.277 -0.0366  0.0713  0.3192
15971TIP3    H269329   5.637   0.596  13.328  1.9455 -2.2774 -0.7223
15972TIP3   OH269330   2.105   1.926   1.536 -0.8868 -0.6083 -0.5784
15972TIP3    H169331   2.140   2.002   1.489  0.1315 -1.3207 -0.9902
15972TIP3    H269332   2.098   1.956   1.627  1.3769 -0.6294 -0.3752
15973TIP3   OH269333   2.681   1.046  11.974  0.0200 -0.1010 -0.1285
15973TIP3    H169334   2.639   1.117  12.023 -0.8730 -0.8637  0.2441
15973TIP3    H269335   2.742   1.006  12.037  0.4373  0.2590 -0.3013
15974TIP3   OH269336   0.258   6.412  12.996 -0.0418  0.2016 -0.7143
15974TIP3    H169337   0.326   6.374  12.941  0.8457 -0.7518  1.0012
15974TIP3    H269338   0.179   6.362  12.975 -0.0335  0.7229 -2.0573
15975TIP3   OH269339   1.406   2.331   2.967  0.6406  0.4752  0.0771
15975TIP3    H169340   1.386   2.316   3.060 -1.1988  1.6360 -0.1196
15975TIP3    H269341   1.367   2.256   2.923  1.0901  0.1758  0.1814
15976TIP3   OH269342   4.203   5.678   2.279  0.6155  0.3452 -0.0834
15976TIP3    H169343   4.263   5.740   2.319  0.8632 -0.7593  1.2702
15976TIP3    H269344   4.235   5.668   2.189  1.2912  1.2218  0.0560
15977TIP3   OH269345   5.662   3.432  11.491  0.3086  0.4943 -0.4494
15977TIP3    H169346   5.742   3.482  11.476 -0.3515  1.5759 -0.4303
15977TIP3    H269347   5.653   3.377  11.413 -0.5144  2.5366 -1.8356
15978TIP3   OH269348   5.229   1.880   5.979  0.0360  0.4228 -0.4778
15978TIP3    H169349   5.318   1.898   6.009  1.0084 -1.3260 -2.1667
15978TIP3    H269350   5.173   1.912   6.049  2.0337  0.6332  1.0736
15979TIP3   OH269351   2.041   5.228  13.967 -0.0465 -0.2088  0.0101
15979TIP3    H169352   2.089   5.196  14.043 -0.3270  0.1938  0.3620
15979TIP3    H269353   2.106   5.272  13.913  0.2522 -0.9580 -0.2428
15980TIP3   OH269354   1.235   2.662   1.320 -0.0403 -0.4207  0.1374
15980TIP3    H169355   1.194   2.577   1.305  1.6852 -1.2341 -0.1458
15980TIP3    H269356   1.304   2.666   1.254  0.7073  0.6545  0.9770
15981TIP3   OH269357   4.703   3.830  15.605  0.3131  0.0269 -0.4351
15981TIP3    H169358   4.640   3.874  15.549  0.9366 -0.0533 -1.2000
15981TIP3    H269359   4.773   3.802  15.546  0.5198 -0.8873  0.2277
15982TIP3   OH269360   3.499   3.566  11.852  0.0320 -0.8841 -0.1509
15982TIP3    H169361   3.431   3.509  11.887  0.5589 -2.0632 -1.0089
15982TIP3    H269362   3.451   3.639  11.813 -0.7898 -2.0230 -1.3176
15983TIP3   OH269363   3.556   1.130  14.332  0.4329 -0.9239  0.5041
15983TIP3    H169364   3.490   1.107  14.397  0.8262  0.3155  1.3585
15983TIP3    H269365   3.511   1.190  14.272  0.6652 -0.3953  0.8571
15984TIP3   OH269366   2.688   2.913  12.121  0.3684  0.7801 -0.3528
15984TIP3    H169367   2.669   2.894  12.029  2.2146  0.3029 -0.6451
15984TIP3    H269368   2.783   2.905  12.129  0.0839 -0.7842  1.9708
15985TIP3   OH269369   4.141   1.125  14.729 -0.1753  0.4164  0.1788
15985TIP3    H169370   4.158   1.194  14.793  3.1077 -0.2712  0.1192
15985TIP3    H269371   4.130   1.172  14.646  0.0522  1.0167  0.4878
15986TIP3   OH269372   4.271   1.918  14.371 -0.1508 -0.3590 -0.3173
15986TIP3    H169373   4.297   1.935  14.462 -0.3747 -2.0174  0.0647
15986TIP3    H269374   4.352   1.924  14.321  0.1972 -0.8143  0.1921
15987TIP3   OH269375   0.035   4.502   5.942  0.0086  0.1612 -0.0058
15987TIP3    H169376  -0.037   4.500   6.005  0.8571 -0.2979  0.9497
15987TIP3    H269377   0.072   4.414   5.944  0.6154  0.4022 -0.4719
15988TIP3   OH269378   0.175   4.559   1.128  0.2896 -0.5023 -0.1716
15988TIP3    H169379   0.130   4.624   1.183  0.2466 -0.8157  0.1661
15988TIP3    H269380   0.267   4.565   1.155  0.0498 -1.6501  0.9425
15989TIP3   OH269381   2.346   3.531   5.217  0.0466 -0.3042 -0.0121
15989TIP3    H169382   2.365   3.598   5.283 -0.3978  0.1084 -0.2976
15989TIP3    H269383   2.339   3.450   5.266  0.0696 -0.0547  0.4043
15990TIP3   OH269384   5.876   6.278  13.993 -0.1475  0.6310 -0.3905
15990TIP3    H169385   5.954   6.313  13.950  0.7859 -1.4913 -0.5269
15990TIP3    H269386   5.840   6.216  13.930 -0.9983  0.3826  0.3309
15991TIP3   OH269387   1.260   5.195   1.342  0.0959  0.0270 -0.7434
15991TIP3    H169388   1.244   5.102   1.359 -1.0122 -0.0859 -2.3308
15991TIP3    H269389   1.294   5.229   1.425 -1.5230 -1.3302  0.4980
15992TIP3   OH269390   1.667   4.672  14.816  0.0808  0.4912  0.0884
15992TIP3    H169391   1.576   4.662  14.846 -0.9696  4.4084 -1.4811
15992TIP3    H269392   1.666   4.637  14.727  0.2678  0.0104  0.2726
15993TIP3   OH269393   1.099   3.120  15.103  0.2623 -0.2830 -0.5547
15993TIP3    H169394   1.153   3.080  15.171  0.2494  1.9353  0.8080
15993TIP3    H269395   1.009   3.103  15.130  0.2534  0.8348  0.1718
15994TIP3   OH269396   4.609   5.579   0.581 -0.1340  0.0170 -0.2634
15994TIP3    H169397   4.691   5.531   0.594 -0.5935 -0.6185  0.3107
15994TIP3    H269398   4.606   5.595   0.486  1.3303  1.2868 -0.1330
15995TIP3   OH269399   3.295   5.304   3.644 -0.4115  0.0982 -0.1886
15995TIP3    H169400   3.349   5.343   3.574 -0.5399 -0.7653 -0.7763
15995TIP3    H269401   3.348   5.232   3.678  0.5489  1.8131  2.0599
15996TIP3   OH269402   4.685   2.142  15.981  0.1930 -0.1478  0.2027
15996TIP3    H169403   4.778   2.132  15.959  0.1546  1.5495 -0.8296
15996TIP3    H269404   4.683   2.215  16.043 -0.3022 -1.2138  1.4624
15997TIP3   OH269405   0.584   2.749  15.197  0.4724 -0.7217  0.0416
15997TIP3    H169406   0.605   2.669  15.149  0.0317 -0.8524  0.0639
15997TIP3    H269407   0.554   2.718  15.283 -2.3743 -0.6852 -0.8884
15998TIP3   OH269408   0.197   0.573  16.402 -0.0375  0.3904 -0.3301
15998TIP3    H169409   0.126   0.556  16.340  2.9104 -1.5499 -3.3313
15998TIP3    H269410   0.245   0.646  16.363  1.1459 -0.0256  0.3419
15999TIP3   OH269411   1.849   2.058  12.442 -0.0557  0.4550  0.1166
15999TIP3    H169412   1.909   2.053  12.367  1.3910  0.4942  1.2273
15999TIP3    H269413   1.907   2.078  12.516 -1.1808 -1.5960  1.5753
16000TIP3   OH269414   3.718   2.963   2.470 -0.4351 -0.1925 -0.6617
16000TIP3    H169415   3.677   2.930   2.389 -0.0699  1.7196 -1.6582
16000TIP3    H269416   3.809   2.980   2.446 -0.6869  1.8367 -0.3028
16001TIP3   OH269417   5.071   4.662  15.304 -0.2202  0.0361  0.1768
16001TIP3    H169418   5.093   4.691  15.216  0.5842 -0.8341  0.0764
16001TIP3    H269419   4.995   4.713  15.328 -0.9826 -0.3380 -1.3734
16002TIP3   OH269420   3.435   2.174   3.278 -0.3802  0.6596  0.0171
16002TIP3    H169421   3.383   2.141   3.205  1.1618 -1.4036 -0.1876
16002TIP3    H269422   3.372   2.188   3.348 -1.6574  1.2063 -1.2084
16003TIP3   OH269423   4.580   6.414  12.781 -0.0352  0.3004 -0.1374
16003TIP3    H169424   4.612   6.348  12.719 -0.0621 -1.3060  1.5133
16003TIP3    H269425   4.637   6.490  12.768 -0.5269  0.2741 -2.6443
16004TIP3   OH269426   6.183   4.854   0.958 -0.3186 -0.1352 -0.0384
16004TIP3    H169427   6.271   4.816   0.961 -0.0684  0.4452  0.1603
16004TIP3    H269428   6.131   4.799   1.016  0.3422  0.5661  1.2719
16005TIP3   OH269429   0.401   5.174   2.478  0.0776 -0.2306 -0.4988
16005TIP3    H169430   0.429   5.082   2.471 -0.0969 -0.2734 -0.6291
16005TIP3    H269431   0.318   5.170   2.525  0.2289 -0.1117 -0.2195
16006TIP3   OH269432   5.992   1.003   4.886  0.2636 -0.5939  0.2673
16006TIP3    H169433   6.080   0.967   4.880  0.1833 -0.7583  0.0408
16006TIP3    H269434   5.991   1.074   4.821  0.8251  0.6746  1.6289
16007TIP3   OH269435   3.182   5.764   0.011  0.0931  0.2013  0.3519
16007TIP3    H169436   3.133   5.760  -0.071 -0.2547  0.4826  0.5376
16007TIP3    H269437   3.114   5.782   0.077  0.4947  0.9272  0.5672
16008TIP3   OH269438   4.893   4.563  17.036 -0.2728 -0.8933 -0.6727
16008TIP3    H169439   4.811   4.518  17.057 -2.2583  4.0854  3.0319
16008TIP3    H269440   4.936   4.575  17.120  1.2925  2.0283 -1.8305
16009TIP3   OH269441   4.213   3.663   4.365 -0.5114 -0.1073 -0.1331
16009TIP3    H169442   4.162   3.644   4.286 -0.5461  0.6536 -0.3007
16009TIP3    H269443   4.164   3.620   4.435 -1.2812  0.4298 -0.3246
16010TIP3   OH269444   2.450   0.393   3.804  0.4574  0.2207  0.7748
16010TIP3    H169445   2.511   0.466   3.796  0.7576 -0.0520  0.5388
16010TIP3    H269446   2.390   0.419   3.873  0.5854  0.6751  0.7136
16011TIP3   OH269447   6.596   2.378   4.725  0.2788 -0.2835 -0.4490
16011TIP3    H169448   6.617   2.421   4.808  1.1281 -0.4031 -0.6020
16011TIP3    H269449   6.538   2.440   4.681  1.0412  0.4610 -0.4253
16012TIP3   OH269450   6.505   0.344  15.322 -0.2091  0.1805 -0.3123
16012TIP3    H169451   6.515   0.282  15.249 -0.1622  0.2470 -0.3628
16012TIP3    H269452   6.443   0.409  15.289 -0.1021  0.2720 -0.3331
16013TIP3   OH269453   1.651   1.331  12.648  0.3141 -0.3207  0.5642
16013TIP3    H169454   1.675   1.252  12.696  0.4040  0.2876  1.5493
16013TIP3    H269455   1.727   1.350  12.593 -0.6084 -2.1917 -1.4045
16014TIP3   OH269456   6.153   5.148  14.027 -0.4027 -0.6179  0.1464
16014TIP3    H169457   6.218   5.120  14.092 -0.2636  0.3798  0.4415
16014TIP3    H269458   6.151   5.244  14.034 -0.2029 -0.4734 -1.4896
16015TIP3   OH269459   3.705   2.044   2.905 -0.0105 -0.3700 -0.1707
16015TIP3    H169460   3.797   2.029   2.924  0.1186  0.4009 -0.1988
16015TIP3    H269461   3.705   2.099   2.827 -0.4745  0.6402  0.5340
16016TIP3   OH269462   1.182   4.698   3.886  0.9319  0.5606 -0.5298
16016TIP3    H169463   1.137   4.616   3.908 -1.1058  1.7188 -0.2885
16016TIP3    H269464   1.165   4.711   3.793 -2.1143  2.6982  0.2633
16017TIP3   OH269465   1.891   1.627  11.326  0.1721 -0.6767 -0.3761
16017TIP3    H169466   1.921   1.587  11.407 -0.2190 -0.3022 -0.0460
16017TIP3    H269467   1.945   1.586  11.258  3.5632  2.1238  0.4772
16018TIP3   OH269468   4.861   0.025  10.704 -0.2012  0.3434 -0.4571
16018TIP3    H169469   4.936   0.028  10.764  0.0756 -0.2917 -0.7736
16018TIP3    H269470   4.790  -0.010  10.757  0.8605 -3.3936 -1.3453
16019TIP3   OH269471   0.084   4.208   2.507  0.1465 -0.4717  0.3614
16019TIP3    H169472   0.132   4.247   2.433 -1.1631 -0.8448 -0.7122
16019TIP3    H269473  -0.001   4.251   2.506 -0.2282 -1.1841  1.0492
16020TIP3   OH269474   2.608   5.143   5.965  0.2591  0.0228 -0.3615
16020TIP3    H169475   2.538   5.090   6.003 -0.4722  0.6633 -0.8063
16020TIP3    H269476   2.666   5.080   5.924  0.8386 -0.6541  1.4474
16021TIP3   OH269477   4.775   3.311   6.294 -0.5888  0.0311 -0.5707
16021TIP3    H169478   4.707   3.377   6.286 -0.3377  0.2432 -0.9544
16021TIP3    H269479   4.830   3.341   6.367 -2.1747 -1.2788  1.2195
16022TIP3   OH269480   3.460   6.135  15.857  0.4703  0.4690  0.8897
16022TIP3    H169481   3.514   6.099  15.928 -0.8860 -1.7691  0.8165
16022TIP3    H269482   3.465   6.070  15.787 -0.8291  1.1106  0.1800
16023TIP3   OH269483   4.619   0.265  11.486  0.6981  0.1121  0.0876
16023TIP3    H169484   4.680   0.314  11.431  2.2519 -1.6333  0.2223
16023TIP3    H269485   4.674   0.218  11.548 -0.7113 -1.8610 -0.0935
16024TIP3   OH269486   5.392   3.944  17.048  0.0581  0.1664 -0.0062
16024TIP3    H169487   5.396   3.853  17.019 -1.1575  0.1321 -0.0917
16024TIP3    H269488   5.320   3.946  17.111 -1.2546  1.4679 -1.5008
16025TIP3   OH269489   2.951   5.034   4.655 -0.1139  0.4322  0.1910
16025TIP3    H169490   3.034   5.075   4.678 -0.4885  0.7629  0.9715
16025TIP3    H269491   2.967   4.994   4.570  1.2708 -0.7861  1.0065
16026TIP3   OH269492   0.395   5.370   5.316  0.1716  0.3369  0.3652
16026TIP3    H169493   0.478   5.373   5.364  1.4108 -1.2712 -1.5830
16026TIP3    H269494   0.337   5.317   5.370  1.3972 -1.0869  0.3014
16027TIP3   OH269495   3.348   1.252   4.240  0.2829  0.1194  0.4325
16027TIP3    H169496   3.262   1.295   4.238 -0.3563 -1.1754 -1.5578
16027TIP3    H269497   3.411   1.324   4.238 -0.7512  1.0271 -0.4571
16028TIP3   OH269498   5.847   2.047   2.078  0.2849  0.3782  0.1904
16028TIP3    H169499   5.834   2.075   1.988  0.9223  1.5500  0.4553
16028TIP3    H269500   5.770   2.080   2.125 -1.0216 -1.8932 -0.2658
16029TIP3   OH269501   1.116   2.438  15.260 -0.1442 -0.4056 -0.8570
16029TIP3    H169502   1.193   2.419  15.207 -0.1997  0.9288 -1.4439
16029TIP3    H269503   1.152   2.470  15.343 -0.0611 -1.3718 -0.5213
16030TIP3   OH269504   2.078   0.374   4.217  0.1311 -0.0573  0.4710
16030TIP3    H169505   1.992   0.353   4.252  0.9632 -2.9184  0.9306
16030TIP3    H269506   2.099   0.300   4.159  2.5296  0.2803  0.8531
16031TIP3   OH269507   6.124   6.506   2.347  0.2623 -0.2539  0.5852
16031TIP3    H169508   6.128   6.587   2.295  0.0630 -0.3835  0.3698
16031TIP3    H269509   6.128   6.436   2.283 -1.9136 -0.4081  0.6124
16032TIP3   OH269510   0.203   0.695  14.952 -0.1014  0.0836 -0.3863
16032TIP3    H169511   0.290   0.666  14.925 -0.8422 -0.7581 -1.9116
16032TIP3    H269512   0.194   0.782  14.912  0.5409  0.7376  0.8621
16033TIP3   OH269513   2.377   6.050  15.261 -0.2945 -0.0950 -0.5002
16033TIP3    H169514   2.405   5.959  15.273 -0.2552 -0.0588 -0.3202
16033TIP3    H269515   2.421   6.078  15.180  0.6947  0.1631  0.1188
16034TIP3   OH269516   4.317   4.686  16.768 -0.4199  0.2146  0.8728
16034TIP3    H169517   4.308   4.595  16.797  1.3175 -0.6252 -1.1483
16034TIP3    H269518   4.410   4.706  16.782  0.0169  0.4457 -2.0942
16035TIP3   OH269519   5.996   5.057  16.777  0.2197  0.2794  0.5688
16035TIP3    H169520   6.024   5.130  16.833  0.0893  2.1992 -1.8210
16035TIP3    H269521   5.924   5.092  16.725  0.5252 -1.3833 -1.0424
16036TIP3   OH269522   1.496   0.317  16.562 -0.4484 -0.0275 -0.3258
16036TIP3    H169523   1.523   0.401  16.525 -0.1908 -0.5419 -1.3209
16036TIP3    H269524   1.499   0.256  16.488  0.8789 -1.2608  0.7114
16037TIP3   OH269525   0.423   2.739   0.914 -0.7148  0.3445  0.0521
16037TIP3    H169526   0.478   2.732   0.837 -0.2708 -0.9304  0.4790
16037TIP3    H269527   0.400   2.832   0.918 -0.3620  0.5058 -1.3373
16038TIP3   OH269528   4.505   0.168   4.114  0.1519 -0.3727 -0.2576
16038TIP3    H169529   4.456   0.158   4.196  1.6889  0.7921  0.8345
16038TIP3    H269530   4.441   0.201   4.052 -1.0771 -1.4197  0.4209
16039TIP3   OH269531   0.353   5.442  17.040 -0.1917  0.1008  0.1069
16039TIP3    H169532   0.351   5.439  16.944  0.5997 -0.6567  0.1071
16039TIP3    H269533   0.377   5.532  17.060 -0.1302  0.2052 -0.4099
16040TIP3   OH269534   3.102   4.666  15.582  0.7044  0.7482 -0.2271
16040TIP3    H169535   3.157   4.727  15.532  0.6802  0.4188 -0.6618
16040TIP3    H269536   3.040   4.722  15.628  1.2500  1.1074  0.0739
16041TIP3   OH269537   5.401   3.875   5.674  0.0002  0.4153  0.1834
16041TIP3    H169538   5.444   3.937   5.734 -2.9601  2.2777  0.5216
16041TIP3    H269539   5.317   3.856   5.716 -0.0957 -2.0888 -1.0662
16042TIP3   OH269540   2.151   6.589   5.615  0.2899 -0.3233  0.1356
16042TIP3    H169541   2.210   6.514   5.620 -0.3855 -0.8675  0.1974
16042TIP3    H269542   2.162   6.623   5.526  0.5359 -0.5590  0.0771
16043TIP3   OH269543   5.428   1.113  17.131  0.3156 -0.0438 -0.1981
16043TIP3    H169544   5.492   1.082  17.067  1.3681  0.4206  0.5974
16043TIP3    H269545   5.461   1.081  17.215  0.0007  0.9618  0.3279
16044TIP3   OH269546   5.579   0.829  14.202 -0.3058  0.9288 -0.4428
16044TIP3    H169547   5.667   0.797  14.185 -0.1627  1.0122  0.1286
16044TIP3    H269548   5.523   0.752  14.197 -0.3967  1.0858 -2.1759
16045TIP3   OH269549   4.523   2.276   5.047 -0.3586 -1.0053  0.2414
16045TIP3    H169550   4.468   2.257   5.123 -2.2169  1.6844 -0.3511
16045TIP3    H269551   4.461   2.284   4.974  0.7725  1.7984 -0.4993
16046TIP3   OH269552   6.736   3.646   0.499  0.2055 -0.0192  0.1267
16046TIP3    H169553   6.646   3.671   0.518  0.0197  0.0666 -0.8444
16046TIP3    H269554   6.731   3.551   0.485  0.1111  0.1107 -0.7669
16047TIP3   OH269555   2.171   4.989   3.414 -0.1038 -0.4353  0.2147
16047TIP3    H169556   2.203   5.014   3.501  1.6988 -1.2201 -0.2064
16047TIP3    H269557   2.088   4.945   3.432 -0.4038  0.5889  1.4300
16048TIP3   OH269558   5.072   2.541  12.571  0.4063  0.2558  0.1479
16048TIP3    H169559   5.034   2.455  12.590 -0.0297  0.6006  0.8481
16048TIP3    H269560   5.167   2.527  12.576  0.3458 -0.2860 -0.1975
16049TIP3   OH269561   5.940   3.474   2.154  0.3332 -0.1343 -0.2408
16049TIP3    H169562   5.897   3.397   2.191  1.6077 -1.1565 -0.8633
16049TIP3    H269563   5.948   3.455   2.061 -0.5188  1.3231 -0.6307
16050TIP3   OH269564   3.199   0.237   4.621  0.2675  0.1156  0.4617
16050TIP3    H169565   3.265   0.171   4.603 -0.5244 -0.0867 -1.7515
16050TIP3    H269566   3.211   0.258   4.714  2.9900 -0.3896  0.2574
16051TIP3   OH269567   3.313   5.425   2.958 -0.2153 -0.2485 -0.1477
16051TIP3    H169568   3.294   5.499   3.014 -1.9039 -0.0799 -0.9214
16051TIP3    H269569   3.373   5.460   2.892 -1.0346  0.4471 -0.5335
16052TIP3   OH269570   2.253   1.136  15.204 -0.2485 -0.0365 -0.1948
16052TIP3    H169571   2.254   1.227  15.235 -0.5777  0.1354 -0.6824
16052TIP3    H269572   2.345   1.110  15.206 -0.1391  0.3424 -0.1570
16053TIP3   OH269573   2.352   5.590   2.858  0.1716 -0.0274 -1.0117
16053TIP3    H169574   2.331   5.585   2.951  0.7478 -2.9001 -0.9716
16053TIP3    H269575   2.444   5.616   2.856  0.6488 -1.5889 -0.6674
16054TIP3   OH269576   1.908   6.286  14.437  0.3427 -0.1220  0.1499
16054TIP3    H169577   1.834   6.278  14.377  0.4736  0.4409 -0.0956
16054TIP3    H269578   1.978   6.322  14.383  0.3564  0.7241  0.7093
16055TIP3   OH269579   6.482   1.693   3.515 -0.4226 -0.2325  0.5614
16055TIP3    H169580   6.445   1.656   3.595 -1.1262  0.0085  0.3512
16055TIP3    H269581   6.543   1.760   3.546  0.9307 -1.6175  0.9407
16056TIP3   OH269582   3.749   2.244  14.182 -0.0873  0.3952 -0.0015
16056TIP3    H169583   3.706   2.161  14.161 -1.4161  0.8663  0.7629
16056TIP3    H269584   3.769   2.237  14.275  2.1823 -0.0993 -0.4952
16057TIP3   OH269585   5.426   6.006   3.073  0.5568 -0.7400  1.2775
16057TIP3    H169586   5.454   5.936   3.133  0.9095  1.3150  3.5937
16057TIP3    H269587   5.332   6.012   3.084  0.4199 -1.3199  0.5111
16058TIP3   OH269588   1.427   1.944  11.647 -0.3099  0.2454 -0.0141
16058TIP3    H169589   1.521   1.935  11.635 -0.3323 -1.0215  0.7102
16058TIP3    H269590   1.407   2.031  11.612  1.0398  0.3205 -0.6399
16059TIP3   OH269591   0.308   2.072  16.677 -0.4141 -0.2752 -0.2892
16059TIP3    H169592   0.255   2.148  16.653  0.9432  0.6249 -0.4873
16059TIP3    H269593   0.338   2.091  16.766  0.3409 -0.3476 -0.5274
16060TIP3   OH269594   3.976   6.116  14.542  0.9632  0.4427  0.0633
16060TIP3    H169595   4.012   6.199  14.513  0.2709  1.0210  0.8369
16060TIP3    H269596   3.972   6.123  14.637  2.0910 -0.9660  0.2356
16061TIP3   OH269597   1.404   2.924   2.632  0.2752  0.2650  0.0330
16061TIP3    H169598   1.317   2.884   2.632  0.2900  0.2311 -0.5403
16061TIP3    H269599   1.397   2.997   2.571  1.2241 -1.0256 -1.6857
16062TIP3   OH269600   3.728   4.898   1.811  0.0583  0.0501 -0.4345
16062TIP3    H169601   3.732   4.946   1.728  1.3317  2.2982  0.8754
16062TIP3    H269602   3.811   4.850   1.814  0.0296  0.0016 -0.4181
16063TIP3   OH269603   1.784   1.539  16.408  0.4102 -0.3637 -0.0006
16063TIP3    H169604   1.769   1.633  16.410  0.6107 -0.3295 -0.1398
16063TIP3    H269605   1.730   1.505  16.480 -1.5292 -0.4033 -1.4401
16064TIP3   OH269606   1.648   3.268  14.210  0.8426  0.1659 -0.4735
16064TIP3    H169607   1.606   3.354  14.206  0.8990  0.2199  0.0582
16064TIP3    H269608   1.698   3.270  14.291  0.9497 -0.3224 -0.5295
16065TIP3   OH269609   0.125   6.017   0.668 -0.6704 -0.0551  0.2222
16065TIP3    H169610   0.139   6.071   0.746 -2.0714 -1.3686  1.4074
16065TIP3    H269611   0.102   5.931   0.702 -0.3772 -0.9046 -1.6597
16066TIP3   OH269612   0.245   3.820  11.238 -0.2038 -0.0720 -0.0953
16066TIP3    H169613   0.281   3.859  11.159  1.2006 -2.5560 -0.7387
16066TIP3    H269614   0.150   3.826  11.227 -0.1017  4.0857  0.3795
16067TIP3   OH269615   5.816   1.170   4.519 -0.3654 -0.0195  0.1729
16067TIP3    H169616   5.909   1.187   4.502 -0.1051 -1.0443  0.5502
16067TIP3    H269617   5.793   1.098   4.460 -0.9756  0.3816 -0.0796
16068TIP3   OH269618   6.675   2.593  11.930  0.1638  0.1715  0.1218
16068TIP3    H169619   6.627   2.630  11.856  0.3539 -1.2433 -0.7267
16068TIP3    H269620   6.656   2.652  12.003 -1.7827  0.3947 -0.5315
16069TIP3   OH269621   5.093   6.392   0.714 -0.1505  0.4710 -0.4311
16069TIP3    H169622   5.059   6.328   0.776 -1.3420  0.1060 -1.4341
16069TIP3    H269623   5.022   6.404   0.651 -0.4329  3.7018  0.4083
16070TIP3   OH269624   6.711   1.662  14.451 -0.5555 -0.3322 -0.2409
16070TIP3    H169625   6.746   1.601  14.387 -0.5417 -1.2746  0.6405
16070TIP3    H269626   6.786   1.713  14.480 -0.0546 -1.6749  0.9169
16071TIP3   OH269627   5.324   0.185   5.398 -0.5786  0.0599 -0.2740
16071TIP3    H169628   5.237   0.210   5.366 -0.9823  0.3941  1.0371
16071TIP3    H269629   5.307   0.120   5.466  0.0968  1.2665  1.0804
16072TIP3   OH269630   6.509   3.063  17.060 -0.7749  0.1657  0.6914
16072TIP3    H169631   6.578   3.077  17.125  0.2513 -1.4887 -0.0032
16072TIP3    H269632   6.533   3.120  16.987 -0.8523  0.5519  0.9661
16073TIP3   OH269633   4.438   6.420   0.668  0.6054  0.2830  0.2623
16073TIP3    H169634   4.464   6.494   0.614  0.9924  0.1076  0.2080
16073TIP3    H269635   4.499   6.350   0.644  0.0473 -0.1503  0.0839
16074TIP3   OH269636   2.724   1.450  15.220  0.3536 -0.7803  0.1652
16074TIP3    H169637   2.680   1.527  15.183  0.1927 -0.6301  0.6661
16074TIP3    H269638   2.815   1.478  15.230  0.3896 -0.8068 -0.0726
16075TIP3   OH269639   1.912   5.399  17.126  0.0198  0.0156 -0.1471
16075TIP3    H169640   1.832   5.380  17.175 -0.1105  0.9601  0.0128
16075TIP3    H269641   1.921   5.495  17.130  0.8443 -0.0334 -0.6496
16076TIP3   OH269642   3.189   1.650  13.435 -0.1261 -0.2938 -0.4031
16076TIP3    H169643   3.178   1.566  13.480 -1.9991 -0.5535 -1.2667
16076TIP3    H269644   3.127   1.645  13.361  1.9292  0.6271 -2.2435
16077TIP3   OH269645   6.553   6.246   4.965 -0.6295  0.5581  0.4272
16077TIP3    H169646   6.545   6.339   4.943 -1.0942  0.6444  0.9682
16077TIP3    H269647   6.485   6.231   5.031 -2.0967 -0.6739 -1.3101
16078TIP3   OH269648   1.815   1.118   3.202 -0.5083  0.1382 -0.7380
16078TIP3    H169649   1.780   1.092   3.117 -1.8674 -0.8357  0.0949
16078TIP3    H269650   1.873   1.192   3.183 -2.0527  0.9820 -2.3106
16079TIP3   OH269651   4.366   1.083  15.473 -0.5041  0.5425  0.8359
16079TIP3    H169652   4.410   1.004  15.506 -1.9760 -1.3817 -1.6294
16079TIP3    H269653   4.283   1.086  15.519 -1.4654 -0.7201 -0.7607
16080TIP3   OH269654   4.177   2.813  12.201 -0.0310  0.0184  0.8671
16080TIP3    H169655   4.163   2.778  12.113  0.5208 -1.3154  1.2971
16080TIP3    H269656   4.204   2.904  12.187 -3.5064  0.9438 -0.1890
16081TIP3   OH269657   0.334   6.356  17.163  0.2288 -0.4128 -0.5215
16081TIP3    H169658   0.285   6.312  17.232 -1.1566  2.1929  0.2151
16081TIP3    H269659   0.268   6.406  17.115  1.5752 -0.1234 -2.1080
16082TIP3   OH269660   0.693   2.617   5.759 -0.4722 -0.0015  0.3221
16082TIP3    H169661   0.736   2.580   5.835  1.2010  2.7094  0.7667
16082TIP3    H269662   0.756   2.679   5.723 -2.2191  0.6387 -1.7765
16083TIP3   OH269663   4.521   5.646   3.393 -0.2999  0.5458  0.1679
16083TIP3    H169664   4.542   5.665   3.485  0.3973  0.1793  0.0972
16083TIP3    H269665   4.571   5.711   3.343  0.5019 -0.1755  0.0044
16084TIP3   OH269666   6.501   4.861  13.021  0.4853 -0.3602 -0.8862
16084TIP3    H169667   6.455   4.888  12.942  0.1875 -0.5246 -0.7713
16084TIP3    H269668   6.450   4.898  13.093 -0.7848 -2.4588 -0.6656
16085TIP3   OH269669   3.955   5.387  11.885  0.2918  1.0243  0.0211
16085TIP3    H169670   3.890   5.339  11.834 -0.5375  0.1626  1.8386
16085TIP3    H269671   3.912   5.470  11.906  0.9762  1.7586 -1.4329
16086TIP3   OH269672   1.429   1.360   2.673  0.7714  0.6617 -0.4090
16086TIP3    H169673   1.377   1.438   2.652  1.1366  0.9886 -0.1098
16086TIP3    H269674   1.403   1.295   2.608  0.7331  1.1558 -0.8874
16087TIP3   OH269675   6.650   0.299  12.356 -0.2702  0.0519  0.0264
16087TIP3    H169676   6.667   0.361  12.426  0.0216  1.0793 -0.9415
16087TIP3    H269677   6.730   0.249  12.348  0.2594  0.9892 -0.6217
16088TIP3   OH269678   6.288   5.448   6.222  0.1185  0.5717 -0.6576
16088TIP3    H169679   6.379   5.424   6.236 -0.3294 -0.1864  1.1092
16088TIP3    H269680   6.238   5.385   6.274 -1.4826  0.1848 -2.6015
16089TIP3   OH269681   4.654   1.347   6.566 -0.1782 -0.4699 -0.2001
16089TIP3    H169682   4.675   1.275   6.624  0.5799  1.7330  2.3345
16089TIP3    H269683   4.583   1.394   6.610  0.6056  1.4010 -0.8635
16090TIP3   OH269684   0.175   2.139  11.123  0.1192  0.3177  0.5403
16090TIP3    H169685   0.134   2.083  11.189 -1.4612 -1.2419 -1.6683
16090TIP3    H269686   0.128   2.222  11.129  1.2384  0.8292  2.5965
16091TIP3   OH269687   5.614   5.330  17.015  0.3690 -0.3987 -0.6088
16091TIP3    H169688   5.540   5.281  16.979 -1.9977 -0.3256  3.8097
16091TIP3    H269689   5.598   5.420  16.988 -0.6418 -0.5330 -0.4657
16092TIP3   OH269690   1.554   1.449   1.081 -0.3877 -0.4610 -0.0746
16092TIP3    H169691   1.554   1.435   0.986 -1.2181 -0.0204 -0.1473
16092TIP3    H269692   1.535   1.362   1.118  0.0992 -0.6649 -0.3024
16093TIP3   OH269693   2.679   6.438   4.340  0.1504 -0.0596  0.1545
16093TIP3    H169694   2.665   6.379   4.415  1.3289 -1.7743 -0.9463
16093TIP3    H269695   2.773   6.458   4.342 -0.0786  1.1057 -0.0095
16094TIP3   OH269696   3.912   1.161  13.997 -0.1974  0.8145  0.0820
16094TIP3    H169697   3.964   1.204  14.066  2.1899 -0.1859 -1.0445
16094TIP3    H269698   3.909   1.225  13.926 -0.2981  0.7771  0.0515
16095TIP3   OH269699   5.918   0.656   5.544  0.4914 -0.4340 -0.4154
16095TIP3    H169700   5.925   0.624   5.454 -0.5524  0.6859 -0.9011
16095TIP3    H269701   5.888   0.746   5.535 -1.4111 -0.8848  1.1347
16096TIP3   OH269702   0.125   6.231   3.865 -0.1118 -0.5134  0.4968
16096TIP3    H169703   0.105   6.251   3.957 -2.1730 -2.9459  0.6255
16096TIP3    H269704   0.208   6.185   3.867 -0.4562 -1.1097  1.2279
16097TIP3   OH269705   1.262   0.562   1.535 -0.0017  0.0879  0.0133
16097TIP3    H169706   1.306   0.482   1.561 -0.2012 -0.2047 -0.5380
16097TIP3    H269707   1.195   0.576   1.602 -0.2496 -0.4418 -0.1218
16098TIP3   OH269708   0.949   0.235   0.746 -0.0505 -1.3167  0.3300
16098TIP3    H169709   0.961   0.329   0.736  3.3554 -1.3549  2.8995
16098TIP3    H269710   0.856   0.224   0.766 -0.2664  1.6391  1.1394
16099TIP3   OH269711   5.257   6.592   3.509  0.0547 -0.4710  0.2866
16099TIP3    H169712   5.282   6.587   3.601  0.2775 -0.1406  0.2453
16099TIP3    H269713   5.185   6.530   3.500  0.3339 -0.8438  0.5842
16100TIP3   OH269714   2.049   4.939   0.813 -0.2987 -0.1755 -0.7090
16100TIP3    H169715   2.016   4.862   0.768 -1.1025 -0.5558  0.4901
16100TIP3    H269716   2.144   4.933   0.807 -0.3683 -1.1036 -0.8800
16101TIP3   OH269717   5.240   0.822   1.224  0.2276 -0.0334  0.0825
16101TIP3    H169718   5.233   0.732   1.195  0.2866 -0.1399  0.3954
16101TIP3    H269719   5.328   0.829   1.262  0.5063  0.3548 -0.6276
16102TIP3   OH269720   5.274   5.504   0.226 -0.4810 -0.2453 -0.1708
16102TIP3    H169721   5.308   5.459   0.148  0.4876 -1.4048  0.9025
16102TIP3    H269722   5.233   5.435   0.277 -1.7227  0.6293  0.0471
16103TIP3   OH269723   1.199   0.710   0.390  0.0805  0.1524  0.1588
16103TIP3    H169724   1.153   0.793   0.375 -2.1120 -1.3131 -1.5614
16103TIP3    H269725   1.274   0.713   0.331  1.1332  1.7235  1.5420
16104TIP3   OH269726   4.347   4.474   5.464  0.2491 -0.7558 -0.1184
16104TIP3    H169727   4.314   4.442   5.380 -1.1876 -0.1936  0.2169
16104TIP3    H269728   4.425   4.525   5.441 -0.8552  0.4675 -1.2639
16105TIP3   OH269729   3.360   3.649   0.499 -0.3225 -0.2349  0.0634
16105TIP3    H169730   3.437   3.703   0.478 -0.7405 -0.0439 -0.9878
16105TIP3    H269731   3.374   3.568   0.449 -1.8626  0.6559 -1.8988
16106TIP3   OH269732   2.026   2.660  14.920  0.0667 -0.1647 -0.4008
16106TIP3    H169733   2.017   2.639  14.827  1.3151 -1.4139 -0.2596
16106TIP3    H269734   1.940   2.694  14.945 -1.6923 -4.0204 -0.9318
16107TIP3   OH269735   1.567   4.690  11.555 -0.3156  0.4597 -0.1804
16107TIP3    H169736   1.513   4.768  11.566 -0.3175  0.3993  0.2638
16107TIP3    H269737   1.509   4.617  11.575 -0.4030  0.3250 -0.9246
16108TIP3   OH269738   3.034   5.548   1.264 -0.0947  0.0053 -0.1941
16108TIP3    H169739   3.006   5.512   1.180  0.9602  0.2005 -0.6394
16108TIP3    H269740   2.976   5.508   1.328  0.8539 -2.2810 -0.7124
16109TIP3   OH269741   0.147   6.469  11.179  0.7423  0.3616 -0.5712
16109TIP3    H169742   0.071   6.443  11.126  0.3925 -0.6725  0.4155
16109TIP3    H269743   0.164   6.559  11.152 -1.3476  0.8934 -0.2437
16110TIP3   OH269744   0.290   0.393  14.458 -0.0287 -0.3980  0.2308
16110TIP3    H169745   0.246   0.436  14.531 -0.6881 -0.8689  0.1138
16110TIP3    H269746   0.292   0.460  14.389 -1.5885 -0.7313 -0.1612
16111TIP3   OH269747   0.902   3.242  14.855 -0.3289 -0.3361 -0.5568
16111TIP3    H169748   0.951   3.161  14.867 -0.6943 -0.4057  0.6099
16111TIP3    H269749   0.947   3.288  14.785  1.1658 -0.5694  0.2303
16112TIP3   OH269750   1.009   2.677  13.455 -0.5265 -0.0172  0.6271
16112TIP3    H169751   0.938   2.730  13.492 -1.7565 -1.3219  0.1705
16112TIP3    H269752   0.968   2.626  13.385  1.7123  2.2290 -2.4803
16113TIP3   OH269753   4.909   0.050  16.159 -0.4371 -0.2067 -0.2098
16113TIP3    H169754   4.973   0.111  16.122 -0.6055  0.5181  0.6740
16113TIP3    H269755   4.827   0.073  16.115 -0.2261 -0.7324 -0.8969
16114TIP3   OH269756   4.006   1.279   2.532 -0.2944  0.4346  0.1371
16114TIP3    H169757   4.014   1.301   2.625  1.5513  0.8128 -0.0806
16114TIP3    H269758   3.946   1.205   2.530 -1.8896  1.6296  1.4514
16115TIP3   OH269759   5.554   2.676   2.933  0.4732  0.0994  0.0263
16115TIP3    H169760   5.487   2.648   2.870  0.9295  0.6639 -0.7152
16115TIP3    H269761   5.505   2.731   2.995  0.2273  0.4643 -0.4797
16116TIP3   OH269762   4.785   4.383   1.605 -0.4886 -0.0505  1.0709
16116TIP3    H169763   4.862   4.346   1.650 -0.3783 -2.9450 -1.3252
16116TIP3    H269764   4.817   4.406   1.518 -2.4386 -1.9437 -0.1958
16117TIP3   OH269765   3.069   4.616  14.364 -0.4481 -0.2752 -0.3581
16117TIP3    H169766   3.146   4.633  14.418 -0.4237  1.8765 -1.0323
16117TIP3    H269767   3.076   4.524  14.341  2.4007  0.0959 -1.1528
16118TIP3   OH269768   3.605   5.584   1.269 -0.5975 -0.4407 -0.2025
16118TIP3    H169769   3.584   5.663   1.219  0.3957  0.7934  1.2624
16118TIP3    H269770   3.563   5.597   1.354 -0.3238 -1.4339  0.0998
16119TIP3   OH269771   4.195   3.132  14.464  0.0184 -0.1407  0.3404
16119TIP3    H169772   4.205   3.063  14.529  2.0046 -1.6843 -1.5458
16119TIP3    H269773   4.284   3.164  14.448 -0.7663  2.2732  0.5309
16120TIP3   OH269774   6.733   2.832  11.600  0.9791 -0.0414  0.2019
16120TIP3    H169775   6.812   2.798  11.643 -0.4754  0.2383  3.2904
16120TIP3    H269776   6.663   2.771  11.627 -0.1452  0.5906 -1.2097
16121TIP3   OH269777   1.178   0.113  13.160  0.1641  0.8474 -0.2509
16121TIP3    H169778   1.123   0.155  13.094  0.6576  1.1305 -0.4889
16121TIP3    H269779   1.161   0.163  13.240 -0.8944  0.1201 -0.0135
16122TIP3   OH269780   0.213   0.631  13.988  0.0203 -0.0340 -0.1542
16122TIP3    H169781   0.196   0.721  13.961 -1.3569  0.2164  1.5214
16122TIP3    H269782   0.135   0.583  13.961 -1.1251  0.1029  2.7278
16123TIP3   OH269783   5.693   1.216  15.405 -0.8258  0.1420  0.7042
16123TIP3    H169784   5.680   1.212  15.310 -0.8123  0.7818  0.6772
16123TIP3    H269785   5.773   1.267  15.416 -0.8427  0.0890  1.0636
16124TIP3   OH269786   1.225   0.937  16.771  0.2851 -0.2315  0.2533
16124TIP3    H169787   1.256   0.881  16.700 -0.5436  0.1608 -0.4171
16124TIP3    H269788   1.149   0.891  16.807  0.6435 -0.3840  0.8412
16125TIP3   OH269789   1.996   5.845   1.565 -0.3520  0.0619  0.5199
16125TIP3    H169790   2.080   5.800   1.559 -0.1289  0.4504  0.7142
16125TIP3    H269791   1.938   5.795   1.508  0.1654  0.1494 -0.0850
16126TIP3   OH269792   4.339   0.440  15.905  0.2343 -0.5243  0.0002
16126TIP3    H169793   4.264   0.489  15.939  0.7142  0.2121  0.0130
16126TIP3    H269794   4.320   0.428  15.812  0.3423  0.1244 -0.1106
16127TIP3   OH269795   3.937   0.284   2.823 -0.1912  0.2870 -0.5903
16127TIP3    H169796   3.933   0.378   2.838  1.4031  0.2816 -0.0689
16127TIP3    H269797   4.010   0.272   2.763 -1.4121 -0.4823 -1.9701
16128TIP3   OH269798   6.765   1.408   0.371  0.9373  0.4162  0.4171
16128TIP3    H169799   6.815   1.479   0.331  0.9087  0.4529  0.4461
16128TIP3    H269800   6.673   1.433   0.360  0.7272 -1.5531 -3.2018
16129TIP3   OH269801   1.208   5.075  15.137 -0.0386 -0.2651 -0.0579
16129TIP3    H169802   1.254   4.991  15.132 -0.2663 -0.3805 -0.2076
16129TIP3    H269803   1.148   5.065  15.212 -0.2475 -0.3264 -0.2328
16130TIP3   OH269804   1.159   2.250   0.633 -0.1625 -0.3505  0.1885
16130TIP3    H169805   1.091   2.295   0.582  2.7951  1.7926 -2.0284
16130TIP3    H269806   1.173   2.305   0.710  2.2867  1.7812 -1.7014
16131TIP3   OH269807   0.896   0.484   2.713  0.6611  0.6514  0.3819
16131TIP3    H169808   0.968   0.421   2.708  0.5830  0.4724  1.3752
16131TIP3    H269809   0.817   0.431   2.720  0.3122  0.8359 -1.8951
16132TIP3   OH269810   5.543   4.869  16.117 -0.2787 -0.1229  0.1714
16132TIP3    H169811   5.515   4.858  16.207  1.4735 -2.9699  0.4134
16132TIP3    H269812   5.587   4.954  16.115 -0.1083 -0.1651  2.0377
16133TIP3   OH269813   2.726   3.679   5.764  1.1430 -0.1107 -0.4846
16133TIP3    H169814   2.664   3.684   5.691  1.0081 -0.2510 -0.3786
16133TIP3    H269815   2.682   3.626   5.830  1.0478  0.4703 -0.0815
16134TIP3   OH269816   3.381   1.021   5.676  0.0692 -0.3890  0.5297
16134TIP3    H169817   3.343   1.030   5.763  0.8062  1.6420  0.6485
16134TIP3    H269818   3.434   1.099   5.664  0.7225 -1.0953 -1.3810
16135TIP3   OH269819   6.545   2.158  15.367  0.6167  0.2242 -0.2883
16135TIP3    H169820   6.460   2.169  15.323 -0.6799  1.4972  2.4192
16135TIP3    H269821   6.522   2.139  15.458  3.2561  0.3056  0.4203
16136TIP3   OH269822   4.110   4.931  16.720  0.1715  0.6195 -0.1017
16136TIP3    H169823   4.173   4.862  16.697 -1.0241 -1.2295  1.8651
16136TIP3    H269824   4.025   4.888  16.714 -0.4595  1.1368  3.5776
16137TIP3   OH269825   2.721   3.218  16.895  0.2437 -0.5427  0.2543
16137TIP3    H169826   2.805   3.205  16.939  1.6447  4.4253 -0.5726
16137TIP3    H269827   2.739   3.197  16.803  0.7605  0.8109  0.0215
16138TIP3   OH269828   3.312   1.379   6.125 -0.1035 -0.2093 -0.1832
16138TIP3    H169829   3.285   1.287   6.133 -0.6926 -0.0365 -0.1838
16138TIP3    H269830   3.273   1.422   6.201 -0.1244  0.1135 -0.3783
16139TIP3   OH269831   6.283   6.657  17.037  0.0650 -0.3815 -0.5107
16139TIP3    H169832   6.346   6.679  17.106 -1.7530  0.9535  0.7526
16139TIP3    H269833   6.326   6.685  16.956  1.7647 -0.9563  0.1640
16140TIP3   OH269834   5.617   6.132   1.105 -0.9200 -0.0171 -0.5624
16140TIP3    H169835   5.576   6.214   1.076  0.3290  0.7166 -0.2749
16140TIP3    H269836   5.655   6.153   1.190 -1.0049 -1.0333 -0.2679
16141TIP3   OH269837   2.973   5.919  14.524 -0.2239  0.2144 -0.4633
16141TIP3    H169838   3.064   5.896  14.505  0.3680 -0.9123  3.4014
16141TIP3    H269839   2.969   5.927  14.619 -4.6999 -1.9968 -0.3500
16142TIP3   OH269840   6.667   1.543   2.575  0.2748  0.1865  0.1126
16142TIP3    H169841   6.606   1.588   2.633  0.5577  2.7778 -1.5483
16142TIP3    H269842   6.612   1.483   2.524 -0.7016  1.5776 -0.4825
16143TIP3   OH269843   1.970   0.273  10.913  0.1077 -0.4264  0.2008
16143TIP3    H169844   1.931   0.307  10.832  2.2626 -0.4764 -0.9028
16143TIP3    H269845   1.926   0.189  10.928 -1.7787  0.5384  0.2523
16144TIP3   OH269846   5.966   4.822   4.027 -0.0021 -0.3686 -0.0135
16144TIP3    H169847   5.970   4.870   4.110 -1.5261 -1.2122  0.5709
16144TIP3    H269848   5.975   4.890   3.960  1.0185  0.3476  0.8348
16145TIP3   OH269849   3.815   0.188   1.564 -0.1051 -0.7487 -0.5092
16145TIP3    H169850   3.797   0.098   1.540 -0.6287 -0.2011 -2.2761
16145TIP3    H269851   3.751   0.240   1.514  0.2329  0.5917  0.4134
16146TIP3   OH269852   2.720   0.349  13.403  0.2542  0.1180 -0.3873
16146TIP3    H169853   2.811   0.343  13.430  0.3791 -0.5103 -0.9096
16146TIP3    H269854   2.707   0.273  13.346 -0.0239  1.3151 -1.9654
16147TIP3   OH269855   1.836   4.149   2.663  0.0076  1.0177 -0.2322
16147TIP3    H169856   1.752   4.184   2.692  0.1813  1.2842 -0.0560
16147TIP3    H269857   1.856   4.196   2.582  0.6026  1.8614  0.3999
16148TIP3   OH269858   1.748   2.411  17.124 -0.1031 -0.2810  0.3315
16148TIP3    H169859   1.752   2.319  17.098 -0.7535 -0.5317  1.0890
16148TIP3    H269860   1.799   2.457  17.057 -0.9667 -1.0023 -0.8334
16149TIP3   OH269861   1.681   0.802   4.280 -0.3526 -0.1921 -0.1682
16149TIP3    H169862   1.597   0.812   4.326 -1.9157 -0.0614 -2.9742
16149TIP3    H269863   1.722   0.888   4.287  0.6316 -0.8652  3.1729
16150TIP3   OH269864   5.943   1.819   3.139  0.7313  0.2884 -0.7031
16150TIP3    H169865   6.032   1.848   3.119  0.8329 -0.1533 -0.9089
16150TIP3    H269866   5.943   1.805   3.234  1.2700 -0.9702 -0.8726
16151TIP3   OH269867   1.487   5.708  16.449  0.0100 -0.3050 -0.0246
16151TIP3    H169868   1.553   5.756  16.397 -0.3359  1.5397  1.2023
16151TIP3    H269869   1.495   5.744  16.537 -1.1440 -1.6475  0.6486
16152TIP3   OH269870   5.345   6.595  14.263  0.2198  0.7927 -0.3311
16152TIP3    H169871   5.418   6.597  14.325 -0.4338  0.0813  0.4775
16152TIP3    H269872   5.385   6.618  14.179  1.3312  0.6528  0.1408
16153TIP3   OH269873   4.460   2.544   2.171 -0.8104  0.5460  0.5596
16153TIP3    H169874   4.479   2.615   2.110  2.8597 -0.6265  0.2239
16153TIP3    H269875   4.496   2.466   2.130 -0.4483 -0.6751  3.1102
16154TIP3   OH269876   6.173   2.228  17.176  0.2325  0.5753 -0.2011
16154TIP3    H169877   6.244   2.185  17.127  0.7191 -0.8360  1.6783
16154TIP3    H269878   6.218   2.286  17.236 -0.1657 -0.5736  1.2361
16155TIP3   OH269879   3.773   3.129   5.617  0.3811 -0.0403  0.1123
16155TIP3    H169880   3.749   3.211   5.659 -0.2066 -0.1980  0.0874
16155TIP3    H269881   3.840   3.091   5.674  1.0474  0.7104 -0.1587
16156TIP3   OH269882   4.695   2.167  16.292 -0.0018  0.3864  0.0629
16156TIP3    H169883   4.710   2.247  16.241  0.3321  0.8736  0.9132
16156TIP3    H269884   4.691   2.197  16.383  1.1486 -0.6996  0.4797
16157TIP3   OH269885   4.867   3.916  12.129  0.5474  0.5395  0.8831
16157TIP3    H169886   4.888   3.906  12.036  0.3094  2.5451  0.5866
16157TIP3    H269887   4.938   3.969  12.164 -1.4878  3.3619  0.8938
16158TIP3   OH269888   5.022   6.174   4.933  0.0333  0.2272  0.2226
16158TIP3    H169889   4.964   6.170   4.857 -1.5457  0.1939  1.3979
16158TIP3    H269890   5.074   6.094   4.927  1.4745  1.2776 -2.0030
16159TIP3   OH269891   3.207   5.134  15.308  0.2070 -0.3402  0.1391
16159TIP3    H169892   3.206   5.219  15.351 -1.8856 -0.1004 -0.3462
16159TIP3    H269893   3.290   5.133  15.259  0.6854  1.0168  0.9083
16160TIP3   OH269894   3.611   2.580   1.926  0.1691 -0.4875 -0.1151
16160TIP3    H169895   3.560   2.543   1.999  0.5066 -1.3222 -0.2984
16160TIP3    H269896   3.612   2.674   1.944  0.1250 -0.6633  0.8808
16161TIP3   OH269897   5.615   4.810   6.505  0.1870  0.0129  0.0953
16161TIP3    H169898   5.706   4.830   6.524 -0.1622  1.6678  0.0670
16161TIP3    H269899   5.597   4.854   6.423 -0.3784 -1.1018 -0.3907
16162TIP3   OH269900   1.756   0.159  10.577  0.5359 -0.4087 -0.0672
16162TIP3    H169901   1.662   0.152  10.565  0.5494  0.1314 -0.4796
16162TIP3    H269902   1.771   0.249  10.603  0.6301 -1.2483  2.9379
16163TIP3   OH269903   0.367   0.492  16.723  0.1621  0.0497 -0.3330
16163TIP3    H169904   0.278   0.506  16.754  0.6141  1.5973  0.3234
16163TIP3    H269905   0.386   0.568  16.668  0.9244 -0.4765 -0.8098
16164TIP3   OH269906   6.267   4.137  17.062 -0.5038  0.1761  0.2319
16164TIP3    H169907   6.340   4.194  17.087 -0.7645  0.7194 -0.2288
16164TIP3    H269908   6.192   4.173  17.109 -0.8867  0.8753 -0.9091
16165TIP3   OH269909   0.814   0.960  13.879  0.0453  0.7495  0.1180
16165TIP3    H169910   0.811   1.039  13.933  0.0396 -0.2375  1.5990
16165TIP3    H269911   0.901   0.961  13.839 -0.1372  1.7499 -0.2618
16166TIP3   OH269912   4.266   4.948   2.950  0.1914  0.0105  0.3493
16166TIP3    H169913   4.344   4.984   2.992  0.5961 -1.5776  1.0105
16166TIP3    H269914   4.238   4.877   3.008  0.0052 -1.3863 -1.4078
16167TIP3   OH269915   4.231   6.305  12.907  0.0346  0.4090  0.0500
16167TIP3    H169916   4.281   6.353  12.973  0.8033 -1.0921  0.5816
16167TIP3    H269917   4.186   6.237  12.956  0.2913 -0.4782 -0.9266
16168TIP3   OH269918   5.415   5.091   3.762 -0.3092  0.1847 -0.2146
16168TIP3    H169919   5.358   5.015   3.767 -0.0270 -0.0180 -0.0434
16168TIP3    H269920   5.434   5.114   3.853  0.2789 -0.0538 -0.2720
16169TIP3   OH269921   4.335   3.682  13.727  0.2761  0.0790 -0.5816
16169TIP3    H169922   4.410   3.637  13.688  0.6576  0.5754 -0.4180
16169TIP3    H269923   4.328   3.764  13.679 -0.2524 -0.0215 -0.6900
16170TIP3   OH269924   1.124   1.225   4.611  0.2912 -0.1572 -0.6222
16170TIP3    H169925   1.105   1.226   4.705  1.0621 -0.8166 -0.4542
16170TIP3    H269926   1.154   1.314   4.592  2.1329 -0.5655  0.1903
16171TIP3   OH269927   5.167   3.281   2.285 -0.6976 -0.1484 -0.1609
16171TIP3    H169928   5.169   3.241   2.198 -0.2168 -0.4332 -0.0183
16171TIP3    H269929   5.137   3.371   2.269  0.4932  0.1433 -0.7516
16172TIP3   OH269930   0.141   6.293   0.399  0.4587 -0.1349  0.0928
16172TIP3    H169931   0.196   6.321   0.471 -0.7745 -0.8114  1.3202
16172TIP3    H269932   0.052   6.321   0.423  0.1365  0.3096 -1.5117
16173TIP3   OH269933   2.091   0.008  12.317  0.3689 -0.6074 -0.4935
16173TIP3    H169934   2.015  -0.016  12.371  1.3570 -0.6728  0.8988
16173TIP3    H269935   2.135  -0.075  12.300  0.6847 -0.4465 -0.4543
16174TIP3   OH269936   0.050   2.385   6.176  0.1502 -0.7407 -0.3285
16174TIP3    H169937   0.137   2.422   6.161  0.3683 -0.8018  0.7263
16174TIP3    H269938   0.023   2.351   6.091  0.3632  0.9711 -1.1021
16175TIP3   OH269939   0.294   5.043  11.314 -0.4041  0.5248 -0.0802
16175TIP3    H169940   0.240   5.056  11.392 -1.1519  1.7481 -0.7761
16175TIP3    H269941   0.282   5.123  11.263  0.8989  0.1745 -0.9603
16176TIP3   OH269942   6.447   4.375  17.055 -0.7093 -0.4413  0.1748
16176TIP3    H169943   6.519   4.435  17.075 -0.8896 -0.4691  0.9171
16176TIP3    H269944   6.377   4.400  17.114 -1.4258 -0.2285 -0.7562
16177TIP3   OH269945   5.661   3.708  16.152 -0.0566 -0.1489  0.2559
16177TIP3    H169946   5.593   3.754  16.201 -0.1244  0.0705 -0.0460
16177TIP3    H269947   5.620   3.625  16.127  0.0027 -0.2932  0.6329
16178TIP3   OH269948   6.217   1.827   4.550  0.1636  0.3600 -0.3294
16178TIP3    H169949   6.302   1.835   4.592  0.3958  1.8408 -1.0606
16178TIP3    H269950   6.170   1.907   4.576 -0.0868  0.7617 -1.9729
16179TIP3   OH269951   1.111   1.430   5.164  0.1904  0.5032  0.3942
16179TIP3    H169952   1.026   1.454   5.125  0.4093  1.7425  0.6659
16179TIP3    H269953   1.090   1.360   5.226 -0.5787  0.5631  0.2108
16180TIP3   OH269954   5.533   3.681   5.535  0.4045 -0.1208 -0.0987
16180TIP3    H169955   5.490   3.752   5.582 -1.1007  0.9255 -2.9645
16180TIP3    H269956   5.598   3.724   5.479  1.6071 -1.2665  0.3951
16181TIP3   OH269957   4.538   0.296  14.164 -0.2343 -0.0302  0.3543
16181TIP3    H169958   4.457   0.255  14.196  0.3583 -1.1190  0.4791
16181TIP3    H269959   4.581   0.227  14.113 -0.4680  1.2403 -1.6070
16182TIP3   OH269960   1.236   4.772  12.393  0.0779  0.2027 -0.0427
16182TIP3    H169961   1.175   4.819  12.449 -0.0665 -0.0081 -0.0227
16182TIP3    H269962   1.221   4.679  12.412 -0.7961  0.0749 -1.2796
16183TIP3   OH269963   5.650   0.408   3.712 -0.2330  0.2799  0.4217
16183TIP3    H169964   5.572   0.444   3.754 -0.9141  0.3205 -0.8556
16183TIP3    H269965   5.723   0.456   3.752 -0.7001 -1.0622  2.9596
16184TIP3   OH269966   5.841   2.509   4.645  0.7364 -0.6324 -0.2493
16184TIP3    H169967   5.916   2.561   4.617  1.9736 -2.5190 -0.5322
16184TIP3    H269968   5.872   2.461   4.721 -0.8596  0.1565  0.9188
16185TIP3   OH269969   3.331   4.555   3.083 -0.0378  0.3638  0.1366
16185TIP3    H169970   3.305   4.534   2.994  1.1302 -0.5969  0.0123
16185TIP3    H269971   3.348   4.649   3.081  1.8274  0.0356 -1.1485
16186TIP3   OH269972   1.507   5.513   5.921 -0.0303  0.0149  0.0519
16186TIP3    H169973   1.525   5.605   5.936  0.0065  0.0005  0.0965
16186TIP3    H269974   1.585   5.468   5.953  0.4399  0.0468 -1.0340
16187TIP3   OH269975   4.698   3.315  12.625 -0.2609  0.5182  0.3702
16187TIP3    H169976   4.626   3.331  12.565 -0.0248  0.9782  0.2052
16187TIP3    H269977   4.765   3.380  12.601  2.3433 -3.1450 -2.9455
16188TIP3   OH269978   3.827   2.708   1.792 -0.0775  0.3260  0.4471
16188TIP3    H169979   3.875   2.686   1.872 -0.2526  0.3461  0.5580
16188TIP3    H269980   3.789   2.626   1.763  0.3148  0.2416  0.1645
16189TIP3   OH269981   0.625   6.428  14.968  0.2103 -0.5190 -0.3336
16189TIP3    H169982   0.554   6.487  14.941 -0.1107 -0.7461  0.0010
16189TIP3    H269983   0.583   6.342  14.973  0.7467 -0.8357 -1.1305
16190TIP3   OH269984   0.771   1.660  17.056  0.4573 -0.7149 -0.2866
16190TIP3    H169985   0.838   1.699  17.000  0.3024 -0.7666 -0.5076
16190TIP3    H269986   0.739   1.584  17.008 -2.0222  1.1100 -1.6789
16191TIP3   OH269987   4.296   2.105  11.508  0.1568  0.3596 -0.0962
16191TIP3    H169988   4.253   2.151  11.436 -1.0001  0.7232  0.8163
16191TIP3    H269989   4.251   2.021  11.514 -0.4921  0.7688  0.9021
16192TIP3   OH269990   5.992   0.276   1.508  0.1978 -0.2227 -0.1746
16192TIP3    H169991   5.989   0.346   1.573 -2.3778 -1.4320  1.0796
16192TIP3    H269992   5.985   0.321   1.424 -3.2621  0.9906  0.6830
16193TIP3   OH269993   0.305   1.897  11.381  0.1575 -0.4140  0.2223
16193TIP3    H169994   0.263   1.873  11.299 -0.2616 -0.1734  0.3670
16193TIP3    H269995   0.303   1.817  11.433 -0.8039 -0.2064  0.5188
16194TIP3   OH269996   6.642   1.081  12.339  0.1455 -0.1211  0.0389
16194TIP3    H169997   6.556   1.120  12.353  0.4374  0.6444 -0.2795
16194TIP3    H269998   6.703   1.155  12.343  0.8833 -0.7669  1.1296
16195TIP3   OH269999   1.930   5.668  17.202 -0.2737 -0.4938 -0.1264
16195TIP3    H170000   1.989   5.713  17.263  1.3361 -0.7654 -1.4449
16195TIP3    H270001   1.852   5.650  17.254 -0.0735  1.8179  1.0625
16196TIP3   OH270002   1.272   1.436   3.129  0.2829 -0.3182 -0.1510
16196TIP3    H170003   1.302   1.501   3.066 -0.9602  0.2078 -0.2202
16196TIP3    H270004   1.293   1.474   3.214 -0.5595  0.2408 -0.1893
16197TIP3   OH270005   1.802   3.096   2.461  0.6484  0.0582 -0.7003
16197TIP3    H170006   1.747   3.079   2.537  1.0331 -0.1134 -0.4571
16197TIP3    H270007   1.864   3.162   2.491 -0.2389  1.2032 -1.3588
16198TIP3   OH270008   4.124   2.001  15.153 -0.9274 -0.1980 -0.5484
16198TIP3    H170009   4.051   2.056  15.125  0.2837  0.3902 -2.6781
16198TIP3    H270010   4.124   1.928  15.091 -1.7907 -2.0437  1.5412
16199TIP3   OH270011   0.681   5.242  12.851  0.5298  0.1790  0.5814
16199TIP3    H170012   0.715   5.187  12.780  0.7974  0.1508  0.7310
16199TIP3    H270013   0.680   5.184  12.927  2.0248  0.7429  1.0399
16200TIP3   OH270014   6.594   4.191   2.900  0.1780  0.1657 -0.3353
16200TIP3    H170015   6.651   4.217   2.827 -0.9849 -0.8619 -1.6306
16200TIP3    H270016   6.515   4.158   2.858 -1.6784  2.1977  1.4625
16201TIP3   OH270017   1.123   6.304   6.363 -0.0631 -0.2986 -0.2437
16201TIP3    H170018   1.164   6.231   6.410  0.7061 -1.0926 -2.1161
16201TIP3    H270019   1.191   6.371   6.360 -0.3503  0.0269  0.3703
16202TIP3   OH270020   1.648   2.564   5.533 -0.2454 -0.2422  0.1695
16202TIP3    H170021   1.698   2.581   5.454  0.5014  0.6784  0.8359
16202TIP3    H270022   1.633   2.469   5.531  1.5213 -0.5337 -0.0333
16203TIP3   OH270023   6.260   4.752   0.063 -0.1105 -0.2577  0.0633
16203TIP3    H170024   6.265   4.819  -0.004 -0.1096  0.2034  0.5211
16203TIP3    H270025   6.277   4.670   0.017 -1.1314 -0.0564 -0.6829
16204TIP3   OH270026   0.710   4.019  12.709 -0.5127 -0.5818 -0.5441
16204TIP3    H170027   0.623   4.012  12.748 -0.9974  2.0435 -1.0296
16204TIP3    H270028   0.717   4.111  12.684  1.9243 -1.0350 -1.6513
16205TIP3   OH270029   2.095   4.355   4.817  0.0512 -0.0743 -0.3892
16205TIP3    H170030   2.118   4.440   4.780 -0.5035  1.5187  2.7426
16205TIP3    H270031   2.177   4.304   4.813  0.7565  1.0809 -0.9797
16206TIP3   OH270032   3.935   0.268   5.460  0.2495 -0.2486 -0.0384
16206TIP3    H170033   3.917   0.204   5.392 -0.7075 -0.8099  0.7326
16206TIP3    H270034   3.944   0.351   5.414 -0.0854 -0.6748 -0.8740
16207TIP3   OH270035   2.209   2.590  15.507 -0.6059  0.3408 -0.6125
16207TIP3    H170036   2.275   2.520  15.504 -0.2515  0.6923 -1.0228
16207TIP3    H270037   2.131   2.547  15.542 -0.6722 -0.4955 -1.7494
16208TIP3   OH270038   1.320   2.668   1.873 -0.1301  0.2286  0.2845
16208TIP3    H170039   1.290   2.685   1.783 -2.2662  0.8858  1.0793
16208TIP3    H270040   1.303   2.750   1.919 -0.1072 -0.4788  1.5682
16209TIP3   OH270041   3.646   1.288   0.408 -0.1827  0.0270 -0.3199
16209TIP3    H170042   3.597   1.319   0.332  0.9819  0.6453 -0.8319
16209TIP3    H270043   3.580   1.244   0.463 -1.4455  1.4286 -0.6663
16210TIP3   OH270044   2.387   5.396   2.209 -0.0204  0.0284  0.1898
16210TIP3    H170045   2.474   5.367   2.234  0.0743  0.9496  0.9476
16210TIP3    H270046   2.339   5.315   2.190  0.7160 -0.5318  0.6985
16211TIP3   OH270047   3.485   4.341  15.155 -0.1307  0.0743  0.0976
16211TIP3    H170048   3.575   4.373  15.165 -0.2007  0.2151  0.2873
16211TIP3    H270049   3.436   4.417  15.125  0.1878 -0.5001 -1.9617
16212TIP3   OH270050   2.960   5.225  14.672  0.4918 -0.7926 -0.4944
16212TIP3    H170051   2.893   5.162  14.646 -0.1436 -0.3585  0.0486
16212TIP3    H270052   2.976   5.205  14.764  0.0474  0.0380 -0.2321
16213TIP3   OH270053   3.291   0.137   0.219 -0.4441  0.2732  0.3152
16213TIP3    H170054   3.255   0.114   0.134 -0.6381 -1.4776  0.8584
16213TIP3    H270055   3.364   0.195   0.199 -0.0820 -0.6368 -1.0713
16214TIP3   OH270056   5.984   3.839  14.957 -0.8976 -0.4093  0.5279
16214TIP3    H170057   6.022   3.806  14.876 -0.7641 -1.0829  0.8621
16214TIP3    H270058   6.051   3.823  15.024 -0.7110  0.8119  0.6417
16215TIP3   OH270059   1.449   3.037   5.660  0.2083  0.0051  0.7008
16215TIP3    H170060   1.447   3.111   5.722  3.8580 -0.8638  1.9930
16215TIP3    H270061   1.473   2.962   5.714  0.8870 -1.2596 -1.3306
16216TIP3   OH270062   1.305   1.702   4.522  0.6821  0.0432  0.7404
16216TIP3    H170063   1.284   1.784   4.567  0.5553 -0.2136  1.1429
16216TIP3    H270064   1.300   1.725   4.429  1.7016  0.7583  0.8605
16217TIP3   OH270065   3.477   0.106   5.210  0.4210 -0.2145  0.6430
16217TIP3    H170066   3.486   0.011   5.197  1.5705 -0.1335  0.7312
16217TIP3    H270067   3.520   0.144   5.133 -2.0592  0.2393 -0.5542
16218TIP3   OH270068   1.243   6.127   5.569 -0.5836 -0.1591  0.3505
16218TIP3    H170069   1.310   6.060   5.567 -0.4146 -0.0262  1.2035
16218TIP3    H270070   1.260   6.181   5.492  1.4304  0.9650  1.5361
16219TIP3   OH270071   2.260   3.077   1.896 -0.2098  0.1722  0.0725
16219TIP3    H170072   2.318   3.002   1.909 -0.9380 -0.7577 -1.7679
16219TIP3    H270073   2.177   3.049   1.934  0.0275  0.8074  1.0873
16220TIP3   OH270074   3.102   4.037  14.426 -0.0534 -0.1088 -0.1098
16220TIP3    H170075   3.194   4.054  14.401 -0.3020 -0.4036 -1.2614
16220TIP3    H270076   3.095   4.070  14.516  1.0668  0.3366 -0.1754
16221TIP3   OH270077   5.634   2.032   6.393  0.3761 -0.1005 -0.1448
16221TIP3    H170078   5.543   2.023   6.421  0.2958 -0.8648 -0.6332
16221TIP3    H270079   5.671   1.945   6.406  0.7115 -0.0951 -1.0742
16222TIP3   OH270080   0.990   5.117  15.289  0.3957 -0.3355 -0.1287
16222TIP3    H170081   0.918   5.055  15.282  0.1299 -0.1066  0.5447
16222TIP3    H270082   0.983   5.152  15.378  0.3383  0.9043 -0.6084
16223TIP3   OH270083   2.793   3.136  10.499 -0.2912  0.1159 -0.3769
16223TIP3    H170084   2.838   3.084  10.432 -0.7930 -0.5832 -0.1779
16223TIP3    H270085   2.731   3.075  10.539  1.7115 -0.1739  2.4238
16224TIP3   OH270086   2.142   4.935  15.700  0.5721  0.2876  0.1203
16224TIP3    H170087   2.046   4.928  15.701  0.6778 -1.3951 -0.1503
16224TIP3    H270088   2.170   4.874  15.769  1.5191 -0.6051 -1.0472
16225TIP3   OH270089   4.975   4.975  16.802 -0.9704  0.1362  0.5744
16225TIP3    H170090   4.985   4.882  16.818 -0.0146 -0.4404 -3.0425
16225TIP3    H270091   4.961   5.013  16.889  2.7211 -2.8098  2.5746
16226TIP3   OH270092   5.541   4.317  16.754  0.2186 -0.5977 -0.0296
16226TIP3    H170093   5.514   4.307  16.845 -2.5435 -2.2303 -0.9784
16226TIP3    H270094   5.585   4.403  16.751 -1.8048  0.5658  2.3141
16227TIP3   OH270095   4.396   1.156   4.775  0.2048 -0.1085  0.2641
16227TIP3    H170096   4.470   1.192   4.726 -1.4915  1.3704 -1.2814
16227TIP3    H270097   4.328   1.223   4.768 -1.2584 -1.4099  1.7314
16228TIP3   OH270098   4.537   5.279  14.300 -0.0560  0.0538  0.7435
16228TIP3    H170099   4.605   5.212  14.300  2.3865  2.4499 -0.2841
16228TIP3    H270100   4.576   5.354  14.345 -1.9459  1.5560 -0.0263
16229TIP3   OH270101   3.808   4.752  15.485 -0.8735  0.5441  0.4854
16229TIP3    H170102   3.890   4.759  15.534 -1.6651  1.2976  1.7174
16229TIP3    H270103   3.822   4.809  15.409  0.3736 -0.6722 -0.2224
16230TIP3   OH270104   4.667   0.273  10.763 -0.2265 -0.2902 -0.2259
16230TIP3    H170105   4.666   0.301  10.671 -2.0997 -1.3530 -0.5582
16230TIP3    H270106   4.609   0.197  10.766 -0.2199 -0.2506  1.8588
16231TIP3   OH270107   4.474   6.733  12.569 -0.3524  0.2581  0.3907
16231TIP3    H170108   4.529   6.691  12.635 -0.3882  0.5353  0.5943
16231TIP3    H270109   4.476   6.826  12.591  0.9048  0.5609 -0.9266
16232TIP3   OH270110   6.206   5.674  15.698 -0.5629 -0.3007  0.1549
16232TIP3    H170111   6.249   5.591  15.678 -1.0923 -0.4804 -0.2496
16232TIP3    H270112   6.113   5.652  15.706 -1.0461  0.6393 -2.3520
16233TIP3   OH270113   1.540   5.961  15.714  0.1349 -0.0908 -0.5374
16233TIP3    H170114   1.559   5.879  15.760  1.1167 -1.0094 -2.4953
16233TIP3    H270115   1.462   5.996  15.757 -0.3223 -2.0719  0.2929
16234TIP3   OH270116   4.591   6.424  15.602  0.4498  0.1786 -0.5003
16234TIP3    H170117   4.525   6.355  15.594  1.2454 -0.4907 -1.5698
16234TIP3    H270118   4.560   6.479  15.673 -1.2791 -0.1032 -1.0022
16235TIP3   OH270119   3.700   0.135  11.577 -0.6219  0.5740 -0.6874
16235TIP3    H170120   3.769   0.070  11.591 -0.2055  1.3470  1.1005
16235TIP3    H270121   3.707   0.159  11.485  1.0545  0.1541 -0.6816
16236TIP3   OH270122   4.479   1.555  15.937 -0.5650 -0.5231  0.2164
16236TIP3    H170123   4.409   1.510  15.889 -1.8233 -2.6089  3.8252
16236TIP3    H270124   4.510   1.490  16.000  1.1970  2.0241  2.0362
16237TIP3   OH270125   2.323   1.478   2.897 -0.2249  0.1249  0.1516
16237TIP3    H170126   2.352   1.518   2.815 -1.7128  0.3449 -0.2861
16237TIP3    H270127   2.343   1.544   2.964  1.6915 -0.3684  0.0838
16238TIP3   OH270128   0.373   4.554  17.051 -0.6892 -0.6189  0.2014
16238TIP3    H170129   0.439   4.506  17.101 -0.4854  0.2456  0.7621
16238TIP3    H270130   0.332   4.487  16.996  0.6540 -1.1633 -0.1527
16239TIP3   OH270131   3.124   2.952   3.581 -0.0853  0.0617 -0.2401
16239TIP3    H170132   3.122   3.048   3.573 -1.1532  0.2157  1.6916
16239TIP3    H270133   3.045   2.923   3.535 -1.1527  0.2972  1.4181
16240TIP3   OH270134   5.834   1.660   1.640 -0.3403  0.2837  0.6064
16240TIP3    H170135   5.800   1.637   1.727  1.9601 -1.1201  1.1731
16240TIP3    H270136   5.860   1.752   1.648 -1.2850  0.5217  1.0260
16241TIP3   OH270137   6.697   3.140  11.616  0.8492  0.2426  0.1018
16241TIP3    H170138   6.736   3.053  11.611 -0.6352 -0.6444  2.8587
16241TIP3    H270139   6.606   3.127  11.590  1.2541  1.5168 -2.1205
16242TIP3   OH270140   2.781   5.807   4.028 -0.1056  0.4230  0.1587
16242TIP3    H170141   2.797   5.899   4.051 -0.4585  0.8653 -1.3183
16242TIP3    H270142   2.705   5.782   4.080 -1.5062  1.7113 -1.2363
16243TIP3   OH270143   2.265   2.008  12.357 -0.4382 -0.6363 -0.0112
16243TIP3    H170144   2.183   2.007  12.307 -0.0457  0.0734 -0.6907
16243TIP3    H270145   2.238   2.003  12.448 -1.2463 -0.3951 -0.2305
16244TIP3   OH270146   5.425   1.574   2.087  0.2606 -0.5133  0.3171
16244TIP3    H170147   5.385   1.621   2.161 -1.3386 -1.4764  0.0685
16244TIP3    H270148   5.516   1.605   2.086 -0.2946  1.2070  1.2864
16245TIP3   OH270149   5.611   5.831   3.220  0.5966  0.4354 -0.0782
16245TIP3    H170150   5.584   5.762   3.281  2.8727  0.5473  1.0997
16245TIP3    H270151   5.672   5.788   3.160 -0.2786  0.7425 -1.2074
16246TIP3   OH270152   4.003   3.226   5.815 -0.1429 -0.2150  0.0491
16246TIP3    H170153   4.093   3.205   5.789 -0.5777 -0.2878 -1.4484
16246TIP3    H270154   4.012   3.300   5.875  0.7827  1.3466 -1.9487
16247TIP3   OH270155   2.191   1.760   5.320 -0.5825  0.6722 -0.3297
16247TIP3    H170156   2.279   1.733   5.292 -0.8246  0.4212 -0.8684
16247TIP3    H270157   2.137   1.750   5.241 -1.7281 -2.0471  0.7206
16248TIP3   OH270158   0.450   6.684   3.708  0.5668  0.0355  0.0586
16248TIP3    H170159   0.403   6.724   3.635  1.0059 -0.4197 -0.4678
16248TIP3    H270160   0.540   6.715   3.699  0.8870 -0.9961 -0.2937
16249TIP3   OH270161   6.319   4.379  12.352 -0.2107  0.4099  0.2059
16249TIP3    H170162   6.240   4.423  12.383  0.5105  1.0316  1.1732
16249TIP3    H270163   6.289   4.327  12.277 -1.5964  0.3685  0.7681
16250TIP3   OH270164   1.523   4.454  16.160 -0.6179 -0.7069  0.0757
16250TIP3    H170165   1.610   4.434  16.195  0.3103  1.7233 -0.7630
16250TIP3    H270166   1.466   4.456  16.237  0.3866 -0.6210  0.8232
16251TIP3   OH270167   2.034   1.807  14.497  0.3864  0.4930  1.1334
16251TIP3    H170168   1.949   1.772  14.468  0.1450  1.6515  0.4277
16251TIP3    H270169   2.060   1.748  14.568  0.1402 -1.3351 -0.2443
16252TIP3   OH270170   6.053   1.403  12.334  0.4743 -0.3417 -0.5140
16252TIP3    H170171   6.048   1.433  12.424 -0.4584  1.5321 -1.1689
16252TIP3    H270172   6.131   1.445  12.298  1.7283 -2.2948 -0.1792
16253TIP3   OH270173   4.026   3.842  14.393 -0.6475  0.4818  0.1989
16253TIP3    H170174   4.033   3.796  14.309 -1.6108  0.4570  0.1272
16253TIP3    H270175   3.953   3.798  14.438 -1.3047  1.6649  0.3037
16254TIP3   OH270176   5.325   5.489   4.456  0.2310  0.1727 -0.7040
16254TIP3    H170177   5.404   5.489   4.510 -1.6903  0.9966  2.2882
16254TIP3    H270178   5.304   5.582   4.443 -1.4909 -0.0039  0.5532
16255TIP3   OH270179   6.615   4.919  15.373  0.4206  0.2512  1.1141
16255TIP3    H170180   6.630   4.974  15.297  1.0299 -3.3972 -1.5314
16255TIP3    H270181   6.543   4.961  15.419 -0.6175  2.0415 -2.0142
16256TIP3   OH270182   3.230   4.621  11.695 -0.6581  0.0168 -0.3849
16256TIP3    H170183   3.273   4.582  11.620 -0.7212  0.6476 -0.7576
16256TIP3    H270184   3.144   4.580  11.698 -1.1349  0.9082 -1.4302
16257TIP3   OH270185   5.899   5.315  16.153  0.0191 -0.3267 -0.1157
16257TIP3    H170186   5.831   5.248  16.162 -1.4976  0.9811 -1.4884
16257TIP3    H270187   5.853   5.398  16.166  1.4699  0.5576 -0.4907
16258TIP3   OH270188   5.998   0.354  13.631 -0.1451  0.1345 -0.6634
16258TIP3    H170189   5.970   0.445  13.626 -1.0660 -0.1207 -0.3216
16258TIP3    H270190   5.986   0.321  13.542  0.0192  0.3048 -0.7480
16259TIP3   OH270191   2.122   3.401  11.752 -0.0669  0.4550 -0.4114
16259TIP3    H170192   2.103   3.337  11.683 -2.3282  1.1082 -0.4470
16259TIP3    H270193   2.070   3.372  11.827  1.3243  0.5198  0.5993
16260TIP3   OH270194   6.443   4.527  11.829  0.3978  0.1058  0.2003
16260TIP3    H170195   6.377   4.566  11.886  0.3008 -1.0610  0.9077
16260TIP3    H270196   6.399   4.519  11.744  0.3418  1.2806  0.1069
16261TIP3   OH270197   3.540   5.671   5.181 -0.1304 -0.0674 -0.8486
16261TIP3    H170198   3.529   5.672   5.086 -0.9291  0.8127 -0.7618
16261TIP3    H270199   3.537   5.764   5.206  1.6273 -0.2021 -0.1283
16262TIP3   OH270200   3.191   0.176   2.757  0.2129 -0.7797  0.5685
16262TIP3    H170201   3.112   0.191   2.809  0.4531  0.5929  0.5491
16262TIP3    H270202   3.263   0.189   2.818  0.4519 -0.9502  0.3239
16263TIP3   OH270203   6.046   4.612   4.457 -0.0446 -0.6866  0.5777
16263TIP3    H170204   5.965   4.591   4.410  0.5361 -0.7351 -0.4077
16263TIP3    H270205   6.109   4.635   4.388  1.2478 -2.2168  1.2158
16264TIP3   OH270206   2.961   0.636   1.982  0.1046  0.0075 -0.4606
16264TIP3    H170207   3.014   0.617   1.904 -0.6711 -0.8449 -0.7914
16264TIP3    H270208   2.876   0.662   1.948 -0.6238 -1.5574  0.1068
16265TIP3   OH270209   5.360   4.026   4.023 -0.4301 -0.3354  0.1497
16265TIP3    H170210   5.295   4.082   3.982  0.9952  0.2083 -1.4229
16265TIP3    H270211   5.329   3.937   4.006 -0.6356 -0.0876 -0.7790
16266TIP3   OH270212   5.562   1.960   5.848  0.2887  0.1577  0.3917
16266TIP3    H170213   5.570   1.867   5.869  0.4071  0.5280  2.0622
16266TIP3    H270214   5.496   1.993   5.910  0.2552  1.1881 -0.1796
16267TIP3   OH270215   1.784   0.943  11.167 -0.1285 -0.1498 -0.2619
16267TIP3    H170216   1.855   1.006  11.180 -0.9438  0.8979 -0.8722
16267TIP3    H270217   1.821   0.860  11.198  1.7356  0.1728 -1.5030
16268TIP3   OH270218   3.923   6.688   2.870  0.4619  0.3586 -0.4428
16268TIP3    H170219   3.870   6.759   2.906  2.0894  1.6242 -0.5009
16268TIP3    H270220   3.964   6.725   2.792 -0.0052 -1.1774 -1.4321
16269TIP3   OH270221   0.339   2.584   1.150  0.1772 -0.6901  0.0844
16269TIP3    H170222   0.377   2.632   1.076 -0.1287 -0.2515  0.2039
16269TIP3    H270223   0.264   2.638   1.176  1.2685  0.0465  1.7854
16270TIP3   OH270224   3.877   1.491   1.725  0.1692  0.2843  0.5409
16270TIP3    H170225   3.867   1.586   1.726  0.3726  0.3078  0.5389
16270TIP3    H270226   3.852   1.463   1.813  4.6403  0.8518  2.1172
16271TIP3   OH270227   4.614   3.513  16.844 -0.5799  0.1785 -0.4164
16271TIP3    H170228   4.602   3.522  16.749 -0.1231  1.0115 -0.4024
16271TIP3    H270229   4.535   3.552  16.882  0.2369  1.8701 -0.4138
16272TIP3   OH270230   5.844   6.366  17.056  0.5680  0.3196 -0.2206
16272TIP3    H170231   5.877   6.374  17.146 -0.2065  1.5347 -0.0437
16272TIP3    H270232   5.845   6.455  17.021 -2.0814  0.3380 -0.3540
16273TIP3   OH270233   4.277   0.996  11.087  0.1753  0.0969  0.3268
16273TIP3    H170234   4.281   0.914  11.136 -0.0714 -0.3088 -0.3317
16273TIP3    H270235   4.184   1.018  11.083 -0.0378 -1.0924 -1.9555
16274TIP3   OH270236   0.362   4.513   5.872 -0.0844  0.3365 -0.0733
16274TIP3    H170237   0.295   4.571   5.909 -1.3559 -0.5557 -0.9520
16274TIP3    H270238   0.313   4.444   5.828  1.4224 -0.9025  0.1469
16275TIP3   OH270239   3.976   0.874  14.970  0.6974  0.3484  0.0008
16275TIP3    H170240   3.921   0.815  15.021  1.8165 -2.2293 -1.6682
16275TIP3    H270241   3.924   0.892  14.892  0.9193  0.4634 -0.1195
16276TIP3   OH270242   6.623   3.713  10.618 -0.2998 -0.6146 -0.5284
16276TIP3    H170243   6.549   3.772  10.630 -1.4491 -1.6833 -2.2232
16276TIP3    H270244   6.671   3.751  10.544  0.9109  0.1058  0.5964
16277TIP3   OH270245   4.142   1.102   1.899  0.6930  0.3333  0.0243
16277TIP3    H170246   4.113   1.168   1.962 -0.1339 -1.4765  1.5957
16277TIP3    H270247   4.077   1.105   1.829 -0.6199 -0.3686  1.1902
16278TIP3   OH270248   4.376   1.243   6.517 -0.1103 -0.4032  0.3449
16278TIP3    H170249   4.427   1.221   6.595  0.4190 -2.1181 -0.4715
16278TIP3    H270250   4.430   1.213   6.444 -2.9920 -3.8050 -0.4961
16279TIP3   OH270251   0.716   6.497   4.567  0.0267  0.0859 -0.0483
16279TIP3    H170252   0.705   6.565   4.500 -0.3128 -1.3844 -1.5363
16279TIP3    H270253   0.809   6.473   4.561 -0.0556 -0.2066 -0.1567
16280TIP3   OH270254   2.698   6.525  11.134  0.0963 -0.0731 -0.7814
16280TIP3    H170255   2.663   6.501  11.049  1.2130  0.3491 -1.3745
16280TIP3    H270256   2.634   6.586  11.171  0.2567  0.7844 -1.9032
16281TIP3   OH270257   2.902   6.532   0.335 -0.7561  0.5117  0.1046
16281TIP3    H170258   2.954   6.608   0.308  0.1820 -0.4950 -0.9493
16281TIP3    H270259   2.884   6.548   0.427  1.7888  0.7061  0.6260
16282TIP3   OH270260   3.516   5.287  11.053  1.2405 -0.2769  0.5929
16282TIP3    H170261   3.465   5.366  11.033 -0.2864 -1.2466  0.5732
16282TIP3    H270262   3.559   5.266  10.970 -0.9660 -1.3188 -0.3347
16283TIP3   OH270263   3.843   2.162  12.532  0.0236  0.3012  0.5483
16283TIP3    H170264   3.871   2.227  12.468  2.3785 -0.7937  0.4369
16283TIP3    H270265   3.855   2.078  12.489  0.7860 -0.4005  2.0887
16284TIP3   OH270266   4.002   3.063  14.663  0.2613 -0.0953  0.0107
16284TIP3    H170267   3.916   3.084  14.627  0.0884  0.3310  0.6784
16284TIP3    H270268   4.049   3.146  14.662 -0.0169  0.0877  1.5343
16285TIP3   OH270269   5.380   3.611   4.433  0.0759  0.2187 -0.7498
16285TIP3    H170270   5.348   3.612   4.343 -0.9784 -1.1600 -0.4032
16285TIP3    H270271   5.321   3.552   4.479  0.0973  1.5520  1.0485
16286TIP3   OH270272   4.068   4.039  12.522  0.2115 -0.3484 -0.5877
16286TIP3    H170273   4.004   4.108  12.539 -0.5432 -1.4415  1.1429
16286TIP3    H270274   4.018   3.969  12.480  0.8346 -0.1520 -1.6923
16287TIP3   OH270275   2.221   4.739   4.031 -0.1989  0.0293 -0.3125
16287TIP3    H170276   2.184   4.822   3.997  0.2169 -0.1089 -1.1211
16287TIP3    H270277   2.208   4.745   4.126  0.2120  1.2146 -0.3159
16288TIP3   OH270278   6.103   2.769  16.256  0.1498 -1.0572 -0.3698
16288TIP3    H170279   6.025   2.807  16.215  1.4288  0.9231 -1.0678
16288TIP3    H270280   6.143   2.717  16.186 -0.3007 -1.6974 -0.1506
16289TIP3   OH270281   4.521   2.865   2.988 -0.3507 -0.2684 -0.2602
16289TIP3    H170282   4.476   2.895   2.910 -2.1125 -1.7820  0.1151
16289TIP3    H270283   4.464   2.797   3.024  1.7198 -1.4871  0.8647
16290TIP3   OH270284   4.625   1.210   0.939 -0.3339 -0.0387  0.4728
16290TIP3    H170285   4.687   1.159   0.991  1.4411  1.9688  0.3868
16290TIP3    H270286   4.557   1.235   1.002  1.0918  1.2188  1.5622
16291TIP3   OH270287   5.412   1.442   1.419  0.1629 -0.3611 -0.0459
16291TIP3    H170288   5.465   1.512   1.381 -1.6283  0.1078 -1.7596
16291TIP3    H270289   5.326   1.482   1.432  0.5044 -0.7096  3.9105
16292TIP3   OH270290   0.767   4.842  12.957  0.6021 -0.0139  0.7203
16292TIP3    H170291   0.817   4.867  13.035 -0.5041  2.9013  0.5675
16292TIP3    H270292   0.675   4.847  12.984  0.1776  1.6612 -0.9005
16293TIP3   OH270293   2.924   5.425   2.234  0.2121  0.1112 -0.3029
16293TIP3    H170294   2.966   5.359   2.289 -1.3412 -0.9285 -0.3538
16293TIP3    H270295   2.912   5.383   2.149  1.1396  1.1775 -0.9759
16294TIP3   OH270296   4.207   0.434   0.736 -0.1706 -0.0017  0.0501
16294TIP3    H170297   4.148   0.435   0.661 -2.9244 -1.1704  2.0981
16294TIP3    H270298   4.190   0.351   0.779  1.9591  0.2826  1.5088
16295TIP3   OH270299   5.697   1.735   6.499 -0.0401  0.3023 -0.1764
16295TIP3    H170300   5.615   1.716   6.544  0.3373 -1.4305 -0.2018
16295TIP3    H270301   5.765   1.726   6.566  0.0257  3.4963  0.2949
16296TIP3   OH270302   3.957   3.841  12.352 -0.0667  0.2479  0.1558
16296TIP3    H170303   3.980   3.761  12.399 -0.9371  0.6406  1.2907
16296TIP3    H270304   3.903   3.811  12.279  1.0383 -0.3436 -0.4286
16297TIP3   OH270305   6.701   2.378   5.207 -0.4284 -0.8839 -0.1608
16297TIP3    H170306   6.684   2.284   5.212  1.6589 -1.3478 -1.0219
16297TIP3    H270307   6.759   2.388   5.131  0.4590  0.9259  0.7124
16298TIP3   OH270308   0.380   2.333   2.649  0.3474  0.3983 -0.1725
16298TIP3    H170309   0.469   2.312   2.620  1.2642 -0.1635  2.8667
16298TIP3    H270310   0.351   2.254   2.696 -0.8072  1.4848  0.9842
16299TIP3   OH270311   2.061   1.168   1.268 -0.5846 -0.1814  0.2023
16299TIP3    H170312   2.146   1.139   1.302 -1.0099 -0.5759  0.9385
16299TIP3    H270313   2.060   1.262   1.284 -0.5791 -0.2879  0.8577
16300TIP3   OH270314   2.487   4.636  14.666 -0.4320 -0.0619 -0.4567
16300TIP3    H170315   2.447   4.655  14.751  0.3664 -0.4200  0.0086
16300TIP3    H270316   2.437   4.687  14.604 -1.3171 -0.1434  0.1793
16301TIP3   OH270317   0.301   5.963   2.933  0.1093  0.1235  0.2075
16301TIP3    H170318   0.356   5.896   2.891  0.2104  0.8703 -0.8929
16301TIP3    H270319   0.350   5.990   3.010  1.1759  0.5596 -0.6008
16302TIP3   OH270320   1.744   1.751   5.618  0.0391 -0.2317  0.0073
16302TIP3    H170321   1.766   1.677   5.560  2.4456 -1.8475  2.8360
16302TIP3    H270322   1.695   1.712   5.690  2.0202  0.7514  1.9400
16303TIP3   OH270323   3.601   6.424   6.410 -0.2244  0.5569  0.4980
16303TIP3    H170324   3.623   6.503   6.361  1.0944 -0.5500 -0.7327
16303TIP3    H270325   3.621   6.446   6.501 -0.7241  1.9358  0.2869
16304TIP3   OH270326   3.004   2.245   1.018  1.1130 -0.1107 -0.0935
16304TIP3    H170327   3.086   2.198   1.002  0.6552  0.1344 -3.4651
16304TIP3    H270328   2.957   2.242   0.934 -1.6891  1.0183  1.3502
16305TIP3   OH270329   3.122   0.575  16.746  0.4948 -0.2048  0.2316
16305TIP3    H170330   3.189   0.634  16.781  1.4592 -1.0583 -0.1897
16305TIP3    H270331   3.054   0.634  16.712  1.3049  0.6603  0.1092
16306TIP3   OH270332   5.434   5.350  14.689 -0.1461 -0.1531 -0.0892
16306TIP3    H170333   5.431   5.425  14.749  0.3611 -0.1077 -0.1186
16306TIP3    H270334   5.400   5.277  14.740  0.2185 -0.1000  0.2323
16307TIP3   OH270335   3.208   0.683   4.551  0.7500  0.2627 -0.2734
16307TIP3    H170336   3.292   0.660   4.512 -0.0410 -1.6997 -0.8956
16307TIP3    H270337   3.219   0.666   4.644  1.3125  0.8370 -0.2330
16308TIP3   OH270338   4.618   3.384  15.928 -0.3360  0.0473 -0.1125
16308TIP3    H170339   4.651   3.455  15.872 -1.1683 -0.5937 -1.4389
16308TIP3    H270340   4.582   3.320  15.867 -1.3045 -0.6530  1.1621
16309TIP3   OH270341   1.890   3.196   0.459  0.4168 -0.0281 -0.5332
16309TIP3    H170342   1.946   3.261   0.416 -1.2456  0.6959 -1.6417
16309TIP3    H270343   1.839   3.157   0.388 -0.6554 -0.5217  0.4847
16310TIP3   OH270344   2.061   6.411   5.328  0.9361  0.3402  0.1755
16310TIP3    H170345   2.008   6.481   5.290  0.3720 -0.2258 -0.0891
16310TIP3    H270346   2.126   6.457   5.381  1.0437  1.0937 -0.5883
16311TIP3   OH270347   4.813   2.188  12.281 -0.1059 -0.6223 -0.5653
16311TIP3    H170348   4.835   2.179  12.188 -0.7069  0.0155 -0.7731
16311TIP3    H270349   4.739   2.248  12.282 -0.0438 -0.5592  0.3401
16312TIP3   OH270350   6.657   4.450  16.648 -0.0927  0.4936  0.5451
16312TIP3    H170351   6.647   4.541  16.677  0.6121  1.6761 -2.7128
16312TIP3    H270352   6.570   4.425  16.617 -0.7085 -0.5748  3.0374
16313TIP3   OH270353   1.392   4.089   2.776 -0.1831 -0.0564  0.1506
16313TIP3    H170354   1.371   4.071   2.868  1.4837  0.7622  0.7194
16313TIP3    H270355   1.433   4.008   2.745 -0.9977 -0.4296  0.0513
16314TIP3   OH270356   5.743   1.713  17.060 -0.0708  0.1296  0.2749
16314TIP3    H170357   5.792   1.742  17.137  0.0797 -1.2300  0.7031
16314TIP3    H270358   5.809   1.706  16.991  0.4003 -1.8341  0.8862
16315TIP3   OH270359   0.372   4.277  17.056  0.0888 -0.4362  0.7031
16315TIP3    H170360   0.399   4.208  16.995 -0.5763  0.4140 -0.5896
16315TIP3    H270361   0.416   4.255  17.138  2.2833 -0.7176 -0.5114
16316TIP3   OH270362   3.995   1.185  16.902  0.1897  0.1482 -0.0288
16316TIP3    H170363   3.912   1.193  16.854  1.6492  3.2679 -2.1879
16316TIP3    H270364   3.995   1.259  16.963  1.2541  0.0154  0.1404
16317TIP3   OH270365   5.491   3.903   4.304 -0.1887  0.6811  0.2790
16317TIP3    H170366   5.509   3.895   4.210 -1.2070 -1.5521  0.2210
16317TIP3    H270367   5.565   3.860   4.346  0.4116  1.9393  0.5250
16318TIP3   OH270368   6.262   0.879   0.558  0.1945 -0.0594 -0.4658
16318TIP3    H170369   6.307   0.824   0.495 -0.4069 -1.7482  0.5528
16318TIP3    H270370   6.272   0.834   0.642 -0.7116  1.1301  0.3136
16319TIP3   OH270371   6.369   0.101   0.588 -0.2896  0.0421 -0.1821
16319TIP3    H170372   6.417   0.021   0.565 -0.5837 -0.0988 -0.3010
16319TIP3    H270373   6.416   0.171   0.542  1.2315  0.2140  1.5579
16320TIP3   OH270374   0.847   3.339  13.131  0.1833  0.2366  0.0766
16320TIP3    H170375   0.807   3.292  13.204  1.9727 -1.3460  0.0891
16320TIP3    H270376   0.898   3.409  13.173 -0.0712  0.3362  0.2276
16321TIP3   OH270377   3.910   5.720   5.066 -0.0798 -0.5063 -0.0824
16321TIP3    H170378   3.999   5.744   5.038  0.2904  0.0727  1.5615
16321TIP3    H270379   3.855   5.739   4.990  0.8566  1.3157 -0.3221
16322TIP3   OH270380   1.952   3.204  11.587 -0.6301  0.0157  0.2839
16322TIP3    H170381   1.869   3.251  11.581 -0.7812 -0.2589  0.2277
16322TIP3    H270382   1.928   3.115  11.611 -0.3413 -0.0313  0.4039
16323TIP3   OH270383   4.047   0.286  12.089  0.4111 -0.2891 -0.0089
16323TIP3    H170384   4.061   0.247  12.003  0.0233 -2.1248  0.7283
16323TIP3    H270385   4.105   0.362  12.091  1.6880 -1.2123 -1.2429
16324TIP3   OH270386   3.939   0.621  16.729 -0.2155  0.1551 -0.1286
16324TIP3    H170387   3.916   0.534  16.761  2.4261 -0.4179  0.2486
16324TIP3    H270388   3.971   0.667  16.806 -0.5767  1.1328 -0.5543
16325TIP3   OH270389   1.599   2.414  13.434 -0.7772 -0.3701 -0.1414
16325TIP3    H170390   1.656   2.463  13.494 -0.2696 -1.7163  0.4998
16325TIP3    H270391   1.558   2.481  13.380  2.5256  0.5426 -1.6151
16326TIP3   OH270392   6.643   3.279  13.280 -0.4486 -0.2489  0.3916
16326TIP3    H170393   6.636   3.293  13.186  0.5173 -0.4733  0.2803
16326TIP3    H270394   6.603   3.194  13.295  0.5397 -0.7749  0.0119
16327TIP3   OH270395   2.276   4.657  13.341 -0.2509  0.0713  0.1532
16327TIP3    H170396   2.201   4.703  13.378 -2.0798 -2.4238 -0.2986
16327TIP3    H270397   2.242   4.616  13.261  1.0558 -2.6483  0.9257
16328TIP3   OH270398   3.283   0.595  16.134 -0.2330  0.2422  0.2506
16328TIP3    H170399   3.259   0.555  16.051  1.4245  1.1340 -0.7058
16328TIP3    H270400   3.342   0.667  16.109 -0.1920  0.8961  2.1514
16329TIP3   OH270401   0.291   2.403  11.459 -0.4944  0.1074  0.2955
16329TIP3    H170402   0.313   2.311  11.444  0.7358  0.8027 -2.4922
16329TIP3    H270403   0.355   2.432  11.525  0.5680 -0.4820 -0.4523
16330TIP3   OH270404   2.785   0.169   0.698 -0.1677 -0.8532 -0.0549
16330TIP3    H170405   2.866   0.220   0.702 -0.3152 -0.6228  0.0303
16330TIP3    H270406   2.756   0.164   0.790 -0.4284 -0.6418 -0.1243
16331TIP3   OH270407   5.518   2.596   5.240  0.0923 -0.0357 -0.4987
16331TIP3    H170408   5.439   2.633   5.279  0.0424 -0.0611 -0.5750
16331TIP3    H270409   5.506   2.501   5.247  0.7439 -0.0317  0.7401
16332TIP3   OH270410   3.190   3.914  13.201  0.1596  0.5686 -0.6064
16332TIP3    H170411   3.164   3.860  13.276 -2.4104  1.6339 -0.6933
16332TIP3    H270412   3.286   3.910  13.201  0.2326  0.7044  2.8605
16333TIP3   OH270413   3.665   5.119   3.602 -0.3791  0.0198  0.0537
16333TIP3    H170414   3.717   5.195   3.629 -0.1886  0.3523 -1.1875
16333TIP3    H270415   3.596   5.112   3.667  0.0719  0.7840  0.6197
16334TIP3   OH270416   3.435   3.369   4.426 -0.1893  0.0433  0.2810
16334TIP3    H170417   3.459   3.462   4.421 -0.7880  0.1981  0.2084
16334TIP3    H270418   3.344   3.370   4.455 -0.7500 -0.4684 -1.4255
16335TIP3   OH270419   1.239   1.688  13.952  0.3507 -0.2485 -0.3698
16335TIP3    H170420   1.313   1.642  13.991 -0.0611  0.2204  0.9866
16335TIP3    H270421   1.184   1.618  13.915  0.5263 -0.7337  0.2736
16336TIP3   OH270422   5.067   6.261  12.372 -0.3336 -0.1154  0.2060
16336TIP3    H170423   5.010   6.315  12.317  0.3924 -0.0243 -0.4760
16336TIP3    H270424   5.153   6.301  12.363 -0.3280  0.2878  1.9430
16337TIP3   OH270425   0.390   5.879   0.392  0.0171 -0.0583  0.0194
16337TIP3    H170426   0.365   5.797   0.436 -0.0769  0.5472  1.1127
16337TIP3    H270427   0.307   5.922   0.372  0.0676 -0.2086 -0.5313
16338TIP3   OH270428   3.455   1.042   2.197  0.2746  0.0305 -0.0703
16338TIP3    H170429   3.387   0.975   2.191  1.0053 -0.6943 -0.3494
16338TIP3    H270430   3.479   1.045   2.290 -0.4494  0.6046  0.1010
16339TIP3   OH270431   4.494   0.535   2.677  0.2188 -0.3352  0.3569
16339TIP3    H170432   4.419   0.497   2.631  1.0980 -0.4577 -0.9897
16339TIP3    H270433   4.455   0.578   2.754 -1.1570 -0.9307  0.0095
16340TIP3   OH270434   4.137   3.564   1.893 -0.4192  0.2586 -0.3200
16340TIP3    H170435   4.228   3.540   1.877 -1.3035 -2.0992 -2.2234
16340TIP3    H270436   4.128   3.652   1.857  1.1095  0.5391 -0.0430
16341TIP3   OH270437   1.011   2.469   3.914  0.1739 -0.2507  0.3868
16341TIP3    H170438   1.022   2.497   3.823  0.0871 -2.5004 -0.3486
16341TIP3    H270439   0.916   2.473   3.929  0.2501  0.7963  0.6136
16342TIP3   OH270440   1.178   4.682   4.227 -0.2840 -0.4573  0.1872
16342TIP3    H170441   1.106   4.728   4.184  0.5614  0.2091 -0.5489
16342TIP3    H270442   1.147   4.666   4.316 -1.5004 -0.5678 -0.2497
16343TIP3   OH270443   5.006   3.603   3.145 -0.1187  0.3698 -0.5582
16343TIP3    H170444   4.994   3.603   3.050 -2.0966  0.6861 -0.3211
16343TIP3    H270445   4.926   3.642   3.179  0.2393 -0.4944  1.2962
16344TIP3   OH270446   5.163   3.717  16.752 -0.5118 -0.0517 -0.3408
16344TIP3    H170447   5.245   3.719  16.702 -0.0596  0.4984  0.4130
16344TIP3    H270448   5.100   3.763  16.697 -0.6204 -1.4768 -1.4480
16345TIP3   OH270449   2.267   5.286   3.438 -0.4950  0.0004  0.1556
16345TIP3    H170450   2.325   5.361   3.428 -0.7874  0.3387  1.0145
16345TIP3    H270451   2.326   5.212   3.454 -0.1404 -0.1615 -1.7876
16346TIP3   OH270452   0.522   1.327   4.023  0.5476 -0.2672 -0.1461
16346TIP3    H170453   0.544   1.408   3.977  1.0700 -0.4658 -0.2526
16346TIP3    H270454   0.563   1.258   3.971 -3.9130 -1.1326 -2.8075
16347TIP3   OH270455   4.112   5.325  15.775 -0.6944  0.1440 -0.1895
16347TIP3    H170456   4.162   5.253  15.736 -0.8150  0.2321 -0.5077
16347TIP3    H270457   4.139   5.402  15.725 -0.2006  0.3985  0.4725
16348TIP3   OH270458   0.917   0.234  14.715 -0.1650  0.3784 -0.4133
16348TIP3    H170459   0.941   0.247  14.806  1.1184  0.3169 -0.7293
16348TIP3    H270460   0.926   0.139  14.701 -2.0204  0.1359 -0.1673
16349TIP3   OH270461   6.630   5.672  11.348  0.7863 -0.3139  0.0932
16349TIP3    H170462   6.573   5.680  11.271  0.8426  1.5474  0.2027
16349TIP3    H270463   6.712   5.714  11.321  1.4594 -1.3414  0.5472
16350TIP3   OH270464   3.821   0.690  14.096  0.0290  0.4540  0.9351
16350TIP3    H170465   3.767   0.649  14.028  0.5183 -0.2937  0.9992
16350TIP3    H270466   3.759   0.710  14.166  0.1562 -2.2773  1.8649
16351TIP3   OH270467   2.280   0.147   4.791 -0.6515  0.2161  0.2767
16351TIP3    H170468   2.287   0.081   4.723  1.3193  0.4853  0.1867
16351TIP3    H270469   2.268   0.097   4.872 -0.1487 -0.2156  0.0839
16352TIP3   OH270470   4.937   0.382  14.946 -0.6965  0.1806 -0.4528
16352TIP3    H170471   5.003   0.336  14.895 -0.3694  0.1398  0.0047
16352TIP3    H270472   4.952   0.474  14.926 -0.3414  0.1869 -0.1545
16353TIP3   OH270473   1.029   1.632   0.068 -0.3224  0.4061  0.9800
16353TIP3    H170474   0.970   1.558   0.059  1.2064 -0.5758 -1.3123
16353TIP3    H270475   1.078   1.614   0.149 -0.5981 -0.6131  0.9197
16354TIP3   OH270476   4.909   4.851   0.664  0.4180  0.4779  0.3938
16354TIP3    H170477   4.826   4.805   0.672 -0.3915  1.8542  0.1092
16354TIP3    H270478   4.902   4.900   0.582  1.4703  0.6875  0.4165
16355TIP3   OH270479   2.669   0.560   5.183  0.2126  0.4617 -0.1678
16355TIP3    H170480   2.613   0.592   5.254  0.8665  1.2704 -0.0085
16355TIP3    H270481   2.610   0.550   5.109 -0.5215 -0.6036  0.5492
16356TIP3   OH270482   4.624   4.941  16.455  0.2035  0.0790  0.2442
16356TIP3    H170483   4.656   4.852  16.465  0.4116  0.1278  0.0177
16356TIP3    H270484   4.588   4.945  16.367  0.6940  0.3708  0.0527
16357TIP3   OH270485   5.187   6.059  15.644 -0.1407  0.1062 -0.2408
16357TIP3    H170486   5.152   6.142  15.676 -1.9975 -1.0573  0.8504
16357TIP3    H270487   5.281   6.064  15.661 -0.1197  2.2382 -0.8058
16358TIP3   OH270488   3.739   2.028   2.439 -0.0984  0.2168 -0.4625
16358TIP3    H170489   3.770   2.000   2.353 -2.2352 -0.3789 -1.0828
16358TIP3    H270490   3.760   1.954   2.497 -0.0710 -0.0412 -0.8000
16359TIP3   OH270491   3.722   5.582  16.225 -0.0904  0.2964  0.8118
16359TIP3    H170492   3.801   5.635  16.223  0.5544 -0.6376  0.8644
16359TIP3    H270493   3.661   5.629  16.281  0.3238  1.1738  0.5210
16360TIP3   OH270494   5.083   5.266  12.021 -0.3157 -0.2642 -0.3805
16360TIP3    H170495   5.044   5.299  12.102  0.6677  0.1482 -0.0745
16360TIP3    H270496   5.156   5.325  12.004 -0.5486 -0.3261 -1.5950
16361TIP3   OH270497   5.355   4.380  14.308  0.0443 -0.1377 -0.8281
16361TIP3    H170498   5.340   4.451  14.371  1.0643 -1.0816  0.5307
16361TIP3    H270499   5.442   4.346  14.331 -0.6755 -2.2125 -1.0528
16362TIP3   OH270500   6.503   3.570  14.466 -0.1764 -0.1573  0.3886
16362TIP3    H170501   6.416   3.582  14.504 -1.0193  0.5681 -1.6898
16362TIP3    H270502   6.486   3.551  14.374  1.9067  1.7755 -0.4477
16363TIP3   OH270503   6.678   2.934  16.582  0.0360  0.1291 -0.4388
16363TIP3    H170504   6.761   2.922  16.627  0.7302 -2.9074 -2.4059
16363TIP3    H270505   6.699   2.986  16.505 -0.2850  1.0639  0.0907
16364TIP3   OH270506   1.673   5.036   3.246  0.0899 -0.0223  0.1386
16364TIP3    H170507   1.646   5.127   3.232  0.6341  0.3168  1.2612
16364TIP3    H270508   1.593   4.992   3.277  0.2915  0.5003  1.4054
16365TIP3   OH270509   5.829   6.372  13.331  0.3463  0.6862 -0.2084
16365TIP3    H170510   5.750   6.364  13.277  0.0946 -1.9717  0.4857
16365TIP3    H270511   5.895   6.320  13.286  1.0201  0.9637  0.4483
16366TIP3   OH270512   4.959   1.145   1.613  0.2145  0.3500 -0.5648
16366TIP3    H170513   5.020   1.073   1.626  0.6747  0.8671  0.2324
16366TIP3    H270514   4.924   1.163   1.700  1.4176  2.2062 -0.4098
16367TIP3   OH270515   1.279   2.716  11.641  0.1280 -0.4113 -0.7811
16367TIP3    H170516   1.194   2.756  11.622 -0.5973 -1.6250 -0.1277
16367TIP3    H270517   1.285   2.717  11.736  0.2447 -1.5663 -0.7739
16368TIP3   OH270518   0.361   3.593  14.732 -0.0928 -0.4721  0.4765
16368TIP3    H170519   0.406   3.511  14.752  0.7370 -0.1937 -0.2170
16368TIP3    H270520   0.269   3.568  14.721 -0.0525 -1.1088  1.4774
16369TIP3   OH270521   3.535   1.239   5.616 -0.2491 -0.0555  0.0089
16369TIP3    H170522   3.601   1.262   5.681  0.6348 -2.2528 -0.0667
16369TIP3    H270523   3.584   1.199   5.544 -1.5226 -0.5631 -0.6010
16370TIP3   OH270524   6.445   2.905  15.868  0.1008 -0.5123 -0.0518
16370TIP3    H170525   6.517   2.868  15.919  2.4430 -1.3013 -3.8075
16370TIP3    H270526   6.384   2.832  15.857  0.8128 -1.0255 -0.5684
16371TIP3   OH270527   3.313   4.222  14.381  0.8861  0.2321 -0.4783
16371TIP3    H170528   3.393   4.272  14.372  0.6412  0.5425 -0.9841
16371TIP3    H270529   3.245   4.288  14.398  0.8282 -0.0755  0.5452
16372TIP3   OH270530   3.399   3.873   0.777 -0.4975 -0.0761 -0.2684
16372TIP3    H170531   3.379   3.946   0.835 -0.1900 -1.3895  1.5100
16372TIP3    H270532   3.319   3.820   0.777 -0.6835  0.1847 -1.4692
16373TIP3   OH270533   2.998   2.553  16.212  0.3179  0.5889  0.2535
16373TIP3    H170534   3.032   2.639  16.185  0.2762  0.6657  0.4447
16373TIP3    H270535   2.906   2.570  16.233  0.0706  0.3113 -0.6036
16374TIP3   OH270536   3.672   3.468   6.168  0.4433  0.4077 -0.5763
16374TIP3    H170537   3.674   3.534   6.098  0.2319  0.8663 -0.1526
16374TIP3    H270538   3.580   3.457   6.189  0.3884 -0.9040 -1.4604
16375TIP3   OH270539   0.120   5.832  15.479 -0.8347 -0.2312  0.7149
16375TIP3    H170540   0.038   5.855  15.523  0.5184  1.6549  2.3807
16375TIP3    H270541   0.139   5.908  15.423 -0.6850 -1.0568 -0.3699
16376TIP3   OH270542   3.550   4.511   4.289 -0.0650 -0.1801 -0.1268
16376TIP3    H170543   3.543   4.416   4.302  1.1639 -0.4377 -1.2470
16376TIP3    H270544   3.485   4.548   4.349 -0.5213 -1.7247  0.3621
16377TIP3   OH270545   6.126   2.051   3.526 -0.1896 -0.1952  0.0858
16377TIP3    H170546   6.183   2.042   3.603 -0.0367 -1.7306 -0.1814
16377TIP3    H270547   6.041   2.019   3.557 -0.0802 -0.9929 -0.4194
16378TIP3   OH270548   4.073   4.963   2.552  0.4497  0.4228 -0.0339
16378TIP3    H170549   3.998   4.957   2.611  0.4932 -0.0222 -0.0234
16378TIP3    H270550   4.139   5.010   2.601  0.1698  0.8346 -0.0486
16379TIP3   OH270551   0.749   1.985   2.560  0.1254  0.1422 -0.0891
16379TIP3    H170552   0.811   1.915   2.544  0.0417  0.0861 -0.1686
16379TIP3    H270553   0.666   1.940   2.579  0.3696  0.1885  1.1568
16380TIP3   OH270554   2.472   6.046   4.325 -0.4612 -0.0698 -0.0783
16380TIP3    H170555   2.466   6.062   4.419 -0.6365 -1.0733  0.0871
16380TIP3    H270556   2.437   6.125   4.285  2.9006  1.8921  0.6232
16381TIP3   OH270557   4.440   5.248  13.686  0.0868  0.4971  0.0717
16381TIP3    H170558   4.357   5.219  13.724 -0.3218  1.2435 -0.2467
16381TIP3    H270559   4.500   5.176  13.705 -0.6319 -0.0640  0.2894
16382TIP3   OH270560   1.606   5.297   2.743  0.0415  1.1076 -0.1836
16382TIP3    H170561   1.589   5.331   2.831  2.0553  0.7411  0.3868
16382TIP3    H270562   1.520   5.276   2.708 -0.7985  1.3115  1.6865
16383TIP3   OH270563   3.762   4.401   5.945  0.0665  0.3065  0.2604
16383TIP3    H170564   3.805   4.395   6.031  1.1486 -1.9804 -0.3814
16383TIP3    H270565   3.830   4.436   5.888 -0.2386  0.5977  0.0793
16384TIP3   OH270566   6.264   0.994   2.239  0.7011 -0.0455  0.4143
16384TIP3    H170567   6.293   1.063   2.179  3.4033 -0.7839  0.8216
16384TIP3    H270568   6.174   0.975   2.212  0.2075  2.9881 -0.2911
16385TIP3   OH270569   1.684   2.359  13.001  0.1354  0.0963 -0.4722
16385TIP3    H170570   1.728   2.413  12.935  0.6524 -0.9615 -1.0051
16385TIP3    H270571   1.734   2.374  13.081  0.2686  0.4171 -0.6148
16386TIP3   OH270572   4.039   2.463   0.157  0.1866 -0.3042 -0.0041
16386TIP3    H170573   4.135   2.471   0.155  0.1768  0.9388  2.1500
16386TIP3    H270574   4.022   2.370   0.146  1.5803 -0.3767 -1.7441
16387TIP3   OH270575   5.875   2.350   2.184 -0.1905  0.0323 -0.3589
16387TIP3    H170576   5.958   2.335   2.138  0.5657  1.0498  0.6395
16387TIP3    H270577   5.869   2.277   2.246 -0.1248 -0.1428 -0.5578
16388TIP3   OH270578   6.069   4.743  14.548  0.3746  0.4617  0.0755
16388TIP3    H170579   6.083   4.837  14.536 -1.7299  0.5752 -1.9877
16388TIP3    H270580   6.130   4.702  14.486 -1.0208  0.6155 -1.4409
16389TIP3   OH270581   2.507   5.449   5.603 -0.2762  0.3652  0.5043
16389TIP3    H170582   2.496   5.435   5.697  2.1032  0.8456  0.9115
16389TIP3    H270583   2.516   5.362   5.566  0.7634  0.2322  1.0361
16390TIP3   OH270584   1.775   6.304   2.780 -0.2309 -0.1845 -0.3236
16390TIP3    H170585   1.777   6.325   2.687 -1.4721  2.1645  0.1483
16390TIP3    H270586   1.813   6.380   2.823 -1.8787 -0.2132  1.2459
16391TIP3   OH270587   3.153   1.116  16.979  0.3115  0.5894 -0.5548
16391TIP3    H170588   3.206   1.193  16.961  0.5145  1.1097  2.0397
16391TIP3    H270589   3.084   1.147  17.038  1.9359 -1.6595  2.6777
16392TIP3   OH270590   5.878   1.503   0.765  0.3788 -0.1914  0.2689
16392TIP3    H170591   5.842   1.540   0.685 -1.2769  0.2632  1.2002
16392TIP3    H270592   5.830   1.421   0.777 -1.3956  1.1121  2.2866
16393TIP3   OH270593   0.467   3.812  15.701  0.4681 -0.5921 -0.3562
16393TIP3    H170594   0.407   3.813  15.626 -0.9902 -2.7896  0.7380
16393TIP3    H270595   0.463   3.901  15.736  0.0208  0.0446 -1.9792
16394TIP3   OH270596   6.553   4.844   0.083  0.0021  0.5196 -0.4325
16394TIP3    H170597   6.468   4.888   0.088 -0.9016 -0.9281 -2.1797
16394TIP3    H270598   6.615   4.913   0.060 -0.8212  1.4622  0.1376
16395TIP3   OH270599   4.935   2.985   1.059  0.1512 -0.6602 -0.5979
16395TIP3    H170600   4.971   3.072   1.074 -0.2257 -0.0265 -3.1794
16395TIP3    H270601   4.859   2.979   1.117  0.8761  0.2655  0.4593
16396TIP3   OH270602   3.207   4.801  13.145  0.0931  0.1050 -0.0578
16396TIP3    H170603   3.114   4.822  13.157  0.0398 -0.3819  0.4377
16396TIP3    H270604   3.235   4.769  13.231  0.7283  0.2743 -0.1988
16397TIP3   OH270605   1.231   4.898  11.430 -0.1303 -0.9613 -0.1202
16397TIP3    H170606   1.164   4.955  11.468 -0.1647  0.4861 -2.2844
16397TIP3    H270607   1.295   4.886  11.500 -0.0229  1.8960  0.3270
16398TIP3   OH270608   4.590   4.287  12.389  0.0671  0.2561  0.6098
16398TIP3    H170609   4.534   4.319  12.460  0.8416  0.2701  1.2128
16398TIP3    H270610   4.646   4.221  12.430 -0.2737 -0.5714 -0.2361
16399TIP3   OH270611   6.509   3.181   4.803 -0.6275  0.0521  0.4576
16399TIP3    H170612   6.430   3.169   4.857  0.6950 -2.2061  1.9668
16399TIP3    H270613   6.580   3.187   4.867  0.8055 -1.2971 -0.9670
16400TIP3   OH270614   2.668   2.080  12.064  0.0513  0.1593 -0.2523
16400TIP3    H170615   2.682   2.094  11.971 -0.5740  1.4719 -0.1666
16400TIP3    H270616   2.574   2.060  12.071  0.0654  0.2199  0.1100
16401TIP3   OH270617   0.388   2.899   3.904  0.2675 -0.2296 -0.4436
16401TIP3    H170618   0.463   2.921   3.959  0.0254 -1.7401  0.5126
16401TIP3    H270619   0.315   2.948   3.942  0.1201 -1.1976  0.5632
16402TIP3   OH270620   1.591   4.824  16.704 -0.5557  0.1249  0.0833
16402TIP3    H170621   1.650   4.843  16.631 -0.0339 -0.0460  0.4621
16402TIP3    H270622   1.508   4.864  16.678 -0.3251  0.2214 -0.5229
16403TIP3   OH270623   6.603   5.394  11.921 -0.1605 -0.1961  0.2841
16403TIP3    H170624   6.546   5.463  11.888 -0.0350  1.0363  2.5307
16403TIP3    H270625   6.650   5.363  11.844  0.0494  2.5070 -0.7447
16404TIP3   OH270626   6.563   3.516  13.380  0.0442 -0.1650 -0.6682
16404TIP3    H170627   6.485   3.502  13.433 -0.0678  0.0908 -0.7671
16404TIP3    H270628   6.588   3.428  13.351  0.9591 -0.4863  1.0185
16405TIP3   OH270629   0.060   2.791  15.697 -0.0931  0.1928  0.1721
16405TIP3    H170630   0.036   2.701  15.675  1.2899 -0.5359  1.5226
16405TIP3    H270631   0.067   2.835  15.612  0.7945 -1.3931 -0.6132
16406TIP3   OH270632   2.160   0.740  15.950  0.0629 -0.1650 -0.7001
16406TIP3    H170633   2.228   0.806  15.965 -2.1450  2.1833 -0.8243
16406TIP3    H270634   2.199   0.659  15.983  2.7103  1.2165 -0.2491
16407TIP3   OH270635   2.649   4.937  13.108  0.1192  0.1465 -0.2367
16407TIP3    H170636   2.607   4.858  13.140  0.6371  0.1111  0.3809
16407TIP3    H270637   2.615   4.949  13.019  0.5928 -1.1832 -0.6178
16408TIP3   OH270638   2.348   0.454   3.249  0.0767  0.0682  0.4117
16408TIP3    H170639   2.254   0.470   3.255  0.0499 -0.4199  1.3393
16408TIP3    H270640   2.384   0.489   3.331  0.2688 -2.7929  1.5896
16409TIP3   OH270641   6.377   1.461   5.834  0.2868 -0.6021  0.0811
16409TIP3    H170642   6.472   1.476   5.839  0.7853 -3.0805 -1.0674
16409TIP3    H270643   6.348   1.520   5.764  0.6951  1.3001  1.4740
16410TIP3   OH270644   6.353   2.364  11.970 -0.2026  0.4570  0.5086
16410TIP3    H170645   6.318   2.347  11.883 -1.2362 -0.8705  1.1526
16410TIP3    H270646   6.291   2.425  12.010  1.4096  2.7213 -0.4225
16411TIP3   OH270647   3.533   3.949  15.178  0.0377  0.3591 -0.4635
16411TIP3    H170648   3.482   3.998  15.114 -0.7294  0.4790  0.2355
16411TIP3    H270649   3.490   3.966  15.262 -0.0457 -1.2228 -0.1643
16412TIP3   OH270650   6.144   3.517   6.429 -0.2635  0.1725  0.2531
16412TIP3    H170651   6.162   3.608   6.403  0.3257 -0.3299 -1.1203
16412TIP3    H270652   6.171   3.465   6.354 -2.2691 -1.0335  0.3434
16413TIP3   OH270653   0.578   5.167   1.028  0.0365  0.6070 -0.1175
16413TIP3    H170654   0.647   5.183   0.963 -0.1873 -0.9320 -0.7719
16413TIP3    H270655   0.497   5.189   0.983  0.0436  1.6838  0.3958
16414TIP3   OH270656   1.940   4.269  15.659  0.3911  0.5374  0.3368
16414TIP3    H170657   1.948   4.248  15.566  0.8463  0.1909  0.4525
16414TIP3    H270658   1.962   4.362  15.664 -1.8880  1.1516 -0.2096
16415TIP3   OH270659   1.403   1.192  15.096  0.6427  0.7019  0.4448
16415TIP3    H170660   1.352   1.146  15.162 -1.7781  0.4004 -1.5650
16415TIP3    H270661   1.452   1.124  15.051 -1.1890  0.2997 -1.0145
16416TIP3   OH270662   3.820   6.070  16.970 -0.0141  0.1080  0.3399
16416TIP3    H170663   3.838   6.017  16.892 -1.4006  0.2406 -0.0841
16416TIP3    H270664   3.856   6.018  17.042 -0.2601 -0.8349 -0.1966
16417TIP3   OH270665   4.308   4.913  11.944 -0.1402  0.1435 -0.0250
16417TIP3    H170666   4.390   4.952  11.914 -1.1487  1.2756 -1.3525
16417TIP3    H270667   4.246   4.985  11.945 -1.4420 -0.9553 -0.2680
16418TIP3   OH270668   0.680   0.830   5.749  0.1512 -0.5062 -0.4818
16418TIP3    H170669   0.659   0.738   5.729  0.6833 -0.6715 -0.2810
16418TIP3    H270670   0.634   0.880   5.682 -2.4218 -0.7512  1.0152
16419TIP3   OH270671   0.391   5.452  14.775  0.3043 -0.1482  0.0666
16419TIP3    H170672   0.418   5.371  14.731 -0.3068 -0.5546  0.4313
16419TIP3    H270673   0.473   5.494  14.800  0.6241 -0.7164 -0.0171
16420TIP3   OH270674   5.761   0.529  15.588 -0.6192  0.3105 -0.0643
16420TIP3    H170675   5.837   0.482  15.555 -0.6975 -0.7591  1.2309
16420TIP3    H270676   5.784   0.622  15.578  1.5877  0.0188  1.9185
16421TIP3   OH270677   6.194   4.680  15.506 -0.4673  0.0709 -0.5244
16421TIP3    H170678   6.117   4.671  15.562  1.0401 -0.4870  1.4941
16421TIP3    H270679   6.175   4.624  15.430 -1.4472 -1.1422  0.6042
16422TIP3   OH270680   6.181   4.588   3.199 -0.3594 -0.3719  0.0362
16422TIP3    H170681   6.091   4.563   3.176 -1.0281  0.6804  1.4417
16422TIP3    H270682   6.209   4.645   3.127 -1.1436  0.0160  0.0262
16423TIP3   OH270683   5.161   2.222   2.192 -0.2097  0.1869  0.1100
16423TIP3    H170684   5.147   2.243   2.099 -1.8603 -0.4661  0.1932
16423TIP3    H270685   5.119   2.137   2.204 -0.3349  0.4392  1.5463
16424TIP3   OH270686   0.104   5.605   5.501 -0.4912  0.6894  0.3779
16424TIP3    H170687   0.103   5.510   5.514 -0.5252  0.5457 -0.6809
16424TIP3    H270688   0.068   5.618   5.413  2.6861  1.4538 -0.8609
16425TIP3   OH270689   5.231   6.195  11.583  0.2866  0.4187  0.0413
16425TIP3    H170690   5.257   6.281  11.615 -0.2491  0.2439  0.9488
16425TIP3    H270691   5.139   6.185  11.609  1.0031 -1.3892  2.0495
16426TIP3   OH270692   4.676   3.506  14.859  0.0831  0.2397  0.2500
16426TIP3    H170693   4.736   3.432  14.846 -0.5973 -0.1806 -0.5752
16426TIP3    H270694   4.713   3.577  14.806 -0.9239 -0.4700 -1.4427
16427TIP3   OH270695   0.722   3.783   3.138 -0.3888  0.0326 -0.8124
16427TIP3    H170696   0.791   3.731   3.098 -0.5732 -0.9700  0.1560
16427TIP3    H270697   0.675   3.722   3.194 -2.0317  0.7003 -1.4007
16428TIP3   OH270698   5.761   4.890   2.044 -0.0458 -0.5387 -0.4459
16428TIP3    H170699   5.740   4.816   1.987 -0.0409 -0.5833 -0.3902
16428TIP3    H270700   5.802   4.850   2.121 -0.7424 -0.5476 -0.0706
16429TIP3   OH270701   3.304   1.033  10.458  0.5726 -0.4448  0.2533
16429TIP3    H170702   3.265   1.119  10.468 -0.5187 -0.2621 -4.1817
16429TIP3    H270703   3.230   0.974  10.446  1.3549 -0.8813 -3.1807
16430TIP3   OH270704   3.096   5.007  16.804  0.3933 -0.5687 -0.0116
16430TIP3    H170705   3.032   5.016  16.732 -0.3947 -1.1414  0.6160
16430TIP3    H270706   3.053   5.046  16.879  0.3914 -1.8398  0.6551
16431TIP3   OH270707   0.774   4.388  13.564 -0.2047  0.1155 -1.0631
16431TIP3    H170708   0.859   4.366  13.603 -0.8673 -1.6959 -0.5962
16431TIP3    H270709   0.722   4.419  13.638 -0.9806 -1.8877 -0.7461
16432TIP3   OH270710   2.451   2.442  16.849 -0.0397 -0.4806 -0.0414
16432TIP3    H170711   2.370   2.394  16.864 -0.1836 -0.3945 -0.5137
16432TIP3    H270712   2.457   2.503  16.923  0.6689 -1.9057  1.0985
16433TIP3   OH270713   5.705   5.612   1.675  0.0585  0.8936 -0.2123
16433TIP3    H170714   5.796   5.633   1.657  0.6477  1.0247  2.6897
16433TIP3    H270715   5.707   5.520   1.703 -0.4988  1.2513  1.0500
16434TIP3   OH270716   0.118   0.278  16.207 -0.0924  0.1984 -0.1764
16434TIP3    H170717   0.059   0.336  16.159  0.2776  0.8454  0.1509
16434TIP3    H270718   0.195   0.332  16.226  0.4658 -0.5412 -0.3124
16435TIP3   OH270719   3.753   5.329   5.647 -0.0055  0.0809 -0.2495
16435TIP3    H170720   3.779   5.382   5.722 -3.0938  0.7151  0.4327
16435TIP3    H270721   3.712   5.390   5.586 -0.7591 -0.9851 -0.8479
16436TIP3   OH270722   1.408   0.042  13.778  0.3752 -0.2404 -0.0362
16436TIP3    H170723   1.405  -0.020  13.851 -2.5797 -2.5635 -1.9695
16436TIP3    H270724   1.483   0.015  13.725  1.5323  0.4248  1.2436
16437TIP3   OH270725   4.195   6.169   1.475 -0.5882  0.1876  0.4043
16437TIP3    H170726   4.189   6.077   1.449 -0.4327  0.5517 -0.9353
16437TIP3    H270727   4.279   6.198   1.441 -0.8894  0.9845  0.3419
16438TIP3   OH270728   4.760   4.774   5.129  0.0228  0.2743  0.5331
16438TIP3    H170729   4.727   4.797   5.042  1.6589 -0.8145 -0.4163
16438TIP3    H270730   4.762   4.678   5.129  2.4665  0.3003  0.8032
16439TIP3   OH270731   5.407   4.539  13.342 -0.1839 -0.2899  0.0920
16439TIP3    H170732   5.408   4.600  13.268 -0.4223 -1.3510 -0.7968
16439TIP3    H270733   5.411   4.595  13.419  1.0873  0.7940 -0.7431
16440TIP3   OH270734   4.313   2.155  13.910 -0.5738 -0.0654 -0.3390
16440TIP3    H170735   4.244   2.215  13.882 -1.2567  0.3672  2.1997
16440TIP3    H270736   4.283   2.069  13.880 -1.8527  0.2172  0.1005
16441TIP3   OH270737   0.779   6.617  12.700  0.6103  0.2282 -0.4343
16441TIP3    H170738   0.825   6.679  12.756  0.2015  0.0926  0.0518
16441TIP3    H270739   0.837   6.541  12.695  0.4844  0.0983  0.0944
16442TIP3   OH270740   1.071   1.819  12.382 -0.6517  0.5387  0.0250
16442TIP3    H170741   1.140   1.865  12.431 -0.7241  1.2356 -0.5156
16442TIP3    H270742   1.099   1.825  12.290 -0.8476 -0.1884 -0.0828
16443TIP3   OH270743   5.989   0.317   0.190 -0.1551 -0.1612 -0.4006
16443TIP3    H170744   6.081   0.318   0.213 -0.3479  0.4312  0.3816
16443TIP3    H270745   5.982   0.379   0.117 -0.0383  0.3286 -0.0034
16444TIP3   OH270746   5.715   5.214   3.469 -0.2315  0.0649 -0.0998
16444TIP3    H170747   5.674   5.272   3.533 -0.1570 -0.6696  0.6231
16444TIP3    H270748   5.678   5.241   3.385 -2.0596 -0.4454  0.5148
16445TIP3   OH270749   4.323   3.567   5.455  0.4017 -0.0724  0.0895
16445TIP3    H170750   4.353   3.646   5.409 -0.2425  0.2311  0.1853
16445TIP3    H270751   4.265   3.524   5.392 -1.7711  1.1735  1.1738
16446TIP3   OH270752   4.110   5.705  10.636 -0.3193  0.4361  0.0081
16446TIP3    H170753   4.045   5.635  10.646  1.2406 -1.0675 -0.0540
16446TIP3    H270754   4.152   5.686  10.553  1.0642  0.6409  0.6493
16447TIP3   OH270755   6.582   0.608  11.803 -0.3011 -0.0036  0.4815
16447TIP3    H170756   6.581   0.668  11.878 -0.3202  0.8307 -0.1714
16447TIP3    H270757   6.623   0.659  11.732 -0.3237 -0.7633 -0.0844
16448TIP3   OH270758   1.655   4.444   0.072  0.2410  0.4002  0.2465
16448TIP3    H170759   1.690   4.382   0.008 -0.5253 -0.3798  0.5688
16448TIP3    H270760   1.565   4.459   0.044  0.7821  2.3399 -0.5359
16449TIP3   OH270761   4.110   2.623   4.191 -0.4629 -0.1340 -0.6002
16449TIP3    H170762   4.140   2.550   4.136 -1.7516  0.1857 -1.7576
16449TIP3    H270763   4.163   2.698   4.162 -0.0449 -0.3091 -0.3038
16450TIP3   OH270764   5.021   4.452   1.125  0.6219  0.2971  0.7405
16450TIP3    H170765   5.056   4.538   1.149  0.0609  1.1446 -1.3848
16450TIP3    H270766   5.086   4.416   1.064  0.1231 -0.1545  0.4690
16451TIP3   OH270767   3.422   2.544   4.873 -0.0989  0.2442 -0.5792
16451TIP3    H170768   3.486   2.544   4.802  1.4241 -1.3285  0.7727
16451TIP3    H270769   3.457   2.605   4.938  0.2720 -0.9581  0.3646
16452TIP3   OH270770   5.874   6.619  12.985  0.6352 -0.7099 -0.3815
16452TIP3    H170771   5.864   6.533  13.026  1.1738 -0.0039  1.2446
16452TIP3    H270772   5.958   6.651  13.015  1.5748 -0.6374 -2.9488
16453TIP3   OH270773   3.464   1.562  16.732 -0.6993  0.3303 -0.1942
16453TIP3    H170774   3.466   1.472  16.766 -2.9650  0.4719  0.3603
16453TIP3    H270775   3.413   1.556  16.652 -0.9851  1.1671 -0.0723
16454TIP3   OH270776   6.135   3.883  13.844 -0.1068 -0.6763 -0.2229
16454TIP3    H170777   6.208   3.944  13.859 -1.2121  0.0305  2.5732
16454TIP3    H270778   6.068   3.936  13.801  0.1781 -0.7882 -0.8193
16455TIP3   OH270779   3.322   0.478   2.847  0.3006 -0.9594  0.2493
16455TIP3    H170780   3.268   0.486   2.769 -0.9093 -2.0033  0.9481
16455TIP3    H270781   3.264   0.503   2.919  1.5198  0.3930  0.7832
16456TIP3   OH270782   3.384   1.057  11.740  0.2491 -0.4565 -0.6318
16456TIP3    H170783   3.386   0.963  11.724  0.4007 -0.7719  1.1232
16456TIP3    H270784   3.291   1.078  11.748  0.2813 -0.7989  0.7850
16457TIP3   OH270785   3.311   3.224   4.857 -0.5305 -0.6639  0.5187
16457TIP3    H170786   3.365   3.277   4.799 -1.2102 -0.9288 -0.3872
16457TIP3    H270787   3.304   3.274   4.937  0.2870 -0.2043  0.3073
16458TIP3   OH270788   3.733   4.272  12.816 -0.3694 -0.7863 -0.2238
16458TIP3    H170789   3.667   4.266  12.746 -1.3577 -0.4644  0.6661
16458TIP3    H270790   3.699   4.339  12.875  1.4992  0.4367 -0.5135
16459TIP3   OH270791   3.316   0.488  11.610  0.4271 -0.2467 -0.2632
16459TIP3    H170792   3.383   0.462  11.546 -0.7665 -1.6292 -0.9611
16459TIP3    H270793   3.275   0.406  11.636  1.1311  0.2466  2.5870
16460TIP3   OH270794   2.923   5.549   4.035  0.8585  0.1599 -0.1262
16460TIP3    H170795   2.956   5.546   4.125  1.7546 -0.4777 -0.4653
16460TIP3    H270796   2.888   5.637   4.025  0.4979  0.1466  0.9339
16461TIP3   OH270797   0.170   4.880   0.890  0.2223 -0.1547 -0.1489
16461TIP3    H170798   0.248   4.890   0.945 -1.3189 -0.1747  2.0829
16461TIP3    H270799   0.165   4.962   0.841 -0.8755  1.8240  3.0934
16462TIP3   OH270800   4.677   6.261  16.771 -0.4110 -0.2134  0.0021
16462TIP3    H170801   4.640   6.324  16.709 -1.0039  0.3975  0.9570
16462TIP3    H270802   4.771   6.265  16.756 -0.4142  1.1309  0.2655
16463TIP3   OH270803   6.609   4.111   5.142 -0.1118  0.3159  0.2902
16463TIP3    H170804   6.594   4.180   5.077 -1.7062  0.5120  0.8433
16463TIP3    H270805   6.599   4.156   5.227  0.1858 -0.3114  0.6620
16464TIP3   OH270806   0.617   6.040   0.475 -0.5260 -0.2546  0.5154
16464TIP3    H170807   0.613   6.124   0.429  0.8954  0.5137  1.7656
16464TIP3    H270808   0.555   5.984   0.427 -0.5701  1.1164 -1.0852
16465TIP3   OH270809   6.752   6.716   1.804 -0.1687 -0.2845  0.1918
16465TIP3    H170810   6.705   6.644   1.763 -0.4458 -0.5902  1.0472
16465TIP3    H270811   6.784   6.768   1.730 -0.4993 -0.9338 -0.4176
16466TIP3   OH270812   2.303   0.769  14.451 -0.4588 -0.2784 -0.4245
16466TIP3    H170813   2.337   0.845  14.498 -0.0603 -1.2965  0.9606
16466TIP3    H270814   2.208   0.782  14.450 -0.3864  0.2851 -0.2869
16467TIP3   OH270815   4.920   1.263  16.597  0.3134 -0.5472  0.1016
16467TIP3    H170816   5.006   1.240  16.560 -0.0872  1.0170 -1.9156
16467TIP3    H270817   4.936   1.343  16.647  0.3575 -1.2694  1.2760
16468TIP3   OH270818   2.181   0.431   5.723 -0.4993  0.6953 -0.2639
16468TIP3    H170819   2.183   0.465   5.812  0.0421 -1.7818  0.7143
16468TIP3    H270820   2.088   0.422   5.702 -0.6652 -1.9804  1.3999
16469TIP3   OH270821   3.820   2.054  15.144 -0.1179 -0.0567  0.0935
16469TIP3    H170822   3.870   1.997  15.203 -0.3815 -0.5547 -0.1631
16469TIP3    H270823   3.738   2.072  15.191  1.0169  2.2419  1.3205
16470TIP3   OH270824   1.541   3.289  14.766  0.4733 -0.3687 -0.7797
16470TIP3    H170825   1.466   3.248  14.809  1.0926 -1.9404 -1.1766
16470TIP3    H270826   1.578   3.347  14.832  1.0996 -2.3696  0.6642
16471TIP3   OH270827   1.681   5.181  16.395  0.1060 -0.3290 -0.3427
16471TIP3    H170828   1.637   5.130  16.327  0.2766 -0.8532 -0.0629
16471TIP3    H270829   1.630   5.262  16.401  0.5240  0.0446 -1.6157
16472TIP3   OH270830   1.680   2.244   6.299 -0.6599 -0.4399  0.2183
16472TIP3    H170831   1.723   2.165   6.266  1.6133 -0.0879  2.1364
16472TIP3    H270832   1.743   2.314   6.281 -1.1913  0.3816  1.5093
16473TIP3   OH270833   5.720   0.954  16.159 -0.1067  0.4334 -0.4939
16473TIP3    H170834   5.733   0.975  16.067 -0.1835  1.7650 -0.2097
16473TIP3    H270835   5.736   0.860  16.165  0.8093  0.5029 -1.6930
16474TIP3   OH270836   6.124   1.824   1.679  0.2714  0.1720  0.2595
16474TIP3    H170837   6.130   1.828   1.583  0.2809 -0.4463  0.2298
16474TIP3    H270838   6.043   1.869   1.700  0.5219  0.7488 -0.0037
16475TIP3   OH270839   3.796   6.746   3.533  0.3498 -0.1509 -0.4601
16475TIP3    H170840   3.737   6.782   3.599 -0.7512 -0.2706 -1.3603
16475TIP3    H270841   3.801   6.652   3.552  2.6258  0.2927  1.4254
16476TIP3   OH270842   3.038   3.215   5.664  0.5141 -0.0872 -0.3552
16476TIP3    H170843   2.965   3.171   5.709  1.2025 -0.7075  0.1575
16476TIP3    H270844   3.062   3.154   5.594  0.2807  0.3031 -0.7785
16477TIP3   OH270845   0.720   6.608   5.634 -0.2458 -0.3720 -0.3272
16477TIP3    H170846   0.811   6.635   5.651 -0.2164 -1.5311  1.5156
16477TIP3    H270847   0.716   6.594   5.540  1.6131 -0.7540 -0.3590
16478TIP3   OH270848   3.154   3.617   3.601  0.6592  0.3386  0.2333
16478TIP3    H170849   3.102   3.603   3.523  2.7791  2.3244 -1.6417
16478TIP3    H270850   3.114   3.694   3.643  0.7464  0.5158 -0.0076
16479TIP3   OH270851   4.680   4.634   5.728  0.5510 -0.4920  0.3748
16479TIP3    H170852   4.645   4.715   5.764  0.8000  0.5122 -1.5595
16479TIP3    H270853   4.771   4.632   5.757  1.4587  1.5563 -2.1593
16480TIP3   OH270854   5.859   4.637   5.928 -0.2370 -0.2621  0.3288
16480TIP3    H170855   5.872   4.728   5.954  2.4687  0.1154 -1.9707
16480TIP3    H270856   5.778   4.610   5.970 -1.2762  3.3323  0.7422
16481TIP3   OH270857   1.181   6.690   0.639 -0.2228  0.7894 -0.9401
16481TIP3    H170858   1.126   6.713   0.714 -0.9256 -1.9030 -0.5853
16481TIP3    H270859   1.209   6.774   0.603 -1.7057  2.1469  0.9925
16482TIP3   OH270860   4.457   5.996  13.547  0.6755 -0.2654 -0.0315
16482TIP3    H170861   4.495   6.079  13.519  0.6124  0.3391  1.6249
16482TIP3    H270862   4.505   5.930  13.497 -0.2548  0.8238 -2.4296
16483TIP3   OH270863   6.685   6.218   2.307 -0.2814 -0.3106  0.7688
16483TIP3    H170864   6.661   6.187   2.220  3.3189  0.9145 -0.7317
16483TIP3    H270865   6.735   6.145   2.345 -2.1701 -0.9980  2.0334
16484TIP3   OH270866   1.792   2.797  12.009 -0.4271  0.2294 -0.0316
16484TIP3    H170867   1.703   2.829  12.019 -0.2985 -0.1767  2.6739
16484TIP3    H270868   1.847   2.861  12.054  1.0672  2.1421 -4.2667
16485TIP3   OH270869   0.838   1.460   4.688  0.3495  0.2177  0.0321
16485TIP3    H170870   0.880   1.383   4.726  1.6785  1.7257  1.6682
16485TIP3    H270871   0.760   1.474   4.740 -0.7315 -0.9010 -1.2364
16486TIP3   OH270872   2.785   1.657   0.288 -0.2189  0.3089 -0.5543
16486TIP3    H170873   2.718   1.605   0.243  2.7554 -3.1057 -1.2311
16486TIP3    H270874   2.838   1.694   0.217  1.0718 -0.3881  0.0392
16487TIP3   OH270875   6.099   4.712   0.740 -0.1368 -0.1375 -0.0730
16487TIP3    H170876   6.132   4.630   0.778  2.6338  1.0319  0.1007
16487TIP3    H270877   6.112   4.777   0.808 -1.8441  0.5955 -0.4160
16488TIP3   OH270878   5.577   0.130   3.034  0.5606  0.1934  0.1648
16488TIP3    H170879   5.550   0.157   3.122  0.9824 -0.1364  0.3948
16488TIP3    H270880   5.505   0.158   2.978  0.1767  0.1823  0.6469
16489TIP3   OH270881   4.244   3.665  14.355  0.3937 -0.4848  0.2158
16489TIP3    H170882   4.199   3.739  14.398  0.9562 -0.2500  0.4034
16489TIP3    H270883   4.287   3.704  14.279 -2.7213 -1.3272 -2.1035
16490TIP3   OH270884   4.137   0.069   3.150  0.8206  0.2375  0.0531
16490TIP3    H170885   4.189   0.077   3.231  0.1824 -0.1781  0.5093
16490TIP3    H270886   4.170  -0.010   3.107  1.2339  0.5183 -0.1440
16491TIP3   OH270887   5.278   5.427  11.874 -0.6360  0.0175  0.2389
16491TIP3    H170888   5.222   5.481  11.930 -2.2798 -0.4977 -0.8446
16491TIP3    H270889   5.239   5.435  11.787  0.1329 -1.4960 -0.2668
16492TIP3   OH270890   1.863   4.053   2.353  0.3422 -0.2442  0.4924
16492TIP3    H170891   1.936   4.069   2.412  0.1567  0.1441  0.6220
16492TIP3    H270892   1.885   3.971   2.308 -0.7515 -2.0025  3.0278
16493TIP3   OH270893   0.247   4.553  11.978 -0.0621 -0.6033 -0.0611
16493TIP3    H170894   0.159   4.589  11.991  0.4808  0.1433  1.7150
16493TIP3    H270895   0.255   4.485  12.045  1.0136 -0.0898  0.3356
16494TIP3   OH270896   4.886   2.198   2.452  0.3437  0.4233  0.5168
16494TIP3    H170897   4.935   2.229   2.376  0.4212  0.8715  0.7475
16494TIP3    H270898   4.953   2.181   2.518  0.3638 -0.9425  0.1501
16495TIP3   OH270899   3.274   3.473   2.750 -0.5223  0.0722  0.0265
16495TIP3    H170900   3.276   3.515   2.664 -0.4264 -2.1257 -1.0980
16495TIP3    H270901   3.357   3.427   2.757 -1.3356 -1.3811  0.4348
16496TIP3   OH270902   2.198   0.942  13.790  0.0772 -0.5004 -0.5066
16496TIP3    H170903   2.183   0.848  13.804  0.1793 -0.5982 -1.0356
16496TIP3    H270904   2.194   0.980  13.877  0.2227 -1.0259 -0.2684
16497TIP3   OH270905   1.794   6.578   1.439  0.0265  0.4338 -0.4170
16497TIP3    H170906   1.736   6.622   1.376 -0.5073  0.3844  0.0384
16497TIP3    H270907   1.777   6.485   1.426  0.7378  0.3794 -0.9800
16498TIP3   OH270908   4.975   0.925   5.226 -0.5593  0.2714 -0.2067
16498TIP3    H170909   4.958   0.833   5.205 -0.7338  0.2081  0.2101
16498TIP3    H270910   4.889   0.964   5.241 -0.4107  0.1315  1.1330
16499TIP3   OH270911   6.487   2.934   1.724  0.2125 -0.8146  0.2640
16499TIP3    H170912   6.566   2.973   1.760  0.2575 -2.1444  1.6501
16499TIP3    H270913   6.417   2.959   1.784 -0.2493 -0.4718 -0.4104
16500TIP3   OH270914   5.926   4.713  16.550  0.1604  0.0385  0.5342
16500TIP3    H170915   5.864   4.784  16.570 -1.0856 -0.7353 -0.4776
16500TIP3    H270916   5.956   4.732  16.462  0.0733 -0.4954  0.3835
16501TIP3   OH270917   4.436   2.558   5.098 -0.2384  0.0274  0.5008
16501TIP3    H170918   4.462   2.547   5.189  0.2107 -0.2996  0.3418
16501TIP3    H270919   4.518   2.548   5.049 -0.6342 -0.8131 -0.0042
16502TIP3   OH270920   2.428   4.501   4.476  0.7483  0.2654  0.2230
16502TIP3    H170921   2.434   4.588   4.438 -0.4976  0.0140 -0.5713
16502TIP3    H270922   2.358   4.458   4.427  0.5235 -0.7671  1.4236
16503TIP3   OH270923   3.791   4.242  14.259  0.0494  0.4279 -0.1115
16503TIP3    H170924   3.783   4.156  14.218  1.3532  1.0212 -1.6739
16503TIP3    H270925   3.799   4.303  14.185 -0.5478  1.8471  0.9868
16504TIP3   OH270926   2.763   0.254  10.800  0.1647  0.4812  0.4615
16504TIP3    H170927   2.705   0.298  10.738 -1.3787 -0.9908  0.8350
16504TIP3    H270928   2.830   0.213  10.746  0.4766  1.6206 -0.0221
16505TIP3   OH270929   5.761   3.947   0.963 -0.4850  0.3866  0.2986
16505TIP3    H170930   5.768   3.938   1.058  1.8120  0.4632  0.1484
16505TIP3    H270931   5.744   4.040   0.949 -0.5619  0.4192  0.6068
16506TIP3   OH270932   6.522   5.950  11.183 -0.1294 -0.3506 -0.1905
16506TIP3    H170933   6.506   5.987  11.096 -1.3064 -1.2531 -0.3803
16506TIP3    H270934   6.506   5.856  11.172  0.4424 -0.5706  0.8282
16507TIP3   OH270935   0.012   5.981  11.265  0.3251  0.2571 -0.2720
16507TIP3    H170936   0.024   6.075  11.248  0.7411  0.0733 -1.0167
16507TIP3    H270937  -0.076   5.974  11.301  0.9746  1.1570  1.5654
16508TIP3   OH270938   2.556   0.711   0.051  0.3930 -0.3303  0.7611
16508TIP3    H170939   2.650   0.706   0.068  0.7742 -0.0198 -1.1414
16508TIP3    H270940   2.547   0.683  -0.040 -1.2774  0.2545  0.7370
16509TIP3   OH270941   5.183   1.692   0.207 -0.2927  0.2035  0.0784
16509TIP3    H170942   5.278   1.686   0.214 -0.3240  0.0525  0.4132
16509TIP3    H270943   5.162   1.649   0.124  0.0123  1.0994 -0.4713
16510TIP3   OH270944   4.925   5.591  12.270 -0.5678  0.2000  0.7215
16510TIP3    H170945   4.956   5.593  12.360  1.3527  1.2303  0.0748
16510TIP3    H270946   4.938   5.500  12.242 -1.6174 -0.2304  1.6267
16511TIP3   OH270947   1.118   1.969   5.692  0.4363  0.4632 -0.1153
16511TIP3    H170948   1.040   1.998   5.738  1.4325  0.0828  1.8940
16511TIP3    H270949   1.181   2.041   5.703  1.1031 -0.1597  0.2215
16512TIP3   OH270950   1.251   3.161  14.648 -0.6437  0.2137 -0.5592
16512TIP3    H170951   1.315   3.096  14.619 -1.1738 -0.1462 -0.9262
16512TIP3    H270952   1.180   3.111  14.688 -0.1573  0.6848  0.9289
16513TIP3   OH270953   5.487   6.752  13.482 -0.6257  0.3795 -0.1425
16513TIP3    H170954   5.463   6.823  13.424 -1.9192  0.3414  0.3390
16513TIP3    H270955   5.471   6.786  13.570  0.6247  0.1848  0.1767
16514TIP3   OH270956   2.971   2.177  16.872 -0.2306  0.6923 -0.3081
16514TIP3    H170957   3.024   2.255  16.888  0.4264  0.4551 -1.2830
16514TIP3    H270958   2.887   2.212  16.843  0.7119  1.0492 -2.7353
16515TIP3   OH270959   4.808   0.036   4.874 -0.5205 -0.5031 -0.4592
16515TIP3    H170960   4.898   0.043   4.842 -0.0596 -2.4255  0.3388
16515TIP3    H270961   4.759   0.098   4.821  1.2393  0.4297 -1.0425
16516TIP3   OH270962   1.477   0.672  16.975  0.4793 -0.0465  0.2168
16516TIP3    H170963   1.545   0.612  16.945  1.0125 -0.2018  1.6851
16516TIP3    H270964   1.525   0.752  16.998 -0.1147  0.6276 -0.8438
16517TIP3   OH270965   2.954   0.157   5.387 -0.3707 -0.0846 -0.4502
16517TIP3    H170966   3.042   0.126   5.366  0.0339  1.3921 -0.9815
16517TIP3    H270967   2.923   0.201   5.308 -0.1666  2.5338  0.8694
16518TIP3   OH270968   3.739   1.338  16.234 -0.5891 -0.3075 -0.1353
16518TIP3    H170969   3.714   1.397  16.305 -2.6345  0.4767 -1.4592
16518TIP3    H270970   3.829   1.363  16.213 -1.1901  1.8919 -0.2008
16519TIP3   OH270971   1.984   2.446  15.569 -0.2514 -0.4038 -0.2634
16519TIP3    H170972   1.983   2.410  15.481  0.8541 -2.9136  0.6917
16519TIP3    H270973   1.897   2.429  15.604 -0.4154 -0.1812 -0.5645
16520TIP3   OH270974   5.199   4.519   0.853 -0.4220 -0.7293 -0.2119
16520TIP3    H170975   5.146   4.541   0.775  0.9208 -0.6083 -1.0984
16520TIP3    H270976   5.244   4.438   0.829  1.6710  0.4698 -0.3950
16521TIP3   OH270977   3.499   5.806   6.291  0.2485  0.1259  0.0363
16521TIP3    H170978   3.566   5.754   6.247 -0.1846 -0.1125 -0.3492
16521TIP3    H270979   3.530   5.896   6.282 -0.0812  0.1235 -1.2040
16522TIP3   OH270980   6.351   5.994   5.454  0.1590  0.3532  0.1679
16522TIP3    H170981   6.293   6.060   5.416 -0.4838 -0.9984 -1.2011
16522TIP3    H270982   6.340   6.005   5.549 -0.6065  1.6084 -0.0545
16523TIP3   OH270983   3.192   6.048   1.540 -0.1355 -0.1300  0.4881
16523TIP3    H170984   3.109   6.036   1.587 -0.9156  1.1295 -0.5421
16523TIP3    H270985   3.228   6.130   1.574  0.3885 -0.3542  0.4829
16524TIP3   OH270986   2.412   0.184   1.644 -0.6459 -0.0619 -0.2865
16524TIP3    H170987   2.319   0.193   1.622 -0.9733 -1.2326  0.5578
16524TIP3    H270988   2.456   0.172   1.560 -1.4832 -1.3543 -0.5457
16525TIP3   OH270989   1.544   2.475  11.898  0.1041  0.3249  0.4244
16525TIP3    H170990   1.562   2.386  11.868 -0.2681  0.3157  0.2265
16525TIP3    H270991   1.587   2.480  11.984  2.4674  0.8470 -0.7536
16526TIP3   OH270992   2.912   0.250  12.984  0.0893  0.6577  0.5631
16526TIP3    H170993   2.944   0.284  12.900 -0.2284 -2.0446 -0.7387
16526TIP3    H270994   2.851   0.316  13.015 -0.8645  1.0744 -2.0548
16527TIP3   OH270995   2.446   2.646   1.315  0.3323  0.5012 -0.0663
16527TIP3    H170996   2.461   2.740   1.310  0.3350  0.3855 -2.6978
16527TIP3    H270997   2.519   2.607   1.267 -0.9257 -0.7085 -1.0520
16528TIP3   OH270998   1.878   2.058  16.467  0.6646  0.3480  0.5387
16528TIP3    H170999   1.972   2.078  16.474  0.6331  1.0398 -0.7056
16528TIP3    H271000   1.835   2.135  16.504  0.5928 -0.1871  1.5675
16529TIP3   OH271001   2.671   3.395  10.438 -0.0269  0.1000 -0.0513
16529TIP3    H171002   2.618   3.394  10.518 -0.3582 -0.3416 -0.2723
16529TIP3    H271003   2.721   3.313  10.441  0.5019  0.4218  0.0570
16530TIP3   OH271004   3.747   5.108   1.395  0.2425 -0.5670 -0.7381
16530TIP3    H171005   3.739   5.204   1.396 -0.8830 -0.6596  0.4450
16530TIP3    H271006   3.775   5.087   1.306  1.0823  0.9078 -0.8384
16531TIP3   OH271007   3.109   5.415  12.094 -0.1819 -0.0611 -0.3049
16531TIP3    H171008   3.152   5.429  12.178 -0.4536 -0.3408 -0.1177
16531TIP3    H271009   3.036   5.477  12.094  0.3920  0.6145 -0.7429
16532TIP3   OH271010   2.769   0.122   1.485  0.1853 -0.0026 -0.5007
16532TIP3    H171011   2.823   0.052   1.523 -1.5187 -0.8992  0.3105
16532TIP3    H271012   2.698   0.076   1.441  0.0459  1.1745 -1.5320
16533TIP3   OH271013   5.140   2.893   0.043 -0.2982 -0.4478  0.3001
16533TIP3    H171014   5.098   2.979   0.048  1.3760  0.3052  2.1695
16533TIP3    H271015   5.180   2.891  -0.044 -1.8427 -0.0712 -0.4314
16534TIP3   OH271016   6.767   4.435   1.880  0.3369  0.6250  0.0082
16534TIP3    H171017   6.711   4.454   1.956 -1.0322  1.5029 -1.1992
16534TIP3    H271018   6.757   4.341   1.866  0.5997  0.4538  0.9021
16535TIP3   OH271019   0.066   5.186  16.335  0.4078 -0.2355  0.4756
16535TIP3    H171020   0.134   5.254  16.338  1.5954 -1.4011  0.4746
16535TIP3    H271021   0.087   5.128  16.408 -0.3827 -0.8079  0.2585
16536TIP3   OH271022   0.574   3.014  11.743 -0.3477 -0.0083  0.2825
16536TIP3    H171023   0.516   2.991  11.671  0.0821  1.7125 -0.6426
16536TIP3    H271024   0.532   2.977  11.821 -1.1547 -1.3146 -0.7509
16537TIP3   OH271025   3.327   4.071  12.230 -0.2780  0.0847  0.2689
16537TIP3    H171026   3.415   4.052  12.265 -1.0055 -1.6532  1.2326
16537TIP3    H271027   3.323   4.167  12.228  1.4692  0.2006  0.6628
16538TIP3   OH271028   3.199   1.218   5.459  0.1671  0.4619 -0.1754
16538TIP3    H171029   3.236   1.292   5.508  1.6905 -0.3317 -0.1007
16538TIP3    H271030   3.220   1.142   5.512 -0.6955 -0.1119 -0.6550
16539TIP3   OH271031   2.307   4.201  11.413  0.6954 -0.3126 -1.0239
16539TIP3    H171032   2.247   4.275  11.420  1.0763 -0.1806  1.1001
16539TIP3    H271033   2.392   4.241  11.395  0.8970 -0.2203  0.1025
16540TIP3   OH271034   3.849   4.197   2.770 -0.1425 -0.2239 -0.0034
16540TIP3    H171035   3.859   4.251   2.848  2.0009 -1.2041  0.4318
16540TIP3    H271036   3.774   4.235   2.725 -1.7931 -0.0086  2.8063
16541TIP3   OH271037   5.094   1.959   6.207  0.4142  0.2119  0.4082
16541TIP3    H171038   5.001   1.940   6.219  0.3272 -0.6974 -1.5314
16541TIP3    H271039   5.117   2.015   6.281 -1.6677  0.4256  0.9171
16542TIP3   OH271040   0.490   2.736  10.202  0.5161  0.3056 -0.4194
16542TIP3    H171041   0.468   2.787  10.280  0.3994  0.1321 -0.3379
16542TIP3    H271042   0.568   2.688  10.226  1.3369  1.3727 -0.9050
16543TIP3   OH271043   2.733   4.012  13.666  0.2312 -0.3920 -0.3338
16543TIP3    H171044   2.710   4.015  13.573  0.7758 -0.2255 -0.4648
16543TIP3    H271045   2.814   3.961  13.669  1.5264  1.6104 -0.2198
16544TIP3   OH271046   0.149   1.336  13.735 -0.1437  0.0283  0.2576
16544TIP3    H171047   0.172   1.260  13.682 -1.7371  0.6335 -1.3438
16544TIP3    H271048   0.082   1.381  13.684 -0.5352  1.5106  2.0521
16545TIP3   OH271049   5.074   6.677   0.449 -0.4828  0.5401 -0.1270
16545TIP3    H171050   4.989   6.683   0.492 -0.5061  1.3504 -0.2907
16545TIP3    H271051   5.110   6.765   0.453  1.1188 -0.1728  1.4853
16546TIP3   OH271052   5.292   6.372   5.155 -0.3304 -0.0509  0.3908
16546TIP3    H171053   5.292   6.449   5.211  1.7572 -0.9847  1.7295
16546TIP3    H271054   5.252   6.303   5.208 -0.5776 -0.3388 -0.1627
16547TIP3   OH271055   6.067   1.169   5.680  0.6326  0.2000 -0.2913
16547TIP3    H171056   6.072   1.239   5.615  1.3576 -2.1040 -2.8153
16547TIP3    H271057   5.974   1.165   5.705  0.6127  2.1200  0.0152
16548TIP3   OH271058   5.081   0.178   2.263  0.4763  0.0684  0.7878
16548TIP3    H171059   5.010   0.232   2.230  0.1529 -1.2579 -0.7179
16548TIP3    H271060   5.134   0.238   2.316 -0.3210  1.6636 -0.1930
16549TIP3   OH271061   4.502   0.918  10.874 -0.0970 -0.1576  0.0620
16549TIP3    H171062   4.446   0.933  10.951 -0.6085 -0.8076 -0.1727
16549TIP3    H271063   4.591   0.923  10.908 -0.3099  0.2365  0.5730
16550TIP3   OH271064   6.574   3.737   6.230 -0.5439  0.1413  0.0340
16550TIP3    H171065   6.593   3.782   6.312 -0.9041 -0.8607  0.6678
16550TIP3    H271066   6.488   3.769   6.204 -1.4723 -1.2888  1.2610
16551TIP3   OH271067   6.669   0.566   2.677  0.2767 -0.2588 -0.0996
16551TIP3    H171068   6.604   0.539   2.611 -2.1623 -0.3988  2.2592
16551TIP3    H271069   6.672   0.661   2.670 -2.4438  0.0171  1.7170
16552TIP3   OH271070   5.527   2.433  14.605  0.1172 -0.8983 -0.1891
16552TIP3    H171071   5.433   2.449  14.615  0.4553 -0.2352  2.5341
16552TIP3    H271072   5.546   2.364  14.668  1.6535 -0.1408  0.2158
16553TIP3   OH271073   3.964   2.471   3.348  0.2971  0.3513  0.3569
16553TIP3    H171074   4.027   2.480   3.420  0.6477  0.2675  0.0607
16553TIP3    H271075   3.992   2.393   3.301 -2.3030 -1.9547  2.4813
16554TIP3   OH271076   0.521   4.295  13.354 -0.0359 -0.8223 -0.1898
16554TIP3    H171077   0.505   4.269  13.263  1.3559  0.0666 -0.6982
16554TIP3    H271078   0.594   4.238  13.382  0.9319  0.3483 -0.3075
16555TIP3   OH271079   0.288   2.440  13.799 -0.0762  0.1101 -0.0381
16555TIP3    H171080   0.354   2.471  13.861  1.2027 -0.0202 -1.3091
16555TIP3    H271081   0.254   2.360  13.839 -0.1547  0.6913  1.0834
16556TIP3   OH271082   0.195   2.222   4.777  0.0373 -0.6285 -0.4642
16556TIP3    H171083   0.175   2.138   4.736  0.3669 -0.0382 -1.8592
16556TIP3    H271084   0.175   2.287   4.710 -0.7166  0.4499  0.7773
16557TIP3   OH271085   3.072   4.985  12.900 -0.0400  0.0121 -0.2583
16557TIP3    H171086   3.168   4.988  12.897 -0.0078 -1.0478 -0.2553
16557TIP3    H271087   3.048   5.056  12.959  0.7173  0.6329 -0.6773
16558TIP3   OH271088   4.946   4.816  13.196  0.3847 -0.7193  0.0438
16558TIP3    H171089   4.935   4.888  13.133  0.0138 -0.7957  0.0233
16558TIP3    H271090   5.032   4.780  13.175  0.6340 -0.1966  0.1395
16559TIP3   OH271091   3.567   4.582  14.902  1.1739  0.2781  0.0401
16559TIP3    H171092   3.553   4.517  14.833  1.2521 -1.3588  1.5210
16559TIP3    H271093   3.641   4.548  14.952  0.8770  1.2475  1.1579
16560TIP3   OH271094   3.079   6.290  13.374 -0.4909 -0.0891 -0.1448
16560TIP3    H171095   3.134   6.355  13.330  1.2476 -0.5503  1.2751
16560TIP3    H271096   2.997   6.289  13.324  0.5472  1.0991 -1.9023
16561TIP3   OH271097   1.589   3.509  17.091 -0.2302  0.1664 -0.1912
16561TIP3    H171098   1.660   3.559  17.050  1.1329 -2.2027 -0.8252
16561TIP3    H271099   1.593   3.533  17.184  0.9771  0.5690 -0.3387
16562TIP3   OH271100   2.340   3.950  15.598  0.0368  0.4955  0.7630
16562TIP3    H171101   2.336   3.855  15.606 -2.7378  0.5007 -0.0382
16562TIP3    H271102   2.400   3.966  15.525  0.4686 -0.6404  0.8674
16563TIP3   OH271103   5.770   3.083  14.869  0.7711 -0.0949 -0.2824
16563TIP3    H171104   5.848   3.088  14.813  1.1294  1.6912  0.3611
16563TIP3    H271105   5.701   3.124  14.817  0.3912 -1.1111 -0.5971
16564TIP3   OH271106   1.079   3.386   4.466 -0.1859  0.1192 -0.7676
16564TIP3    H171107   1.103   3.429   4.548 -0.3904 -1.8631  0.3719
16564TIP3    H271108   0.985   3.368   4.475 -0.2769  0.1872 -1.5722
16565TIP3   OH271109   5.451   4.665  12.244  0.6218 -0.6762  0.7538
16565TIP3    H171110   5.430   4.664  12.337  0.0612  0.2495  0.6486
16565TIP3    H271111   5.385   4.610  12.203 -1.1014  1.4683  0.5370
16566TIP3   OH271112   5.462   1.096  12.303 -0.2187 -0.0369  0.2632
16566TIP3    H171113   5.495   1.063  12.219  0.8726  0.1547  0.5990
16566TIP3    H271114   5.422   1.019  12.344  2.7439 -1.1675  1.2479
16567TIP3   OH271115   6.594   1.978   5.003 -0.6842 -0.6683 -0.3864
16567TIP3    H171116   6.502   1.954   4.988 -0.3386 -1.5364 -1.2063
16567TIP3    H271117   6.608   2.053   4.946 -1.0795 -0.0797  0.2830
16568TIP3   OH271118   3.162   6.190  13.756 -0.6984  0.4321  0.0509
16568TIP3    H171119   3.162   6.096  13.778 -0.5405  0.1224 -1.2153
16568TIP3    H271120   3.255   6.211  13.744 -0.6263  1.0733  1.5773
16569TIP3   OH271121   4.175   4.720  15.905  0.1118 -0.0771  0.1686
16569TIP3    H171122   4.268   4.744  15.905 -0.2569  1.5479 -2.6429
16569TIP3    H271123   4.133   4.785  15.961  0.1972  1.2205 -1.2737
16570TIP3   OH271124   1.704   4.267   6.007  0.1040 -0.0382  0.2720
16570TIP3    H171125   1.636   4.268   6.074 -1.0296  2.9215 -0.8722
16570TIP3    H271126   1.758   4.344   6.025  1.1081 -0.4426 -0.9156
16571TIP3   OH271127   0.887   1.415  15.405 -0.2135 -0.0631 -0.1589
16571TIP3    H171128   0.973   1.448  15.380  0.3081 -1.0888  0.2554
16571TIP3    H271129   0.901   1.370  15.488 -1.5372  1.4524  0.9143
16572TIP3   OH271130   3.175   4.833   1.963 -0.1237  0.0645  0.2683
16572TIP3    H171131   3.257   4.786   1.950 -0.1064  0.2324 -0.2550
16572TIP3    H271132   3.149   4.862   1.875 -0.2555  0.8207  0.5490
16573TIP3   OH271133   5.375   5.730   5.209 -0.0451 -0.1056  0.0962
16573TIP3    H171134   5.457   5.778   5.196  1.2973 -2.5377 -0.7206
16573TIP3    H271135   5.337   5.724   5.122 -0.2344 -0.4914  0.2066
16574TIP3   OH271136   2.645   0.673   2.175 -0.4365  0.1846  0.0165
16574TIP3    H171137   2.718   0.730   2.153 -1.6617  1.3320 -1.1954
16574TIP3    H271138   2.584   0.729   2.224 -0.0421 -1.0298  1.9460
16575TIP3   OH271139   3.599   2.813   2.243  0.1678 -0.1626  0.4504
16575TIP3    H171140   3.575   2.721   2.238  0.2693 -0.1334 -0.7547
16575TIP3    H271141   3.689   2.816   2.211 -0.2266  0.5054 -0.6290
16576TIP3   OH271142   1.806   1.759  14.945  0.3474  0.1665  0.8852
16576TIP3    H171143   1.835   1.771  14.855 -1.2311 -0.7263  0.2315
16576TIP3    H271144   1.823   1.667  14.964  1.6232  0.5944  1.8610
16577TIP3   OH271145   1.306   2.222   2.139 -0.1216  0.5796 -0.1854
16577TIP3    H171146   1.380   2.220   2.078 -0.8724  1.1585 -1.1390
16577TIP3    H271147   1.250   2.293   2.106 -0.6120  0.8033  1.1000
16578TIP3   OH271148   5.145   3.789  11.068  0.5777 -0.1226  0.2383
16578TIP3    H171149   5.175   3.799  11.158 -0.0963  1.1002  0.3385
16578TIP3    H271150   5.150   3.878  11.032 -0.5124 -0.3625 -0.5047
16579TIP3   OH271151   4.858   1.091   1.015 -0.1746  0.4617 -0.0606
16579TIP3    H171152   4.916   1.142   1.072 -0.0074  2.7416 -2.1868
16579TIP3    H271153   4.907   1.012   0.994  1.1210  1.1664  0.2525
16580TIP3   OH271154   1.510   5.541  14.606 -0.3530  0.1101  0.2876
16580TIP3    H171155   1.483   5.577  14.522  0.9511 -0.3160 -0.3381
16580TIP3    H271156   1.572   5.471  14.583 -0.2161 -0.2170  1.5881
16581TIP3   OH271157   2.171   3.291   1.670  0.1268 -0.0746 -0.2198
16581TIP3    H171158   2.148   3.348   1.743 -1.3498 -1.4945  0.4507
16581TIP3    H271159   2.252   3.248   1.698  0.4256  0.5641 -0.0958
16582TIP3   OH271160   4.399   4.998  17.163 -0.2591  0.4771 -0.0088
16582TIP3    H171161   4.305   4.987  17.151 -0.2608  0.8019 -0.3055
16582TIP3    H271162   4.438   4.960  17.084 -0.3284  3.7671 -1.7151
16583TIP3   OH271163   5.146   4.395  14.600  0.2086  0.0446  0.1115
16583TIP3    H171164   5.104   4.365  14.519 -0.8427 -2.4681  1.5297
16583TIP3    H271165   5.218   4.333  14.614 -0.5731 -0.4835  1.9119
16584TIP3   OH271166   6.125   6.230  13.183 -0.0225  0.1570  0.1763
16584TIP3    H171167   6.149   6.138  13.172 -2.5597 -0.5098  0.0570
16584TIP3    H271168   6.095   6.236  13.273 -0.7124  0.6875 -0.0912
16585TIP3   OH271169   1.581   2.174   4.560 -0.0515  0.1505 -0.1239
16585TIP3    H171170   1.647   2.233   4.598  0.0038 -0.7568  1.2301
16585TIP3    H271171   1.520   2.233   4.516  0.2336  1.2193  0.8597
16586TIP3   OH271172   1.012   1.747  11.382  0.1460 -0.1767  0.2598
16586TIP3    H171173   0.952   1.717  11.313  2.2357  0.4382 -1.9101
16586TIP3    H271174   1.060   1.668  11.408  0.4126 -0.1465 -0.1194
16587TIP3   OH271175   3.001   0.142  16.533 -0.2486 -0.3158 -0.0763
16587TIP3    H171176   2.922   0.147  16.586  0.3213 -0.3446  0.7936
16587TIP3    H271177   3.012   0.231  16.499  0.2404  0.1180  1.1558
16588TIP3   OH271178   3.374   5.307   1.139 -0.0742  0.3383  0.5453
16588TIP3    H171179   3.382   5.388   1.089  0.5284  1.2098  2.0224
16588TIP3    H271180   3.306   5.257   1.093  1.3419  0.5421 -1.8835
16589TIP3   OH271181   0.390   6.356   3.251 -0.0193 -0.1507  0.0508
16589TIP3    H171182   0.383   6.400   3.335  1.4220 -0.7630  0.5047
16589TIP3    H271183   0.447   6.413   3.198 -1.0968  0.3457 -0.5939
16590TIP3   OH271184   3.852   4.237  15.985  0.3517  0.4105  0.1980
16590TIP3    H171185   3.758   4.223  15.978  0.7750 -1.5512 -2.0149
16590TIP3    H271186   3.866   4.257  16.077 -2.3657  1.8531  0.3428
16591TIP3   OH271187   3.679   4.017  10.505  0.1414  0.5980 -0.3088
16591TIP3    H171188   3.621   4.066  10.564  0.4589  0.4266  0.1505
16591TIP3    H271189   3.620   3.963  10.453 -0.0464 -0.5227  1.0278
16592TIP3   OH271190   1.173   2.802  15.310 -0.4253 -0.0875 -0.1912
16592TIP3    H171191   1.238   2.746  15.267  0.0795  1.4627 -1.4897
16592TIP3    H271192   1.088   2.767  15.280 -0.1088  0.0224 -1.2558
16593TIP3   OH271193   6.759   3.394   5.690  0.0169  0.9138 -0.9285
16593TIP3    H171194   6.710   3.387   5.608  2.8913  0.4319 -2.6567
16593TIP3    H271195   6.769   3.304   5.720  1.1143  0.8902 -1.3580
16594TIP3   OH271196   3.495   0.506   2.565  0.1065 -0.2692  0.7851
16594TIP3    H171197   3.551   0.466   2.632  1.2780 -0.2128 -0.1414
16594TIP3    H271198   3.538   0.484   2.482 -1.3897 -0.4438  0.0412
16595TIP3   OH271199   1.221   6.120  12.007  0.3694  0.0499 -0.3313
16595TIP3    H171200   1.139   6.104  12.055  0.7480  2.1537  1.0640
16595TIP3    H271201   1.194   6.126  11.916 -0.5889 -2.3411 -0.2557
16596TIP3   OH271202   1.128   3.979  14.039  0.2485  0.1593  0.5240
16596TIP3    H171203   1.160   4.040  13.972 -1.0731  0.5750  0.2605
16596TIP3    H271204   1.199   3.915  14.048 -0.7610 -1.7523 -3.5439
16597TIP3   OH271205   1.132   6.249  15.474 -0.0864 -0.7164 -0.4329
16597TIP3    H171206   1.227   6.254  15.463  0.0173 -1.2824  0.2052
16597TIP3    H271207   1.098   6.327  15.429  0.5778 -1.2598 -1.9005
16598TIP3   OH271208   5.142   0.634   4.187 -0.3038 -0.2313 -0.3793
16598TIP3    H171209   5.106   0.719   4.162 -1.0637 -0.6723 -0.8153
16598TIP3    H271210   5.236   0.642   4.172 -0.6970 -0.4254 -3.3088
16599TIP3   OH271211   4.626   2.331  14.894 -0.1849  0.1935 -0.0654
16599TIP3    H171212   4.561   2.299  14.832  0.1797  1.9753 -1.4262
16599TIP3    H271213   4.575   2.360  14.969 -0.8431  0.1137 -0.4714
16600TIP3   OH271214   5.164   5.798  16.429 -0.0494  0.4129 -0.1516
16600TIP3    H171215   5.100   5.727  16.425  0.3946 -0.0413  0.7647
16600TIP3    H271216   5.111   5.878  16.434 -0.5400  0.0642  0.2465
16601TIP3   OH271217   6.357   5.655   2.174 -0.0842 -0.3607  0.0296
16601TIP3    H171218   6.443   5.657   2.214  0.6029 -1.6133 -1.3253
16601TIP3    H271219   6.341   5.745   2.146  0.5579 -0.0275  0.7210
16602TIP3   OH271220   1.420   3.075   0.760 -0.2776 -0.0154 -0.0469
16602TIP3    H171221   1.455   3.097   0.846  0.9526  1.9199 -0.9952
16602TIP3    H271222   1.449   3.147   0.704 -2.8060 -0.1797 -1.6417
16603TIP3   OH271223   4.857   0.244   5.486  0.9408 -0.7693  0.3931
16603TIP3    H171224   4.826   0.334   5.472  0.5843 -0.6011  2.1495
16603TIP3    H271225   4.777   0.194   5.504  1.3039 -1.0541  1.2676
16604TIP3   OH271226   3.194   5.534  17.041  0.3039  0.1507  0.0685
16604TIP3    H171227   3.254   5.605  17.019  0.9581  0.0250  1.3949
16604TIP3    H271228   3.107   5.573  17.037  0.4213  0.2565 -2.1706
16605TIP3   OH271229   6.019   0.895   0.434 -0.3995  0.5806 -0.1794
16605TIP3    H171230   6.029   0.951   0.357 -2.6617  1.7463  0.3183
16605TIP3    H271231   6.107   0.886   0.469  0.6307  0.2032 -2.7878
16606TIP3   OH271232   4.180   5.749  13.884  0.3413 -0.2439 -0.0470
16606TIP3    H171233   4.226   5.803  13.819 -1.0016 -0.6039 -1.3291
16606TIP3    H271234   4.096   5.793  13.894 -0.2861 -1.4064 -0.1764
16607TIP3   OH271235   5.868   2.262   0.071  0.8328 -0.3431  0.1711
16607TIP3    H171236   5.774   2.277   0.070  1.0494  1.1003  0.5297
16607TIP3    H271237   5.882   2.197   0.003  0.0357  2.3497 -2.6882
16608TIP3   OH271238   0.117   4.956  10.404 -0.6840 -0.0525  0.4657
16608TIP3    H171239   0.029   4.921  10.390 -1.8196  2.3058  1.6312
16608TIP3    H271240   0.154   4.901  10.473 -1.6236 -0.3470  0.7354
16609TIP3   OH271241   0.307   3.373   3.489  0.0053  0.3460  0.1873
16609TIP3    H171242   0.256   3.412   3.418  0.0925 -0.4676 -0.3319
16609TIP3    H271243   0.385   3.337   3.445 -0.8688 -1.8928  0.3854
16610TIP3   OH271244   1.339   2.825  14.888  0.6739 -0.2936 -0.8282
16610TIP3    H171245   1.394   2.877  14.829 -0.7312  0.3461 -1.5989
16610TIP3    H271246   1.331   2.740  14.845  0.5488 -0.1848 -1.0193
16611TIP3   OH271247   4.206   5.487   4.434  0.3888 -0.6862 -0.2773
16611TIP3    H171248   4.227   5.442   4.516 -1.7418 -0.7006  0.2759
16611TIP3    H271249   4.283   5.540   4.415  0.4349  0.2094  2.3425
16612TIP3   OH271250   0.475   1.717   1.622 -0.0542  0.3195  0.4284
16612TIP3    H171251   0.440   1.765   1.547 -1.6449  1.5957  1.9307
16612TIP3    H271252   0.399   1.704   1.679  1.1962 -0.2677  2.0064
16613TIP3   OH271253   5.304   0.105  10.959  0.2885  0.0899 -0.5136
16613TIP3    H171254   5.381   0.075  10.911  0.0993 -1.4246  0.1217
16613TIP3    H271255   5.329   0.192  10.992  2.5069 -1.2372  1.4620
16614TIP3   OH271256   4.317   2.592   5.782  0.3990 -0.7341 -0.6814
16614TIP3    H171257   4.410   2.612   5.794  0.4725 -1.6941  0.4594
16614TIP3    H271258   4.306   2.505   5.821 -1.4697  0.3918  1.4291
16615TIP3   OH271259   5.975   6.018  14.785  0.0227 -0.5570  0.4179
16615TIP3    H171260   6.041   5.955  14.813  0.8297 -0.1203 -0.5004
16615TIP3    H271261   6.023   6.083  14.735 -1.1787 -0.4612 -0.6313
16616TIP3   OH271262   0.715   1.769   1.388  0.4670  0.2071 -0.3722
16616TIP3    H171263   0.642   1.745   1.445  0.0954 -1.4436 -1.4919
16616TIP3    H271264   0.747   1.685   1.355  0.9624  1.1115 -2.2197
16617TIP3   OH271265   1.781   5.941  15.919 -0.1295 -0.2105 -0.1425
16617TIP3    H171266   1.749   5.909  15.835  1.0540 -0.3820 -0.5446
16617TIP3    H271267   1.706   5.984  15.959 -1.0320 -1.2141 -0.7454
16618TIP3   OH271268   6.510   1.223  15.715  0.0146  0.1008 -0.0644
16618TIP3    H171269   6.420   1.250  15.732 -0.8024 -1.0702 -2.2732
16618TIP3    H271270   6.561   1.304  15.720 -1.1113  0.7374  1.4364
16619TIP3   OH271271   4.181   5.230  17.043 -0.5149 -0.0828  0.2132
16619TIP3    H171272   4.157   5.165  17.109 -0.7085 -1.3269 -1.0665
16619TIP3    H271273   4.268   5.260  17.069 -0.1871 -1.2719  0.4877
16620TIP3   OH271274   3.667   5.723   0.114 -0.4183 -0.1205  1.0657
16620TIP3    H171275   3.593   5.783   0.099 -0.8675 -0.4750  1.8677
16620TIP3    H271276   3.673   5.715   0.209  1.0035  0.3327  1.0206
16621TIP3   OH271277   5.432   4.935   2.009  0.6404 -0.0519  0.7313
16621TIP3    H171278   5.461   4.955   2.098  1.4098  0.8237  0.2947
16621TIP3    H271279   5.456   5.013   1.958 -1.0687  0.0520  0.0431
16622TIP3   OH271280   5.384   4.836   4.355  0.4794  0.0877 -0.2408
16622TIP3    H171281   5.441   4.794   4.290  2.1365  0.3807  0.9630
16622TIP3    H271282   5.369   4.767   4.420  0.8497  0.4969  0.2867
16623TIP3   OH271283   1.005   6.156  12.219  0.1334 -0.8991  0.5772
16623TIP3    H171284   1.003   6.174  12.313  0.3091 -0.5411  0.5135
16623TIP3    H271285   0.940   6.087  12.207 -0.3987 -0.4530  0.8579
16624TIP3   OH271286   5.493   6.184  12.764  0.1324 -0.1581 -0.0312
16624TIP3    H171287   5.463   6.177  12.673  2.8053  1.9917 -1.1564
16624TIP3    H271288   5.491   6.094  12.797 -1.9837 -0.8153 -1.8038
16625TIP3   OH271289   5.014   4.632  14.990 -0.7952  0.3379  0.1501
16625TIP3    H171290   4.994   4.538  14.990  1.0814 -0.1011  0.5623
16625TIP3    H271291   5.026   4.654  14.898  3.0265 -0.8669  0.2644
16626TIP3   OH271292   2.095   0.699  13.595  0.0504  0.5178 -0.6758
16626TIP3    H171293   2.181   0.677  13.629  0.0910  0.5879 -0.7342
16626TIP3    H271294   2.041   0.714  13.674  0.0279  0.2299 -0.6381
16627TIP3   OH271295   3.578   2.900  11.374  0.2232  0.6080 -0.3153
16627TIP3    H171296   3.633   2.836  11.329 -0.4699  0.3992 -0.8651
16627TIP3    H271297   3.588   2.980  11.322  0.3447  0.6928 -0.1645
16628TIP3   OH271298   0.703   5.665  16.984 -0.3397 -0.0133 -0.4187
16628TIP3    H171299   0.610   5.673  17.007 -0.4300 -0.2332 -0.6949
16628TIP3    H271300   0.703   5.609  16.906  0.1505 -1.6168  0.7027
16629TIP3   OH271301   5.374   0.364  12.002  0.1027  0.3338 -0.2218
16629TIP3    H171302   5.371   0.399  12.091  3.4094  0.9422 -0.2848
16629TIP3    H271303   5.353   0.440  11.947 -0.3141  0.3470 -0.0500
16630TIP3   OH271304   2.939   1.435   5.317  0.2904  0.3843  0.4803
16630TIP3    H171305   2.957   1.445   5.411  0.5579 -0.1304  0.4835
16630TIP3    H271306   2.879   1.507   5.297 -1.1219 -0.4901  1.4211
16631TIP3   OH271307   1.313   4.278  12.947  0.4092  0.2199 -0.0567
16631TIP3    H171308   1.310   4.365  12.987 -1.0679 -0.1700  0.7240
16631TIP3    H271309   1.227   4.267  12.907 -0.1348 -1.6711  1.5766
16632TIP3   OH271310   2.394   4.697  12.164 -0.8052  0.4744  0.6642
16632TIP3    H171311   2.429   4.780  12.196  0.8784 -0.4493  1.2967
16632TIP3    H271312   2.444   4.630  12.210 -1.8430 -0.9059 -0.1496
16633TIP3   OH271313   2.255   4.771   2.497  0.2600  0.2426 -0.3695
16633TIP3    H171314   2.172   4.766   2.450 -0.6383  1.1202  1.0984
16633TIP3    H271315   2.242   4.716   2.574 -0.0239  2.7444  1.4206
16634TIP3   OH271316   5.247   5.967   1.616  0.3158 -0.4565  0.2557
16634TIP3    H171317   5.294   5.908   1.556 -1.5842 -0.8854 -0.8517
16634TIP3    H271318   5.274   6.055   1.589  1.6494 -0.7392  0.6284
16635TIP3   OH271319   4.277   1.580   5.699  0.3421  0.3203  0.0942
16635TIP3    H171320   4.202   1.563   5.642  0.4120  1.4265 -0.3340
16635TIP3    H271321   4.353   1.571   5.641  0.3999  1.6883 -0.0537
16636TIP3   OH271322   4.979   5.251  16.388 -0.1803 -0.5148  0.3746
16636TIP3    H171323   4.951   5.290  16.470 -0.1481 -2.1042  1.1597
16636TIP3    H271324   5.045   5.186  16.413  0.1138 -0.7426 -0.9335
16637TIP3   OH271325   1.922   0.963   1.169 -0.6181  0.8378 -0.4367
16637TIP3    H171326   1.967   1.040   1.205 -1.5133  0.7402  0.8946
16637TIP3    H271327   1.970   0.944   1.088  1.8334  0.6635  1.0097
16638TIP3   OH271328   1.976   0.488  16.212 -0.3236 -0.4294 -0.2869
16638TIP3    H171329   2.056   0.450  16.175  0.9122  2.6618 -0.9040
16638TIP3    H271330   1.957   0.563  16.156 -1.2907  1.3465  2.3468
16639TIP3   OH271331   6.665   2.388  16.376 -0.1487  0.0543 -0.3869
16639TIP3    H171332   6.696   2.305  16.342  0.2351 -0.8363  2.0643
16639TIP3    H271333   6.744   2.436  16.401 -0.5049 -0.6901  2.3412
16640TIP3   OH271334   3.671   3.151  12.714 -0.7869  0.3728 -0.5146
16640TIP3    H171335   3.628   3.066  12.718 -0.2307  0.1235  0.3288
16640TIP3    H271336   3.651   3.184  12.627 -1.3753 -0.4264 -0.6895
16641TIP3   OH271337   4.607   1.230  15.390 -0.7861 -0.0675 -0.0281
16641TIP3    H171338   4.539   1.170  15.422  0.8400 -0.2184  3.3034
16641TIP3    H271339   4.588   1.312  15.434 -0.4655  0.7038 -1.3061
16642TIP3   OH271340   5.489   5.247  12.631 -0.0842 -0.5518  0.2545
16642TIP3    H171341   5.538   5.165  12.623 -1.1543 -1.3084  1.1738
16642TIP3    H271342   5.481   5.278  12.541 -1.6427 -2.6803 -0.4029
16643TIP3   OH271343   2.091   4.321   0.588  0.4663  0.0237 -0.9143
16643TIP3    H171344   1.996   4.308   0.595  0.4141 -0.4667 -2.4020
16643TIP3    H271345   2.118   4.346   0.677 -1.5514  3.3404 -1.1230
16644TIP3   OH271346   2.046   1.383  14.542 -0.0005  0.4997  0.0237
16644TIP3    H171347   2.029   1.455  14.604  0.2567  0.0190  0.6523
16644TIP3    H271348   2.102   1.422  14.475 -0.6978  1.1609 -0.1874
16645TIP3   OH271349   0.239   4.432   2.350  0.5408 -0.0043  0.4871
16645TIP3    H171350   0.285   4.396   2.426  0.9739 -0.0824  0.1871
16645TIP3    H271351   0.308   4.466   2.293  0.3357 -1.3714 -0.6084
16646TIP3   OH271352   6.038   0.658   6.587 -1.1910 -0.7229 -0.0590
16646TIP3    H171353   5.991   0.584   6.548 -3.3029 -0.4928  1.8802
16646TIP3    H271354   5.973   0.729   6.588  0.0559  0.4322  0.2494
16647TIP3   OH271355   0.821   3.065   0.059 -0.0231 -0.1410  0.2438
16647TIP3    H171356   0.797   3.112  -0.021  1.6736  0.0601 -0.1530
16647TIP3    H271357   0.761   3.099   0.125 -1.1871 -0.0254 -0.8448
16648TIP3   OH271358   0.281   6.682  11.805 -0.4479 -0.1401  0.6653
16648TIP3    H171359   0.275   6.587  11.809 -0.4149 -0.3228 -2.0954
16648TIP3    H271360   0.361   6.699  11.755 -1.8346  1.2314 -1.1659
16649TIP3   OH271361   6.422   4.158  15.282  0.3070  0.0209  0.2241
16649TIP3    H171362   6.471   4.235  15.253  0.0787 -0.2342 -0.8812
16649TIP3    H271363   6.489   4.090  15.291  0.3767  0.0921  0.2523
16650TIP3   OH271364   1.287   1.033   2.979  0.4510  0.4660  0.0894
16650TIP3    H171365   1.243   1.058   3.060  1.3399  1.3251  0.3220
16650TIP3    H271366   1.223   0.980   2.932 -0.1240  0.0887  1.2848
16651TIP3   OH271367   5.006   1.937  12.519 -0.2661  0.8240 -0.3050
16651TIP3    H171368   4.931   1.989  12.492 -1.2645 -1.2264 -1.6196
16651TIP3    H271369   5.062   1.932  12.442  0.7927  1.5978  0.4051
16652TIP3   OH271370   1.245   6.734   4.866  0.4789 -0.2574  0.1994
16652TIP3    H171371   1.152   6.727   4.890 -0.1230  1.9745 -1.3602
16652TIP3    H271372   1.277   6.809   4.916  0.4525  1.3590 -2.1770
16653TIP3   OH271373   4.186   1.325   4.779  0.6004 -0.3693  0.0642
16653TIP3    H171374   4.183   1.419   4.759  0.8937 -0.5831 -1.0299
16653TIP3    H271375   4.163   1.320   4.872  0.6266  0.7876  0.1496
16654TIP3   OH271376   1.822   5.339   2.531 -0.0145  0.3819  0.5235
16654TIP3    H171377   1.767   5.314   2.605  0.4164 -1.4371  0.2452
16654TIP3    H271378   1.859   5.424   2.557 -0.1434 -0.0594  2.2269
16655TIP3   OH271379   5.675   1.311   0.776 -0.8972  0.0088 -0.5373
16655TIP3    H171380   5.716   1.225   0.766  1.3927  1.0074 -0.0380
16655TIP3    H271381   5.597   1.294   0.829 -0.6043 -1.7887 -0.6253
16656TIP3   OH271382   5.593   2.684   3.283 -0.6715 -0.4167 -0.1278
16656TIP3    H171383   5.541   2.730   3.217  1.0031 -0.9135 -1.8338
16656TIP3    H271384   5.630   2.609   3.237  1.6902  0.0223  0.9922
16657TIP3   OH271385   4.836   5.328  12.643  0.1021  0.4809 -0.1488
16657TIP3    H171386   4.799   5.274  12.573 -2.6165  1.0212  0.7988
16657TIP3    H271387   4.888   5.268  12.695 -1.0713 -0.7437 -0.3829
16658TIP3   OH271388   6.784   4.320   3.615 -0.0111 -0.4434 -0.0065
16658TIP3    H171389   6.793   4.241   3.561  2.5605 -0.1467 -0.0819
16658TIP3    H271390   6.808   4.392   3.557  0.0751  0.1568  0.7683
16659TIP3   OH271391   1.814   5.166   3.973  0.3987  0.0807  0.1250
16659TIP3    H171392   1.734   5.219   3.973  1.1094  1.1760 -1.6818
16659TIP3    H271393   1.858   5.189   4.055  0.1853  1.5208 -0.1513
16660TIP3   OH271394   4.480   2.122   3.504  0.0481  0.2265  0.2601
16660TIP3    H171395   4.487   2.154   3.594 -0.2613  0.7437  0.0977
16660TIP3    H271396   4.569   2.130   3.469  0.0683  0.4688  0.3662
16661TIP3   OH271397   6.533   1.330   5.223 -0.7039  0.0776 -1.2473
16661TIP3    H171398   6.536   1.424   5.239  1.8180 -0.0881 -0.4170
16661TIP3    H271399   6.581   1.318   5.140  0.6107 -0.6171 -0.4128
16662TIP3   OH271400   2.749   2.326   6.615  0.2721 -0.2866  0.1464
16662TIP3    H171401   2.796   2.394   6.567  0.5974 -0.2058  0.5752
16662TIP3    H271402   2.813   2.293   6.679  0.4441 -1.7011 -0.7248
16663TIP3   OH271403   5.778   0.708   5.256 -0.1580 -0.0367 -0.3118
16663TIP3    H171404   5.823   0.781   5.298 -0.5722 -0.1894  0.3942
16663TIP3    H271405   5.691   0.741   5.237 -0.7861 -0.7865  1.2369
16664TIP3   OH271406   5.691   3.032   4.544  0.4041 -0.2810  1.0763
16664TIP3    H171407   5.743   2.974   4.599  1.5646  0.0813  0.3885
16664TIP3    H271408   5.645   2.974   4.483 -0.5518 -0.6496  2.1272
16665TIP3   OH271409   5.248   2.022   4.340  0.1031  0.4913 -0.0216
16665TIP3    H171410   5.165   1.980   4.315 -0.2464  1.0617  0.1644
16665TIP3    H271411   5.304   1.949   4.366 -0.8497  0.1994  1.3234
16666TIP3   OH271412   3.396   1.305   4.976 -0.1543 -0.2329  0.3603
16666TIP3    H171413   3.349   1.388   4.963  0.2455 -0.0828 -0.1375
16666TIP3    H271414   3.469   1.327   5.033 -0.2014 -0.2973  0.4453
16667TIP3   OH271415   5.783   3.572  13.783 -0.4887  0.4561  0.1157
16667TIP3    H171416   5.808   3.503  13.721  0.9961  0.9180  0.1818
16667TIP3    H271417   5.700   3.606  13.749 -0.1232  0.1099 -1.1399
16668TIP3   OH271418   1.616   4.974   4.687  0.4544 -0.2962 -0.7069
16668TIP3    H171419   1.615   4.973   4.782  0.1050 -1.0004 -0.7137
16668TIP3    H271420   1.699   5.016   4.664  0.1061  0.7234 -0.0952
16669TIP3   OH271421   4.224   4.324   3.048  0.7319  0.0888  0.7472
16669TIP3    H171422   4.185   4.297   2.965  0.7485  2.4401 -0.0478
16669TIP3    H271423   4.160   4.299   3.114 -0.4340  0.5067 -0.2090
16670TIP3   OH271424   6.174   4.141   0.822 -0.3295 -0.0657 -0.0005
16670TIP3    H171425   6.091   4.093   0.816 -0.3108  0.1183 -2.0152
16670TIP3    H271426   6.225   4.110   0.748  1.2175  0.2235  0.9245
16671TIP3   OH271427   3.574   6.505   4.022 -0.3260 -0.0475  0.2180
16671TIP3    H171428   3.607   6.594   4.011 -0.1854 -0.0723  0.4430
16671TIP3    H271429   3.578   6.489   4.116  1.9309 -1.1419 -0.0155
16672TIP3   OH271430   4.274   5.072   4.104  0.6009 -0.5267 -0.3462
16672TIP3    H171431   4.208   5.135   4.135  0.6523 -1.2521  1.2854
16672TIP3    H271432   4.228   4.988   4.104  1.5851 -1.0781  1.0306
16673TIP3   OH271433   0.737   3.280  13.374  0.1094 -0.2744 -0.0172
16673TIP3    H171434   0.726   3.363  13.421 -3.4559 -0.6167 -0.1199
16673TIP3    H271435   0.648   3.253  13.351  1.4513 -2.4517 -2.9766
16674TIP3   OH271436   6.113   2.595   1.133 -0.2126  0.7000  0.3382
16674TIP3    H171437   6.198   2.554   1.145 -0.2820  0.1101 -1.0814
16674TIP3    H271438   6.063   2.532   1.080 -0.0031  2.9868 -2.7208
16675TIP3   OH271439   3.083   0.627   0.964  0.5066 -0.6690 -0.2425
16675TIP3    H171440   3.134   0.700   1.000  1.7694 -2.0575  0.8744
16675TIP3    H271441   3.038   0.664   0.889 -1.2062  2.0144  2.0136
16676TIP3   OH271442   1.707   5.969  14.798  0.5196 -0.3484  0.2246
16676TIP3    H171443   1.746   6.047  14.759 -1.8998  0.3091 -0.9694
16676TIP3    H271444   1.684   5.996  14.887 -0.3223  0.3171 -0.1877
16677TIP3   OH271445   6.254   4.935  14.333 -0.5555  0.0180 -0.0206
16677TIP3    H171446   6.217   4.847  14.337 -1.0497  0.0699 -2.6922
16677TIP3    H271447   6.330   4.926  14.276  0.4198  0.9981  1.0921
16678TIP3   OH271448   0.974   0.321  14.961  0.0853  0.6103  0.6606
16678TIP3    H171449   0.913   0.383  15.001 -0.1937  0.5728  0.3019
16678TIP3    H271450   1.060   0.362  14.971 -0.1142  1.1169  0.3135
16679TIP3   OH271451   4.286   5.504   3.888 -0.3573 -0.0897  0.0657
16679TIP3    H171452   4.339   5.533   3.962 -1.1559 -0.4850  0.8016
16679TIP3    H271453   4.217   5.450   3.927 -1.7012  0.9597 -0.8131
16680TIP3   OH271454   4.962   1.830  11.462  0.0644 -0.6368 -0.1852
16680TIP3    H171455   4.917   1.812  11.380  0.7141  0.2826 -0.7528
16680TIP3    H271456   4.911   1.784  11.529 -0.8657 -0.7923 -1.0064
16681TIP3   OH271457   0.246   3.843   5.480 -0.0695  0.1064  0.1074
16681TIP3    H171458   0.225   3.751   5.496  0.5087 -0.0873 -0.2212
16681TIP3    H271459   0.233   3.887   5.564  0.8203 -0.4921  0.5633
16682TIP3   OH271460   2.805   0.592   1.431 -0.7120 -0.8434  0.0444
16682TIP3    H171461   2.810   0.685   1.454 -0.5541 -0.8086 -0.1327
16682TIP3    H271462   2.892   0.558   1.451 -0.8327 -1.0001  0.3096
16683TIP3   OH271463   1.617   0.392   2.417 -0.5467 -0.2947 -0.0326
16683TIP3    H171464   1.592   0.330   2.347  0.7904 -0.5799 -0.2668
16683TIP3    H271465   1.710   0.375   2.432 -0.4951  0.7360  0.8546
16684TIP3   OH271466   3.557   0.203   0.949 -0.1259 -0.0866  0.1063
16684TIP3    H171467   3.506   0.263   0.895  0.0936  0.9496  1.0352
16684TIP3    H271468   3.594   0.141   0.886 -0.1903  0.8646 -0.9019
16685TIP3   OH271469   5.904   2.570  16.922 -0.2853  0.1371  0.2475
16685TIP3    H171470   5.900   2.665  16.908 -2.2211 -0.2182 -1.8793
16685TIP3    H271471   5.841   2.554  16.992 -1.8412  0.1491 -1.1216
16686TIP3   OH271472   4.687   4.130  14.924  1.0016 -0.6777 -0.3682
16686TIP3    H171473   4.751   4.079  14.974 -0.0061 -1.6006  0.0092
16686TIP3    H271474   4.604   4.086  14.941  0.0529  1.3507  0.2800
16687TIP3   OH271475   1.773   2.114  16.926 -0.0102  0.6162  0.0364
16687TIP3    H171476   1.786   2.020  16.918 -0.3433  0.6854 -1.4610
16687TIP3    H271477   1.824   2.152  16.855  0.1070  1.5750  0.6186
16688TIP3   OH271478   5.251   0.461   4.845 -0.3744  0.2140  0.0738
16688TIP3    H171479   5.304   0.511   4.907 -2.8923  0.1969  2.3423
16688TIP3    H271480   5.235   0.378   4.890  0.3763 -1.0642 -1.9596
16689TIP3   OH271481   6.637   3.208  16.846 -0.0044 -0.2326  0.0398
16689TIP3    H171482   6.618   3.241  16.758 -0.2976  0.1109  0.2314
16689TIP3    H271483   6.678   3.283  16.890 -0.9964 -0.0046  0.5865
16690TIP3   OH271484   0.857   4.979  13.169 -0.6032  0.2620  0.0307
16690TIP3    H171485   0.827   5.007  13.256 -0.2644 -0.2778  0.3268
16690TIP3    H271486   0.890   5.059  13.128 -0.7056  0.5091  0.4269
16691TIP3   OH271487   3.413   0.855  17.061  0.1756  0.6593  0.1303
16691TIP3    H171488   3.453   0.942  17.056 -1.6692  1.6206  1.4976
16691TIP3    H271489   3.467   0.801  17.004  1.9840  2.4577  0.0730
16692TIP3   OH271490   6.573   5.190   1.071  0.1566  0.2454 -0.2639
16692TIP3    H171491   6.664   5.163   1.077  0.3521  0.8423 -0.4220
16692TIP3    H271492   6.542   5.196   1.161  1.0968  2.7226 -0.0531
16693TIP3   OH271493   2.465   1.221   3.681 -0.0479  1.1236  0.5501
16693TIP3    H171494   2.396   1.185   3.624  0.5525  0.7947  0.0195
16693TIP3    H271495   2.545   1.209   3.630  0.4269  1.3027  1.2642
16694TIP3   OH271496   0.221   1.698  15.881 -0.1649  0.6165  0.4364
16694TIP3    H171497   0.280   1.773  15.887 -0.7218  1.0783  0.0990
16694TIP3    H271498   0.136   1.735  15.858 -0.4676 -0.1069  0.3697
16695TIP3   OH271499   0.774   1.821  13.532  0.3317 -0.2376  0.2463
16695TIP3    H171500   0.794   1.745  13.477  0.2811  0.7469 -1.1304
16695TIP3    H271501   0.808   1.896  13.484 -1.0317  0.7944  0.8599
16696TIP3   OH271502   1.181   2.397  15.782  0.5632 -0.1933 -0.0858
16696TIP3    H171503   1.274   2.402  15.765  0.2581  3.9116 -1.0081
16696TIP3    H271504   1.167   2.454  15.858 -1.2063 -0.5437 -0.1189
16697TIP3   OH271505   2.082   3.995   3.624  0.1886 -0.4230 -0.0493
16697TIP3    H171506   2.153   3.936   3.649  0.3280 -0.6818 -1.0555
16697TIP3    H271507   2.008   3.966   3.676  1.0666  0.4792  1.7649
16698TIP3   OH271508   5.000   0.868  14.758  0.0325 -0.2794 -0.0667
16698TIP3    H171509   4.953   0.936  14.710  0.6567  0.7612  0.7777
16698TIP3    H271510   5.055   0.825  14.693  1.4751  1.6469 -0.1380
16699TIP3   OH271511   0.471   0.244   2.933 -0.0729  0.1731  0.1404
16699TIP3    H171512   0.548   0.280   2.889  0.5227 -1.5989 -0.3242
16699TIP3    H271513   0.400   0.304   2.911  0.6907  0.5366 -1.4041
16700TIP3   OH271514   4.917   2.705   0.365  0.1971  0.5379  0.4568
16700TIP3    H171515   4.971   2.709   0.286 -0.4312 -0.5306 -0.0347
16700TIP3    H271516   4.837   2.661   0.337 -0.1707  0.4615  1.6174
16701TIP3   OH271517   4.520   6.778  17.099  0.2244 -0.2495  0.1933
16701TIP3    H171518   4.433   6.785  17.060 -0.0828  0.7086  1.0206
16701TIP3    H271519   4.543   6.686  17.090 -1.2339 -0.6776  0.7360
16702TIP3   OH271520   4.446   5.913   2.371  0.6146  0.5566  0.3921
16702TIP3    H171521   4.538   5.921   2.344  1.2483 -0.4824  2.1306
16702TIP3    H271522   4.446   5.937   2.463 -0.2646 -2.6275  1.2868
16703TIP3   OH271523   0.816   1.214  14.306  0.1136  0.1026  0.0806
16703TIP3    H171524   0.723   1.188  14.302  0.5897 -1.9705  1.6610
16703TIP3    H271525   0.816   1.291  14.363 -0.5959 -0.0912  0.3555
16704TIP3   OH271526   4.157   3.775  14.680  0.3128  0.0114 -0.6645
16704TIP3    H171527   4.144   3.843  14.614  0.5540 -0.2389 -0.9704
16704TIP3    H271528   4.069   3.759  14.715  0.5103  1.8046  0.7304
16705TIP3   OH271529   4.153   4.894  12.724  0.1463  0.4203 -0.4685
16705TIP3    H171530   4.162   4.952  12.648  0.5631  0.0708 -0.6874
16705TIP3    H271531   4.220   4.827  12.712 -0.6219 -0.3702 -0.4382
16706TIP3   OH271532   0.072   4.657   2.377  0.4898  0.1665  0.4212
16706TIP3    H171533   0.096   4.716   2.448  0.0003 -0.2827  0.9649
16706TIP3    H271534   0.141   4.592   2.374  0.6949  0.3906  0.2477
16707TIP3   OH271535   5.915   6.775   3.975  0.4191  0.0074 -0.1975
16707TIP3    H171536   5.973   6.712   3.931 -2.2866 -2.6967 -0.0529
16707TIP3    H271537   5.856   6.805   3.907  0.2482  0.6686  0.2387
16708TIP3   OH271538   2.059   0.052   4.388 -0.1699  0.0187 -0.2883
16708TIP3    H171539   2.007  -0.020   4.422  3.0312 -0.5388  3.8516
16708TIP3    H271540   2.036   0.127   4.442 -0.0345  0.9130 -1.4530
16709TIP3   OH271541   1.542   3.453  13.961 -0.5101 -0.3009  0.3669
16709TIP3    H171542   1.512   3.363  13.950 -0.9030 -0.0167 -1.0345
16709TIP3    H271543   1.537   3.469  14.055  2.8097 -2.8536  1.0731
16710TIP3   OH271544   0.396   4.156   1.265 -0.0160 -0.0483 -0.5894
16710TIP3    H171545   0.370   4.231   1.319  2.5616  0.1560  0.4802
16710TIP3    H271546   0.398   4.082   1.326 -0.8743 -0.6358 -1.2704
16711TIP3   OH271547   1.205   2.416  13.293  0.0420  0.0917 -0.1098
16711TIP3    H171548   1.130   2.357  13.285 -0.1068  0.2933 -0.2065
16711TIP3    H271549   1.218   2.449  13.204  1.9662 -2.0421 -0.6755
16712TIP3   OH271550   6.711   2.045  14.122  0.0998 -0.4357 -0.0911
16712TIP3    H171551   6.718   2.036  14.026 -1.4597  0.6269 -0.3145
16712TIP3    H271552   6.660   1.969  14.149  0.4592 -0.6847 -0.1059
16713TIP3   OH271553   0.672   3.939   5.497  0.3626 -0.4312 -0.0479
16713TIP3    H171554   0.758   3.915   5.532  0.9279 -0.0724 -1.1654
16713TIP3    H271555   0.649   4.020   5.543  1.7847  0.8598 -1.5836
16714TIP3   OH271556   0.531   3.938   0.446 -0.3302 -0.2510 -0.6832
16714TIP3    H171557   0.612   3.930   0.395  0.0661 -1.0877  0.0618
16714TIP3    H271558   0.561   3.949   0.536 -1.0394  0.1481 -0.4984
16715TIP3   OH271559   6.121   1.766   5.323 -0.7740 -0.1226 -0.3687
16715TIP3    H171560   6.092   1.697   5.263 -1.2129  0.4401 -0.8176
16715TIP3    H271561   6.048   1.777   5.384 -0.8110  0.1179 -0.4543
16716TIP3   OH271562   0.510   4.851   3.998  0.3965  0.5569 -0.0198
16716TIP3    H171563   0.552   4.884   4.077 -0.0498  0.1986  0.3700
16716TIP3    H271564   0.426   4.816   4.028 -0.3396  1.6044 -0.8421
16717TIP3   OH271565   3.523   0.149   1.716 -0.3329  0.3558  0.0114
16717TIP3    H171566   3.439   0.150   1.761  0.4484  2.0714  1.5162
16717TIP3    H271567   3.580   0.204   1.771  1.4666  0.0763 -1.5271
16718TIP3   OH271568   3.057   1.067  12.970  0.0309 -0.2432 -0.3931
16718TIP3    H171569   2.993   1.006  12.933 -0.4850  0.3244 -0.4421
16718TIP3    H271570   3.004   1.134  13.014  0.5360  1.0375 -1.6837
16719TIP3   OH271571   4.169   2.750   6.073  0.5885 -0.6639  0.1705
16719TIP3    H171572   4.162   2.674   6.016  0.6662 -0.5591  0.0217
16719TIP3    H271573   4.229   2.722   6.143  0.9852 -0.5849 -0.1352
16720TIP3   OH271574   6.526   3.161  14.626 -0.0271 -0.0994 -0.0823
16720TIP3    H171575   6.512   3.187  14.535  1.9692 -0.8569 -0.6381
16720TIP3    H271576   6.491   3.072  14.631 -4.2452  1.4821  1.0947
16721TIP3   OH271577   5.894   0.104   5.954  0.3235  0.6928  0.1917
16721TIP3    H171578   5.888   0.015   5.987 -0.0368  0.9309  0.7884
16721TIP3    H271579   5.805   0.125   5.924  1.1335 -0.3025 -3.0365
16722TIP3   OH271580   2.409   0.479  12.516 -0.2238 -0.0045 -0.1927
16722TIP3    H171581   2.451   0.516  12.594  1.1262 -1.3884 -0.2471
16722TIP3    H271582   2.343   0.418  12.551 -0.0652 -0.1418 -0.1357
16723TIP3   OH271583   3.707   5.636   1.696 -0.1302  0.3106  0.8824
16723TIP3    H171584   3.710   5.731   1.694 -0.2054  0.3143  0.9931
16723TIP3    H271585   3.676   5.614   1.784  1.7366  0.1491  1.5302
16724TIP3   OH271586   0.433   1.386   6.822 -0.1319 -0.2447  0.0029
16724TIP3    H171587   0.524   1.378   6.796 -0.5887 -0.6710 -1.5269
16724TIP3    H271588   0.411   1.477   6.804 -1.0025 -1.0001 -3.1050
16725TIP3   OH271589   3.946   3.392  12.351 -0.4406  0.1566  0.5014
16725TIP3    H171590   3.938   3.367  12.259 -1.9474  1.3335  0.3076
16725TIP3    H271591   3.959   3.309  12.397 -0.0717 -0.4730 -0.7225
16726TIP3   OH271592   3.971   3.316  16.660  0.2897  0.0858 -0.0999
16726TIP3    H171593   3.989   3.397  16.707 -0.4440  1.3042 -1.8744
16726TIP3    H271594   3.910   3.269  16.716  2.2715 -0.1949  1.8982
16727TIP3   OH271595   5.219   6.007  12.763 -0.2120 -0.0969  0.2608
16727TIP3    H171596   5.152   5.945  12.791 -0.4037 -0.3499 -0.7290
16727TIP3    H271597   5.302   5.970  12.794 -0.0995 -1.9272 -2.0779
16728TIP3   OH271598   3.811   2.460   3.098  0.2882  0.1650  0.1950
16728TIP3    H171599   3.773   2.392   3.042  0.6630 -0.0097  0.1546
16728TIP3    H271600   3.828   2.416   3.181  0.5632  0.1976  0.1574
16729TIP3   OH271601   6.758   4.598  13.664 -0.3205  0.0961 -0.3301
16729TIP3    H171602   6.759   4.503  13.658  1.3721 -0.0947  2.4034
16729TIP3    H271603   6.850   4.624  13.662 -0.7108  1.6041  0.1018
16730TIP3   OH271604   6.169   6.454   4.721  0.2494  0.3180  0.3824
16730TIP3    H171605   6.184   6.473   4.628  1.8942  0.2001  0.6234
16730TIP3    H271606   6.075   6.468   4.732 -0.0587 -0.1510 -1.4123
16731TIP3   OH271607   6.369   6.382   0.464 -0.1294 -0.4110 -0.2271
16731TIP3    H171608   6.342   6.459   0.415  0.6806 -0.2931 -0.5056
16731TIP3    H271609   6.288   6.334   0.481 -0.6770  0.6597  0.2314
16732TIP3   OH271610   5.226   3.165  16.565 -0.3329  0.1141  0.0250
16732TIP3    H171611   5.257   3.184  16.654  1.0588 -1.3339 -0.1526
16732TIP3    H271612   5.154   3.228  16.552 -0.5350  0.3708  2.1515
16733TIP3   OH271613   2.804   1.488   1.272  0.5068 -0.1553 -0.1151
16733TIP3    H171614   2.814   1.484   1.177  0.0281  0.0246 -0.1743
16733TIP3    H271615   2.723   1.538   1.285  2.0491  2.2481  0.4442
16734TIP3   OH271616   4.352   1.734   5.924  0.4496 -0.5113  0.3022
16734TIP3    H171617   4.345   1.820   5.881  1.2739 -1.3571 -1.5640
16734TIP3    H271618   4.342   1.671   5.853 -0.8661 -1.9982  1.7751
16735TIP3   OH271619   2.738   2.605   6.511  0.9646 -0.1296  0.6667
16735TIP3    H171620   2.786   2.688   6.511  0.4631  0.1657  0.4555
16735TIP3    H271621   2.672   2.615   6.442  0.6880 -0.5776  0.8615
16736TIP3   OH271622   3.750   4.621  14.289  0.4788 -0.4250 -0.5745
16736TIP3    H171623   3.732   4.703  14.336  0.0819 -1.4000  1.0137
16736TIP3    H271624   3.667   4.599  14.247  0.8140  0.4107 -1.7012
16737TIP3   OH271625   6.518   0.299   0.472  0.2088 -0.6252 -0.1572
16737TIP3    H171626   6.578   0.233   0.439  0.5622  0.7613 -2.3988
16737TIP3    H271627   6.563   0.382   0.458 -1.9615  0.4023 -1.3037
16738TIP3   OH271628   1.531   5.963   0.468 -0.2818  0.1740 -0.3379
16738TIP3    H171629   1.439   5.962   0.495 -0.2318  1.2892 -0.0989
16738TIP3    H271630   1.541   5.884   0.415 -0.3045 -2.1953  3.0735
16739TIP3   OH271631   5.146   2.648  13.920  0.3624  0.2051 -0.0817
16739TIP3    H171632   5.144   2.555  13.943 -0.1579  0.0930 -0.5932
16739TIP3    H271633   5.083   2.689  13.979 -0.5515  0.0028 -0.9230
16740TIP3   OH271634   0.752   3.383  11.850 -0.0268  0.4217 -0.0936
16740TIP3    H171635   0.698   3.367  11.773  1.3210 -1.1179 -0.7447
16740TIP3    H271636   0.834   3.336  11.833  0.1574 -0.2621  2.4612
16741TIP3   OH271637   3.473   4.848  15.223 -0.4423  0.0617 -0.1489
16741TIP3    H171638   3.381   4.875  15.219 -1.6703 -3.4744  1.6712
16741TIP3    H271639   3.474   4.759  15.186  1.5806 -1.3023  2.9499
16742TIP3   OH271640   5.135   4.788  16.131  0.0795 -0.3792 -0.0568
16742TIP3    H171641   5.117   4.736  16.052 -0.3297  0.0929 -0.2746
16742TIP3    H271642   5.198   4.853  16.102 -0.9796  0.5583 -0.2987
16743TIP3   OH271643   0.885   6.373   1.621  0.5423  0.3694  0.1637
16743TIP3    H171644   0.954   6.343   1.563  1.7275  1.1211  1.1442
16743TIP3    H271645   0.816   6.308   1.613  1.7689 -0.9164 -0.1175
16744TIP3   OH271646   0.180   2.932  12.368 -0.0045  0.4480 -0.0474
16744TIP3    H171647   0.258   2.884  12.341 -0.3027  0.5965 -1.1860
16744TIP3    H271648   0.162   2.900  12.457  0.9635 -0.0697 -0.0352
16745TIP3   OH271649   1.515   5.393  16.400  0.3525  0.2139 -0.2001
16745TIP3    H171650   1.439   5.368  16.347 -1.3420  1.9656  1.3413
16745TIP3    H271651   1.526   5.487  16.385  0.7965  0.4290  1.3449
16746TIP3   OH271652   1.009   6.547   5.697  0.2457 -0.4582  0.3081
16746TIP3    H171653   1.080   6.485   5.712  0.2583 -0.2056  1.3859
16746TIP3    H271654   0.981   6.531   5.607  1.3279 -0.9060  0.0426
16747TIP3   OH271655   3.795   1.454  16.639 -0.0820  0.5501  0.0198
16747TIP3    H171656   3.731   1.488  16.577  1.5644  0.0030 -2.0356
16747TIP3    H271657   3.873   1.437  16.586  1.0997 -0.6960  2.0978
16748TIP3   OH271658   5.075   3.563  11.950  0.2168  0.0633  0.2892
16748TIP3    H171659   5.163   3.584  11.917  0.6553  0.2194  1.5366
16748TIP3    H271660   5.087   3.480  11.997 -0.6554 -0.8116 -0.9969
16749TIP3   OH271661   4.027   0.268  17.111 -0.1776  0.0772  0.5028
16749TIP3    H171662   3.940   0.252  17.145 -0.6122 -2.0682 -1.5088
16749TIP3    H271663   4.048   0.191  17.059  2.2210  1.3030 -0.4649
16750TIP3   OH271664   2.265   2.845   1.509 -0.3731  0.3621  0.1657
16750TIP3    H171665   2.346   2.875   1.467 -0.4502  0.1927 -0.1018
16750TIP3    H271666   2.292   2.819   1.597 -0.0606 -0.1132 -0.0697
16751TIP3   OH271667   4.862   6.270   2.322  0.5091 -0.4326 -0.4971
16751TIP3    H171668   4.943   6.225   2.345 -0.6804 -2.5125 -0.2789
16751TIP3    H271669   4.832   6.306   2.405  0.2932 -1.1965 -0.2383
16752TIP3   OH271670   3.700   0.751   1.592  0.3255 -0.2920  0.0508
16752TIP3    H171671   3.793   0.768   1.577  0.3593 -2.0110 -1.9219
16752TIP3    H271672   3.694   0.656   1.597 -1.5575 -0.3019 -1.6685
16753TIP3   OH271673   3.569   3.886   0.545 -0.2148  0.1771 -0.2942
16753TIP3    H171674   3.516   3.887   0.625  0.4049 -0.9500  0.1417
16753TIP3    H271675   3.562   3.974   0.510 -0.7077  0.6016  0.8668
16754TIP3   OH271676   0.283   3.122  16.802  0.1350  0.0677  0.3555
16754TIP3    H171677   0.239   3.046  16.839  1.0696 -0.0038  1.3283
16754TIP3    H271678   0.294   3.182  16.875  0.5794  0.5906 -0.1321
16755TIP3   OH271679   0.919   0.136  12.937 -0.5344  0.1951  0.1095
16755TIP3    H171680   0.838   0.085  12.943 -0.5729  0.1856 -0.4926
16755TIP3    H271681   0.906   0.207  13.000 -1.0024  0.1779  0.0407
16756TIP3   OH271682   6.458   6.443  14.483 -0.9226  0.2545  0.5456
16756TIP3    H171683   6.506   6.487  14.413  1.7856 -2.0228  0.8955
16756TIP3    H271684   6.472   6.498  14.560  0.6795 -0.0637  0.5052
16757TIP3   OH271685   6.012   3.096  14.341 -0.2407 -0.0300  0.6624
16757TIP3    H171686   6.053   3.021  14.297  0.1754  0.0030  0.9865
16757TIP3    H271687   5.918   3.085  14.325 -0.0026  0.6498 -1.2766
16758TIP3   OH271688   6.041   3.897  14.500 -0.1134 -0.3607 -0.1726
16758TIP3    H171689   6.053   3.986  14.534  0.6151  0.1291 -1.6624
16758TIP3    H271690   6.070   3.841  14.571  0.5463  0.6317  0.3632
16759TIP3   OH271691   5.319   4.588   1.226  0.0543 -0.3255  0.0100
16759TIP3    H171692   5.330   4.629   1.141 -0.4751  0.0247  0.1040
16759TIP3    H271693   5.360   4.649   1.288  1.1978 -0.9915 -0.0826
16760TIP3   OH271694   3.214   0.142   1.536 -0.2078  0.0880  0.1352
16760TIP3    H171695   3.137   0.158   1.481 -0.2776 -0.5076  0.0572
16760TIP3    H271696   3.285   0.190   1.492 -0.4067  0.1597 -0.1069
16761TIP3   OH271697   4.967   4.381   0.352 -0.0591  0.0638 -0.1727
16761TIP3    H171698   5.033   4.320   0.320  0.1707 -0.2133  0.8325
16761TIP3    H271699   4.915   4.331   0.414 -1.9065 -0.0294 -1.7385
16762TIP3   OH271700   4.196   0.568  10.558  0.1027  0.4942 -0.3980
16762TIP3    H171701   4.175   0.655  10.594  2.6150 -0.0170  2.5384
16762TIP3    H271702   4.287   0.576  10.528  0.1564 -0.9457 -0.6302
16763TIP3   OH271703   2.605   1.399   4.321  0.4715  0.4509 -0.1498
16763TIP3    H171704   2.674   1.458   4.350  0.2184  0.8476 -0.3511
16763TIP3    H271705   2.614   1.322   4.377  1.0402  0.5235 -0.1395
16764TIP3   OH271706   3.741   0.605  11.889 -0.3980  0.8580 -0.4864
16764TIP3    H171707   3.719   0.531  11.832  2.2512 -0.9870  0.7982
16764TIP3    H271708   3.833   0.623  11.872  0.2590  0.7786  2.5769
16765TIP3   OH271709   4.362   3.765  14.113 -0.2232 -0.3647 -0.2798
16765TIP3    H171710   4.449   3.805  14.108 -0.8513  1.3096  1.4647
16765TIP3    H271711   4.321   3.787  14.029  0.4165  0.3483 -0.4210
16766TIP3   OH271712   5.592   0.493  14.950  0.1341  0.0966  0.6994
16766TIP3    H171713   5.591   0.405  14.988  2.4519 -1.2374 -2.1399
16766TIP3    H271714   5.511   0.498  14.900  0.0861 -0.5085  0.7061
16767TIP3   OH271715   0.065   6.070   0.011 -1.4727  0.0013 -0.1582
16767TIP3    H171716   0.031   5.984   0.034 -2.0205  0.2235 -0.1276
16767TIP3    H271717   0.140   6.052  -0.046 -1.7405 -0.4885 -0.3572
16768TIP3   OH271718   1.486   1.515  15.837 -0.3616 -0.0211 -0.6061
16768TIP3    H171719   1.398   1.494  15.867 -0.4193 -1.9442 -2.0438
16768TIP3    H271720   1.522   1.432  15.808  0.8807  1.2191 -2.7166
16769TIP3   OH271721   1.652   2.069   0.967 -0.7931 -0.3122 -0.1057
16769TIP3    H171722   1.719   2.085   0.900  0.4831 -0.5184  1.0923
16769TIP3    H271723   1.574   2.045   0.918 -0.2672  0.9202 -1.5750
16770TIP3   OH271724   2.191   3.978   2.629 -0.4523  0.5072  0.0153
16770TIP3    H171725   2.184   4.020   2.543 -1.3307  2.8405  1.1829
16770TIP3    H271726   2.225   4.046   2.686 -0.5414 -0.8134  1.6865
16771TIP3   OH271727   3.385   4.292  13.055  0.1069  0.0070  0.4375
16771TIP3    H171728   3.406   4.385  13.049  1.9118 -0.2372  2.3881
16771TIP3    H271729   3.290   4.289  13.063  0.1821  1.8118  2.3113
16772TIP3   OH271730   3.428   4.573   6.169 -0.1693  0.0983 -0.1455
16772TIP3    H171731   3.468   4.490   6.142  0.1591 -0.0732  0.8533
16772TIP3    H271732   3.379   4.552   6.249 -0.5943  0.7366 -0.2350
16773TIP3   OH271733   6.404   3.453   0.687  0.2249  0.7703 -0.0881
16773TIP3    H171734   6.357   3.503   0.620 -0.4675  0.4297  0.1349
16773TIP3    H271735   6.487   3.429   0.645 -0.6466 -0.3413 -1.2023
16774TIP3   OH271736   2.699   4.151   1.089 -0.3989 -0.1449 -0.2691
16774TIP3    H171737   2.696   4.092   1.013 -0.5354 -0.8982  0.3106
16774TIP3    H271738   2.613   4.193   1.090 -0.2038  0.2625 -0.8450
16775TIP3   OH271739   4.048   3.884  13.646  0.1824 -0.1243 -0.0961
16775TIP3    H171740   3.957   3.866  13.671  0.5766 -1.4249  0.4164
16775TIP3    H271741   4.084   3.799  13.623  0.1560  0.8557 -4.1307
16776TIP3   OH271742   1.585   6.781  16.937  0.1603  0.0579  0.0254
16776TIP3    H171743   1.660   6.723  16.946 -1.1756 -2.0015 -1.7421
16776TIP3    H271744   1.530   6.763  17.014 -0.0529 -0.7038 -0.3098
16777TIP3   OH271745   1.976   3.090   3.191 -0.2140 -0.3020  0.2365
16777TIP3    H171746   1.987   3.010   3.243 -0.4337 -0.3454  0.2169
16777TIP3    H271747   1.891   3.080   3.149 -0.4695  0.1625  0.6279
16778TIP3   OH271748   4.082   5.245   4.234  0.4832  0.4843 -0.0229
16778TIP3    H171749   4.043   5.212   4.315  0.8417  0.4601  0.1389
16778TIP3    H271750   4.137   5.318   4.263  1.4470 -0.1990 -0.1235
16779TIP3   OH271751   2.150   3.648  17.216 -0.0355  0.3188 -0.4493
16779TIP3    H171752   2.094   3.574  17.236  0.3706  0.1176 -0.0509
16779TIP3    H271753   2.130   3.713  17.283  0.2379  0.2300 -0.2810
16780TIP3   OH271754   4.933   3.305   5.890  0.6638  0.1790 -0.2954
16780TIP3    H171755   5.008   3.349   5.930  0.2278  2.7068 -2.1506
16780TIP3    H271756   4.920   3.350   5.806 -3.7204  0.6775  0.5342
16781TIP3   OH271757   1.959   5.392   4.468  0.3492 -0.2847 -0.7255
16781TIP3    H171758   1.888   5.455   4.485  0.5855 -0.1056 -0.4005
16781TIP3    H271759   2.028   5.416   4.530  0.7430 -0.3892 -1.1218
16782TIP3   OH271760   3.528   1.233  12.207 -0.6128  0.7454 -0.0103
16782TIP3    H171761   3.541   1.167  12.275  0.1713  1.9000  0.9777
16782TIP3    H271762   3.433   1.234  12.192 -0.6884 -0.2088  0.3499
16783TIP3   OH271763   3.687   2.771  11.152 -0.1407 -0.4991  0.7073
16783TIP3    H171764   3.725   2.805  11.072 -0.7221  0.1031  0.6812
16783TIP3    H271765   3.759   2.725  11.195 -0.1569 -1.9408 -0.7729
16784TIP3   OH271766   4.147   1.597   1.041  0.1688 -0.0438  0.2049
16784TIP3    H171767   4.069   1.561   1.083  0.3586  0.3502  0.9108
16784TIP3    H271768   4.124   1.687   1.019 -0.4700 -0.7145 -2.0006
16785TIP3   OH271769   4.040   4.539   2.813 -0.0731 -0.1752  0.2155
16785TIP3    H171770   4.073   4.449   2.812  1.2309  0.2843 -0.1397
16785TIP3    H271771   4.044   4.567   2.721 -0.2807  0.3002  0.3483
16786TIP3   OH271772   0.409   2.517   2.884  0.1454 -0.2202 -0.0917
16786TIP3    H171773   0.433   2.453   2.816  0.1998 -0.5747  0.2639
16786TIP3    H271774   0.339   2.569   2.844  0.1299 -0.4723 -0.3965
16787TIP3   OH271775   3.325   6.182  10.873 -0.0324  0.4640 -0.5690
16787TIP3    H171776   3.325   6.181  10.777  0.3354 -0.9482 -0.5550
16787TIP3    H271777   3.393   6.121  10.898 -1.3142 -0.5162  0.6159
16788TIP3   OH271778   2.435   1.673   2.345 -0.3447 -0.1125 -0.3878
16788TIP3    H171779   2.465   1.678   2.436  0.4564  1.6991 -0.7352
16788TIP3    H271780   2.505   1.626   2.300  0.9011  1.9973 -0.7197
16789TIP3   OH271781   1.426   5.145   1.056  0.1207  0.3261 -0.1757
16789TIP3    H171782   1.433   5.062   1.103 -1.7019  0.2835  0.0605
16789TIP3    H271783   1.356   5.131   0.992  2.8061  0.2586 -3.2310
16790TIP3   OH271784   5.276   4.047  10.766  1.0345  0.0129 -0.0049
16790TIP3    H171785   5.311   3.958  10.769  0.0130 -0.3577  2.2881
16790TIP3    H271786   5.207   4.047  10.833 -0.0626  2.0722 -1.1002
16791TIP3   OH271787   1.875   4.295  12.620 -0.0129  0.1882 -0.2507
16791TIP3    H171788   1.794   4.273  12.574 -0.8629  3.0124 -0.2177
16791TIP3    H271789   1.945   4.275  12.558 -0.7291 -2.0371 -0.3779
16792TIP3   OH271790   3.627   1.903  15.444 -0.2366 -0.0388 -0.0325
16792TIP3    H171791   3.531   1.908  15.450 -0.4422 -2.2318 -0.8750
16792TIP3    H271792   3.644   1.881  15.353  0.9395 -1.6090  0.5326
16793TIP3   OH271793   3.233   2.029   0.637  0.4957 -0.3706  0.0761
16793TIP3    H171794   3.194   2.076   0.563  1.3121 -0.2628 -0.2886
16793TIP3    H271795   3.323   2.011   0.610  0.7230 -0.5682  0.9370
16794TIP3   OH271796   4.001   3.978   2.683 -0.3760 -0.4019 -0.2095
16794TIP3    H171797   3.942   4.041   2.725 -2.1102 -0.2132 -2.8167
16794TIP3    H271798   4.055   4.032   2.625 -0.1258 -1.0353 -0.5628
16795TIP3   OH271799   0.361   6.071  12.867 -0.2910  0.5915  0.0764
16795TIP3    H171800   0.279   6.040  12.905 -0.6615 -0.2645 -1.3473
16795TIP3    H271801   0.410   5.991  12.849  0.3657  1.0370 -0.1312
16796TIP3   OH271802   6.042   6.708  10.897 -0.3972 -0.1261 -0.4678
16796TIP3    H171803   5.949   6.730  10.882 -1.5511 -2.2935  2.9083
16796TIP3    H271804   6.084   6.793  10.911 -1.9419  0.8514 -1.4894
16797TIP3   OH271805   2.263   0.636   6.591  0.7945 -0.6060 -0.5470
16797TIP3    H171806   2.235   0.557   6.545  0.3349 -0.5252 -0.4147
16797TIP3    H271807   2.329   0.676   6.534  1.5018 -1.4288 -0.3069
16798TIP3   OH271808   4.057   6.656  13.844 -0.2131  0.6069 -0.3035
16798TIP3    H171809   3.983   6.703  13.807 -0.9570 -0.6463 -0.4352
16798TIP3    H271810   4.038   6.564  13.828  1.2045  0.2484 -0.0237
16799TIP3   OH271811   0.587   3.571   3.278 -0.1598  0.6149 -0.6695
16799TIP3    H171812   0.641   3.537   3.349  0.7858  0.1649 -1.5885
16799TIP3    H271813   0.517   3.620   3.322 -0.4546 -0.9302  0.6057
16800TIP3   OH271814   6.461   0.794   0.750 -0.7358  0.0555  0.0231
16800TIP3    H171815   6.486   0.779   0.841 -1.4639  0.9896  0.3781
16800TIP3    H271816   6.507   0.874   0.725 -2.1886  0.9849  0.2393
16801TIP3   OH271817   6.767   6.530   1.319  0.5992  0.0722 -0.0064
16801TIP3    H171818   6.738   6.583   1.244 -0.0793 -0.6742 -0.2888
16801TIP3    H271819   6.853   6.499   1.294  0.4613 -0.0050 -0.3920
16802TIP3   OH271820   4.295   3.330   3.908  0.4815  0.2743  0.1060
16802TIP3    H171821   4.362   3.312   3.842  0.0412  0.9235 -0.5198
16802TIP3    H271822   4.342   3.374   3.979  1.3905 -2.3988  1.2268
16803TIP3   OH271823   3.480   4.257  17.063  0.1156 -0.3966  0.8119
16803TIP3    H171824   3.410   4.257  16.997  1.4935  1.2148 -0.6949
16803TIP3    H271825   3.530   4.178  17.044  0.4472  0.0072 -0.0404
16804TIP3   OH271826   4.128   2.602  13.359 -0.4788 -0.1968 -0.0478
16804TIP3    H171827   4.170   2.518  13.339  0.5064  0.2501  0.1336
16804TIP3    H271828   4.186   2.643  13.422 -0.5335  1.0000 -0.7767
16805TIP3   OH271829   4.396   1.310   1.603 -0.2157 -0.2992 -0.1388
16805TIP3    H171830   4.491   1.309   1.614 -0.2437  1.4247  0.3937
16805TIP3    H271831   4.383   1.292   1.510  0.6455 -0.2986 -0.2663
16806TIP3   OH271832   0.192   2.279  10.828  0.1191  0.1366 -0.4175
16806TIP3    H171833   0.156   2.364  10.802 -3.0980 -0.1359  2.7147
16806TIP3    H271834   0.203   2.286  10.923  1.3517 -2.4299 -0.3379
16807TIP3   OH271835   6.071   1.294  13.083  0.7955  0.3055  0.0838
16807TIP3    H171836   6.018   1.339  13.149 -1.0872 -2.0840  0.2746
16807TIP3    H271837   6.074   1.203  13.112  0.6818 -0.6190 -2.6361
16808TIP3   OH271838   6.081   1.517  13.758 -0.4826 -0.3893  0.2405
16808TIP3    H171839   6.088   1.595  13.813 -1.8521  0.5117 -0.8194
16808TIP3    H271840   6.064   1.551  13.670  0.7927 -1.8330 -0.5898
16809TIP3   OH271841   0.699   5.035  13.724  0.0911  0.8981  0.3008
16809TIP3    H171842   0.657   5.057  13.807  0.3445  1.9419  0.1551
16809TIP3    H271843   0.630   5.047  13.658  0.0838  0.7504  0.2822
16810TIP3   OH271844   4.576   5.239  13.368  0.2159 -0.1983 -0.6130
16810TIP3    H171845   4.481   5.225  13.365  0.2065  0.1596 -2.7733
16810TIP3    H271846   4.588   5.329  13.338  1.1077  0.5462  1.8438
16811TIP3   OH271847   5.565   2.874   1.449 -0.3749  0.3455  0.0192
16811TIP3    H171848   5.636   2.810   1.453 -1.0814 -0.4000  0.7617
16811TIP3    H271849   5.572   2.922   1.532 -0.2324  0.8211 -0.2657
16812TIP3   OH271850   0.259   4.909  10.931  0.1783 -0.2978 -0.2488
16812TIP3    H171851   0.338   4.858  10.914  0.4343  0.4769 -1.4689
16812TIP3    H271852   0.243   4.899  11.024  2.6387  0.8115  0.3333
16813TIP3   OH271853   6.217   1.239  11.421 -0.2678 -0.0215 -0.6037
16813TIP3    H171854   6.283   1.245  11.352  1.0170 -1.5697  0.4552
16813TIP3    H271855   6.259   1.279  11.497 -0.4120 -1.2772  0.1535
16814TIP3   OH271856   4.827   6.643  14.334  0.2836 -0.6817 -0.5473
16814TIP3    H171857   4.764   6.622  14.403 -1.2106 -1.7474 -2.1846
16814TIP3    H271858   4.901   6.584  14.350 -0.5767 -1.7792 -0.5517
16815TIP3   OH271859   6.017   4.236   4.815 -0.2904  0.1892  0.2394
16815TIP3    H171860   5.986   4.270   4.899 -1.2891  0.6221 -0.2989
16815TIP3    H271861   6.060   4.310   4.774 -0.0732  0.0606  0.2361
16816TIP3   OH271862   1.434   0.829   3.447  0.3493 -0.0927  0.5268
16816TIP3    H171863   1.355   0.799   3.493 -0.4890 -2.4541 -2.2745
16816TIP3    H271864   1.505   0.776   3.483  0.1670  0.0446  1.0838
16817TIP3   OH271865   3.574   2.524   2.515 -0.5565  0.7889  0.0624
16817TIP3    H171866   3.587   2.430   2.504 -1.4017  0.6018  0.6549
16817TIP3    H271867   3.607   2.562   2.433 -0.3786 -0.0309 -0.2533
16818TIP3   OH271868   4.371   1.136   2.075  0.0107 -0.6779  0.0680
16818TIP3    H171869   4.402   1.224   2.055  0.7629 -0.4631  2.0968
16818TIP3    H271870   4.334   1.104   1.992 -1.1658  1.8837 -0.4259
16819TIP3   OH271871   6.553   1.448  13.148  0.3054 -0.4738  0.7196
16819TIP3    H171872   6.477   1.409  13.105 -0.4223  1.9378 -0.2416
16819TIP3    H271873   6.538   1.433  13.241 -1.3624 -0.0174  0.5435
16820TIP3   OH271874   6.279   4.423  12.668 -0.0227  0.7299 -0.4950
16820TIP3    H171875   6.351   4.463  12.618  0.6085 -1.4576 -1.3938
16820TIP3    H271876   6.306   4.430  12.759  0.0611  2.3592 -0.6337
16821TIP3   OH271877   3.560   0.207  15.160  0.4210 -0.1084  0.4560
16821TIP3    H171878   3.617   0.149  15.211  1.0325  0.1689  0.0944
16821TIP3    H271879   3.526   0.270  15.224  3.6706  2.2159  0.0291
16822TIP3   OH271880   2.014   2.476  16.754 -0.1407  0.2042 -0.0643
16822TIP3    H171881   2.106   2.458  16.776  0.2031  1.8530 -0.0648
16822TIP3    H271882   2.018   2.518  16.668 -0.8419  0.7701  0.1726
16823TIP3   OH271883   2.836   3.579  15.011  1.1327  0.3183 -0.3420
16823TIP3    H171884   2.850   3.553  15.102  1.8275 -0.5082 -0.6868
16823TIP3    H271885   2.745   3.552  14.993  1.7196 -1.5578 -0.5804
16824TIP3   OH271886   5.550   2.450   0.337 -0.2375  0.0155  0.4032
16824TIP3    H171887   5.594   2.417   0.415 -1.3886  1.2218  1.6042
16824TIP3    H271888   5.457   2.444   0.358 -0.6494 -1.7097 -1.7586
16825TIP3   OH271889   5.880   0.405   5.787 -0.0800 -0.5396 -0.5501
16825TIP3    H171890   5.860   0.420   5.879  0.8475 -0.0274 -0.4178
16825TIP3    H271891   5.857   0.486   5.744  0.3435 -0.4516 -0.6172
16826TIP3   OH271892   1.801   1.445   4.260 -0.3402  0.2416  0.0271
16826TIP3    H171893   1.890   1.415   4.276 -0.2694  0.8278  0.7987
16826TIP3    H271894   1.809   1.511   4.192 -0.4002 -0.9152 -1.1179
16827TIP3   OH271895   4.225   5.918   5.254 -0.3767  0.5658  0.0540
16827TIP3    H171896   4.277   5.859   5.309 -1.0521 -0.2647 -0.1942
16827TIP3    H271897   4.290   5.974   5.212  0.3346 -0.4681 -0.2490
16828TIP3   OH271898   1.922   2.028   5.125 -0.2310  0.0751  0.3544
16828TIP3    H171899   1.855   2.050   5.190 -2.4573 -2.1814 -1.0363
16828TIP3    H271900   1.898   2.078   5.047 -0.8004 -1.3055 -0.3856
16829TIP3   OH271901   6.694   1.515   4.370 -0.2727 -0.2281 -0.2561
16829TIP3    H171902   6.704   1.431   4.324  0.2621 -0.2288 -0.1422
16829TIP3    H271903   6.720   1.496   4.460 -4.4965 -1.0538  0.8989
16830TIP3   OH271904   4.595   2.190  13.831 -0.5225  0.4399 -0.0026
16830TIP3    H171905   4.626   2.178  13.742  0.7188 -1.3432  0.6300
16830TIP3    H271906   4.507   2.151  13.832 -0.3069 -0.0487 -0.3043
16831TIP3   OH271907   3.553   2.091   4.567  0.0568  0.4485 -0.3921
16831TIP3    H171908   3.594   2.005   4.553 -0.4844  0.0573  0.3695
16831TIP3    H271909   3.613   2.137   4.626 -0.8569 -0.3434  1.1998
16832TIP3   OH271910   6.730   2.792   2.949 -0.0512  0.1526  0.1293
16832TIP3    H171911   6.653   2.793   2.892 -0.5662 -1.4479  0.7509
16832TIP3    H271912   6.781   2.868   2.922 -1.1414  0.4125 -1.2770
16833TIP3   OH271913   2.359   5.609   3.142 -0.5892 -0.0859 -0.2976
16833TIP3    H171914   2.439   5.662   3.142 -0.8291  0.2758 -0.5986
16833TIP3    H271915   2.288   5.672   3.156 -0.7948 -0.4521  0.3293
16834TIP3   OH271916   4.670   4.642   2.137 -0.2688  0.3637 -0.0278
16834TIP3    H171917   4.706   4.568   2.184 -2.0523 -1.1393 -0.9404
16834TIP3    H271918   4.729   4.654   2.062  0.9891  0.9836  1.0489
16835TIP3   OH271919   2.164   1.656   1.297  0.2838 -0.6917  0.7764
16835TIP3    H171920   2.104   1.685   1.366  0.0176  0.1361  0.2041
16835TIP3    H271921   2.151   1.719   1.226  1.6548 -0.6687  0.5474
16836TIP3   OH271922   6.716   2.067  13.847 -0.3266  0.5085  0.2871
16836TIP3    H171923   6.709   2.162  13.852 -1.9463  0.6129 -2.7290
16836TIP3    H271924   6.801   2.050  13.808  0.6866  0.6302  2.3985
16837TIP3   OH271925   2.154   6.192  14.588 -0.1423 -0.0509 -0.5316
16837TIP3    H171926   2.167   6.166  14.680 -1.5159 -0.4162 -0.4265
16837TIP3    H271927   2.095   6.267  14.593  0.5382  0.5193 -1.0732
16838TIP3   OH271928   2.884   4.066  16.172  0.6818 -0.4633 -0.0096
16838TIP3    H171929   2.908   4.153  16.139 -3.0343  0.6856 -0.0190
16838TIP3    H271930   2.840   4.024  16.098  0.8177 -1.6413  0.5634
16839TIP3   OH271931   6.331   6.366  10.503 -0.7942 -0.4197  0.0332
16839TIP3    H171932   6.277   6.405  10.572  0.6519  0.4598  0.7111
16839TIP3    H271933   6.408   6.423  10.499 -0.0139 -1.5330 -1.0336
16840TIP3   OH271934   6.424   3.786   1.736  0.1846  0.0157  0.3877
16840TIP3    H171935   6.398   3.780   1.827  0.0795 -1.5695  0.2740
16840TIP3    H271936   6.428   3.695   1.706  2.2516  0.3841 -0.5994
16841TIP3   OH271937   2.771   3.651   4.314 -0.6389 -0.2182  0.3055
16841TIP3    H171938   2.740   3.726   4.263  1.7560  0.5399 -0.0720
16841TIP3    H271939   2.797   3.687   4.398  2.2583 -0.2732 -0.5120
16842TIP3   OH271940   1.727   1.497   0.019  0.3117 -0.3018 -0.7224
16842TIP3    H171941   1.734   1.566  -0.047 -1.0379  0.2769 -0.2880
16842TIP3    H271942   1.659   1.439  -0.015  1.4412 -1.4267 -1.0827
16843TIP3   OH271943   6.630   1.849  13.212  0.3744  0.1915 -0.2712
16843TIP3    H171944   6.558   1.825  13.154  0.6441 -0.4830 -0.3352
16843TIP3    H271945   6.629   1.945  13.214 -1.2422  0.1704  0.6352
16844TIP3   OH271946   5.259   1.568  13.746 -0.1886  0.4056  0.0200
16844TIP3    H171947   5.272   1.473  13.739  0.2392  0.3034  1.9045
16844TIP3    H271948   5.339   1.606  13.708 -0.2018  0.0027 -0.4129
16845TIP3   OH271949   6.471   4.520  14.811  0.0801 -0.0195  0.2072
16845TIP3    H171950   6.484   4.578  14.737  3.0787  0.9050  1.3563
16845TIP3    H271951   6.409   4.565  14.868 -0.4306  0.3443 -0.6438
16846TIP3   OH271952   2.910   3.119  12.910 -0.0845 -0.5988 -0.2208
16846TIP3    H171953   2.905   3.118  12.814 -0.2084  3.1023 -0.3339
16846TIP3    H271954   2.986   3.175  12.929 -1.4822  0.6437  1.8312
16847TIP3   OH271955   1.210   2.811  12.799 -0.4866 -0.4233  0.5204
16847TIP3    H171956   1.166   2.752  12.860 -1.4696 -0.4407 -0.1991
16847TIP3    H271957   1.173   2.790  12.714  1.0013 -0.5193 -0.1189
16848TIP3   OH271958   1.869   6.784  16.380 -0.3602 -0.4066 -0.5735
16848TIP3    H171959   1.848   6.747  16.294 -0.0235 -1.2375 -0.3021
16848TIP3    H271960   1.867   6.879  16.366 -4.1731 -0.4243 -0.5786
16849TIP3   OH271961   3.604   0.501   3.237 -0.6119 -0.4213  0.3988
16849TIP3    H171962   3.690   0.471   3.263 -1.6999 -1.7545  2.5333
16849TIP3    H271963   3.552   0.421   3.228 -2.2500  0.5135  1.4158
16850TIP3   OH271964   0.063   6.305  16.288 -0.4672 -0.0227 -0.2953
16850TIP3    H171965  -0.014   6.251  16.272 -1.3210  0.9798  0.3497
16850TIP3    H271966   0.121   6.287  16.214 -0.7030 -1.8674 -0.0529
16851TIP3   OH271967   3.522   4.436  12.670  0.4215  0.2062 -0.1206
16851TIP3    H171968   3.500   4.525  12.698 -1.3684 -0.2199 -0.0982
16851TIP3    H271969   3.480   4.379  12.735  0.1821 -0.6780 -1.0216
16852TIP3   OH271970   0.871   3.501   3.211  0.4089 -0.3915 -0.0283
16852TIP3    H171971   0.776   3.492   3.210  0.3146  0.6112 -1.6797
16852TIP3    H271972   0.897   3.464   3.296 -1.6306  1.0887  1.3172
16853TIP3   OH271973   0.716   2.571   5.063 -0.4138 -0.1046  0.0393
16853TIP3    H171974   0.768   2.648   5.086  1.0130 -0.7249 -1.0232
16853TIP3    H271975   0.705   2.523   5.145 -1.1057  1.1083  0.6585
16854TIP3   OH271976   3.367   3.468  14.145 -0.0819  0.7170 -0.2347
16854TIP3    H171977   3.332   3.539  14.199 -1.9277  0.2771 -0.8119
16854TIP3    H271978   3.324   3.479  14.060 -0.3092 -0.9967 -0.3649
16855TIP3   OH271979   1.093   1.163  12.035 -0.1410  0.1608 -0.5599
16855TIP3    H171980   1.081   1.102  12.108  2.2898 -0.2319 -0.4544
16855TIP3    H271981   1.009   1.162  11.990 -0.7737 -1.7880  0.5753
16856TIP3   OH271982   4.215   6.359   5.557 -0.1726 -0.0984  0.5058
16856TIP3    H171983   4.269   6.280   5.551  0.2404  0.3197 -1.5147
16856TIP3    H271984   4.241   6.398   5.640  1.3072 -0.8836  0.4314
16857TIP3   OH271985   4.919   4.521  13.629  0.4632  0.0056 -0.0844
16857TIP3    H171986   5.003   4.566  13.617  1.3843 -1.7027 -0.2780
16857TIP3    H271987   4.943   4.439  13.672 -0.7310 -1.8854 -2.9038
16858TIP3   OH271988   2.412   4.575   4.771  0.0137 -0.1590 -0.2573
16858TIP3    H171989   2.409   4.538   4.683 -0.9481  0.3296 -0.4391
16858TIP3    H271990   2.498   4.617   4.776 -0.2551  0.5634 -1.2862
16859TIP3   OH271991   6.021   2.411   4.923  0.2454  0.3012  0.2475
16859TIP3    H171992   6.041   2.323   4.954 -0.1610 -0.0364 -0.4247
16859TIP3    H271993   6.088   2.428   4.857 -0.8292 -0.2918 -1.0280
16860TIP3   OH271994   5.778   0.743   1.226 -0.8928  0.1325  0.5303
16860TIP3    H171995   5.760   0.821   1.279 -3.2865 -0.3789  0.4953
16860TIP3    H271996   5.709   0.681   1.249  0.2888 -1.5462 -0.3447
16861TIP3   OH271997   3.538   6.436   0.303  0.2257  0.0550  0.0797
16861TIP3    H171998   3.523   6.432   0.398 -1.3552  0.4705 -0.1534
16861TIP3    H271999   3.521   6.347   0.273 -1.6543  0.4863 -0.1604
16862TIP3   OH272000   1.245   0.402   6.122  0.1598 -0.2646  0.2039
16862TIP3    H172001   1.219   0.314   6.094 -1.2760  0.2900 -0.2806
16862TIP3    H272002   1.195   0.417   6.203  1.3097 -0.3499  0.9360
16863TIP3   OH272003   3.202   5.757  16.397  0.3537 -0.1577 -0.2110
16863TIP3    H172004   3.170   5.769  16.308 -1.5882 -0.0810  0.4803
16863TIP3    H272005   3.227   5.665  16.401  1.3363  0.0529 -1.0919
16864TIP3   OH272006   4.747   4.180  15.595  0.2022 -0.1817  0.3246
16864TIP3    H172007   4.738   4.131  15.513 -2.0882 -0.5355  0.7567
16864TIP3    H272008   4.769   4.114  15.661  2.1241  0.1134  0.0145
16865TIP3   OH272009   6.529   5.049   5.717 -0.2096  0.4127  0.4732
16865TIP3    H172010   6.615   5.083   5.693 -0.3530  0.3591 -0.1203
16865TIP3    H272011   6.480   5.047   5.635 -0.2827 -0.9771  0.5390
16866TIP3   OH272012   5.339   5.908   3.485 -0.9658 -0.0099 -0.3649
16866TIP3    H172013   5.428   5.934   3.459 -0.9163 -0.0764 -0.2637
16866TIP3    H272014   5.352   5.849   3.559 -1.0659 -0.5050 -0.7353
16867TIP3   OH272015   4.957   2.343  15.061  1.1885  0.3106 -0.1442
16867TIP3    H172016   5.018   2.306  14.997 -0.0665 -0.9388 -0.6460
16867TIP3    H272017   4.881   2.285  15.058 -0.6355  2.6335 -0.5717
16868TIP3   OH272018   5.495   1.040   1.599  0.4529 -0.2427  0.0173
16868TIP3    H172019   5.486   1.109   1.663 -0.6263  1.1601 -1.6055
16868TIP3    H272020   5.522   0.963   1.649 -0.2716  0.8511  2.0996
16869TIP3   OH272021   2.260   0.044  10.751  0.2873 -0.2088 -0.2878
16869TIP3    H172022   2.168   0.040  10.724  0.1411 -1.5943  0.3618
16869TIP3    H272023   2.290   0.130  10.722 -1.3586  0.4655 -0.0564
16870TIP3   OH272024   1.506   6.373   6.078  0.2822  0.0893 -0.0485
16870TIP3    H172025   1.484   6.288   6.040  0.4246 -0.7030  1.5971
16870TIP3    H272026   1.425   6.424   6.072 -0.3890 -0.8617  0.8167
16871TIP3   OH272027   0.922   6.572   0.156 -0.2657  0.4813  0.3033
16871TIP3    H172028   1.001   6.519   0.152  0.4513  1.5362  0.4711
16871TIP3    H272029   0.947   6.650   0.205 -1.8570  0.0478  1.8678
16872TIP3   OH272030   3.077   3.053   5.370  0.0924 -0.1371 -0.4801
16872TIP3    H172031   2.985   3.075   5.360 -0.1620 -1.0425 -0.2170
16872TIP3    H272032   3.124   3.127   5.333 -0.6664  2.1076  2.8067
16873TIP3   OH272033   6.506   1.979   3.910 -0.4449 -0.4551 -0.7215
16873TIP3    H172034   6.575   2.036   3.877 -0.4944  0.2152  0.3036
16873TIP3    H272035   6.552   1.903   3.945 -0.1899  0.1218  0.2232
16874TIP3   OH272036   6.622   2.459  14.532  0.4721  0.1770 -0.4396
16874TIP3    H172037   6.696   2.407  14.562  0.6436  0.1843 -0.8432
16874TIP3    H272038   6.658   2.511  14.460  0.4614  1.2928  0.3456
16875TIP3   OH272039   4.351   4.330  11.034 -0.2029 -0.4335  0.2497
16875TIP3    H172040   4.386   4.257  11.085  0.6839  0.1362  0.4763
16875TIP3    H272041   4.395   4.324  10.950 -0.1471 -0.1739  0.2598
16876TIP3   OH272042   2.240   4.304  15.626 -0.0315  0.2271 -0.2493
16876TIP3    H172043   2.226   4.237  15.559 -1.3610  0.1395  0.0899
16876TIP3    H272044   2.204   4.384  15.587 -1.0799  0.1109  0.4539
16877TIP3   OH272045   2.589   4.040  11.298  0.1934 -0.3824 -0.1601
16877TIP3    H172046   2.555   4.130  11.299  0.4957 -0.2159 -1.9507
16877TIP3    H272047   2.683   4.051  11.280  0.4154 -1.0130  0.6136
16878TIP3   OH272048   1.654   3.643  16.732  0.4342  0.8921  0.5411
16878TIP3    H172049   1.597   3.713  16.763 -0.3613  0.5681 -0.1664
16878TIP3    H272050   1.594   3.571  16.712  0.9956  0.8357 -1.0175
16879TIP3   OH272051   1.455   2.088  17.170  0.3640  0.7947 -0.3442
16879TIP3    H172052   1.459   2.146  17.246 -1.7101  0.5386 -0.0090
16879TIP3    H272053   1.384   2.027  17.191  0.8804 -0.3185 -1.7672
16880TIP3   OH272054   0.364   1.308   4.256  0.4157 -0.1763 -0.4758
16880TIP3    H172055   0.304   1.237   4.236  0.8097 -0.4070 -0.8643
16880TIP3    H272056   0.425   1.309   4.182  0.8044  0.1389 -0.1533
16881TIP3   OH272057   1.974   0.389   3.784 -0.2499 -0.2292  0.0708
16881TIP3    H172058   1.998   0.315   3.840  2.9247  0.9380  0.3563
16881TIP3    H272059   1.952   0.460   3.845  1.0739  0.3796 -0.1396
16882TIP3   OH272060   4.318   4.099  15.674 -0.6322  0.0783 -0.1410
16882TIP3    H172061   4.245   4.096  15.737 -0.1433  0.2625  0.4465
16882TIP3    H272062   4.372   4.172  15.705  2.2678 -2.8839  2.2195
16883TIP3   OH272063   4.026   6.277   4.636  0.4521  0.4109 -0.2988
16883TIP3    H172064   4.056   6.348   4.579 -0.3287  1.2579  0.3198
16883TIP3    H272065   3.930   6.277   4.626  0.4789 -0.8635 -0.6439
16884TIP3   OH272066   1.173   2.010   0.142  0.3257 -0.2433  0.1667
16884TIP3    H172067   1.207   1.929   0.103 -0.3927 -0.4491 -0.0357
16884TIP3    H272068   1.131   1.981   0.223  1.2646  0.1044  0.7869
16885TIP3   OH272069   0.891   3.416  17.176  0.7513  0.0415 -0.6953
16885TIP3    H172070   0.938   3.413  17.260  0.3915  0.6669 -0.4681
16885TIP3    H272071   0.946   3.366  17.116  1.4420  0.3067 -0.2941
16886TIP3   OH272072   4.382   5.024  16.557 -0.3276  0.3576 -0.2256
16886TIP3    H172073   4.320   4.955  16.581 -0.2857 -0.3955 -2.1568
16886TIP3    H272074   4.464   4.978  16.543 -0.3005  0.7898 -1.5366
16887TIP3   OH272075   0.758   5.193   0.816 -0.1108  0.5853 -0.2694
16887TIP3    H172076   0.706   5.223   0.741 -1.7535 -1.0447  0.1912
16887TIP3    H272077   0.843   5.235   0.804 -0.2874  0.2038 -3.1469
16888TIP3   OH272078   2.541   2.929  11.862  0.2839  0.5565  0.1346
16888TIP3    H172079   2.462   2.909  11.912 -0.2071  1.2639 -0.3475
16888TIP3    H272080   2.551   2.854  11.803 -0.8139  1.0917 -0.7547
16889TIP3   OH272081   6.132   1.613   3.892  0.1318 -0.5003  0.7643
16889TIP3    H172082   6.158   1.662   3.970  2.7137 -1.4087  0.5213
16889TIP3    H272083   6.167   1.663   3.819  1.3562 -1.8015  0.4312
16890TIP3   OH272084   6.293   6.200   1.987  0.5253  0.5120 -0.2035
16890TIP3    H172085   6.308   6.166   1.899 -1.8909 -1.1100 -0.0258
16890TIP3    H272086   6.202   6.230   1.987  0.6964  1.1124  1.5414
16891TIP3   OH272087   0.159   3.901   5.743  0.1879 -0.0546  0.3585
16891TIP3    H172088   0.206   3.929   5.821 -0.6249  1.7594  0.2110
16891TIP3    H272089   0.120   3.817   5.768  1.0042 -0.1213  1.4651
16892TIP3   OH272090   2.536   0.977   0.004 -0.1838 -0.1972  0.1968
16892TIP3    H172091   2.595   1.031   0.056  0.6502 -0.1565 -0.7677
16892TIP3    H272092   2.531   0.894   0.051  1.0085 -0.3556  0.0502
16893TIP3   OH272093   1.810   1.119  12.685  0.1847  0.3013 -0.1037
16893TIP3    H172094   1.790   1.067  12.607  2.4293  1.8010 -1.7440
16893TIP3    H272095   1.803   1.057  12.757 -0.5370 -1.4635 -1.6420
16894TIP3   OH272096   6.401   5.984  15.442  0.2622  0.5286  0.0039
16894TIP3    H172097   6.318   6.031  15.439  0.3867  0.7566  0.1454
16894TIP3    H272098   6.441   5.999  15.356  0.0350  0.1930 -0.1631
16895TIP3   OH272099   2.850   5.343  16.734  0.0529  0.9394 -0.0702
16895TIP3    H172100   2.930   5.352  16.681  1.0491 -0.1487  1.2219
16895TIP3    H272101   2.810   5.263  16.702  0.1102  0.8403  0.1050
16896TIP3   OH272102   4.818   1.540  15.545 -0.1549  0.4593  0.0376
16896TIP3    H172103   4.727   1.513  15.535 -0.4342  1.4665 -0.1983
16896TIP3    H272104   4.867   1.484  15.485 -0.6764  0.2609 -0.1975
16897TIP3   OH272105   6.480   5.316   1.314 -0.1262  0.0777 -0.4135
16897TIP3    H172106   6.391   5.285   1.305 -0.1503  0.2699 -0.8760
16897TIP3    H272107   6.472   5.412   1.315  0.0351  0.0854 -0.0658
16898TIP3   OH272108   2.316   5.783   4.584 -0.2643 -0.0671 -0.6055
16898TIP3    H172109   2.411   5.790   4.592 -0.1580 -1.8015 -0.1922
16898TIP3    H272110   2.300   5.691   4.564 -2.1757 -1.0674  4.6881
16899TIP3   OH272111   2.105   6.294   0.059 -0.3000 -0.2292  0.1467
16899TIP3    H172112   2.015   6.316   0.082 -0.3846  0.5079 -0.8628
16899TIP3    H272113   2.108   6.300  -0.037  0.9361  0.1938  0.2019
16900TIP3   OH272114   0.495   5.370  13.780  0.2372 -0.3324 -0.1133
16900TIP3    H172115   0.575   5.391  13.731 -0.6360  1.3766 -0.8539
16900TIP3    H272116   0.450   5.454  13.790 -1.8340 -1.3766 -0.3715
16901TIP3   OH272117   3.654   3.665  12.769 -0.5347 -0.5309  0.0575
16901TIP3    H172118   3.674   3.582  12.726 -0.6587 -0.1163 -0.8111
16901TIP3    H272119   3.739   3.703  12.789 -0.4702 -0.3063 -0.6392
16902TIP3   OH272120   2.212   3.925   0.055 -0.5318 -0.6139 -0.1075
16902TIP3    H172121   2.225   3.857   0.122  1.6886 -1.1309 -1.0426
16902TIP3    H272122   2.300   3.945   0.024 -1.5465 -0.4791 -2.9884
16903TIP3   OH272123   6.230   2.755   5.525  0.0848 -0.5191  0.3462
16903TIP3    H172124   6.200   2.836   5.483  0.9447  0.1456  0.9876
16903TIP3    H272125   6.193   2.758   5.612  0.1292 -0.8063  0.3734
16904TIP3   OH272126   5.654   3.950  12.320 -0.0894  0.5958 -0.4385
16904TIP3    H172127   5.726   4.004  12.288 -0.8238  1.2635 -0.9620
16904TIP3    H272128   5.643   3.883  12.253  0.6447 -0.0555  0.0832
16905TIP3   OH272129   6.046   3.474   1.423  0.0603 -0.6292 -0.4202
16905TIP3    H172130   6.079   3.549   1.374  1.1320 -0.6273  0.2919
16905TIP3    H272131   6.054   3.401   1.362 -0.8579 -0.1983 -1.0674
16906TIP3   OH272132   5.252   4.655  12.455 -0.2367  0.0570 -0.0310
16906TIP3    H172133   5.234   4.744  12.424 -0.3785 -0.1464 -0.5200
16906TIP3    H272134   5.177   4.604  12.426  0.5393 -0.5313 -0.9865
16907TIP3   OH272135   0.455   0.757   1.869  0.0286  0.6800  0.3436
16907TIP3    H172136   0.417   0.670   1.870  0.4325  0.5042  0.3735
16907TIP3    H272137   0.396   0.810   1.923  0.3759  0.1804  1.2218
16908TIP3   OH272138   2.843   3.947   5.435  0.2852 -0.2181 -0.6183
16908TIP3    H172139   2.895   3.888   5.490 -0.1195 -0.3318 -0.3568
16908TIP3    H272140   2.784   3.990   5.497  1.1417  1.0674 -0.6846
16909TIP3   OH272141   3.470   1.028   1.352  0.2894  0.1713 -0.5152
16909TIP3    H172142   3.419   1.102   1.320  0.7686  0.8118  0.1971
16909TIP3    H272143   3.497   0.982   1.272 -0.5252  0.4063 -0.9325
16910TIP3   OH272144   2.747   0.805  15.630  0.1439  0.6100  0.0988
16910TIP3    H172145   2.653   0.810  15.615  0.5016  1.4808 -1.9959
16910TIP3    H272146   2.783   0.878  15.579  1.6343  2.6860  3.8843
16911TIP3   OH272147   0.192   3.917  14.110 -0.8049 -0.3705 -0.0596
16911TIP3    H172148   0.126   3.967  14.157 -1.8930 -2.3016  0.4666
16911TIP3    H272149   0.144   3.847  14.067  0.8151 -1.4094 -0.2162
16912TIP3   OH272150   3.951   4.849  13.390  1.0090  0.0310  0.3656
16912TIP3    H172151   3.922   4.785  13.325  1.1440  0.4426 -0.0982
16912TIP3    H272152   3.877   4.858  13.450  0.6424  0.1430 -0.1039
16913TIP3   OH272153   1.989   3.929  11.688 -0.2746 -0.4728 -0.3254
16913TIP3    H172154   2.010   3.957  11.599 -2.3172  0.1919 -0.6294
16913TIP3    H272155   1.986   3.833  11.683  1.4698 -0.5165 -0.5368
16914TIP3   OH272156   3.941   4.638  11.078 -0.1119 -0.4273  0.4769
16914TIP3    H172157   4.037   4.633  11.080 -0.1040  0.0291  1.4516
16914TIP3    H272158   3.920   4.657  10.986  0.7672  0.1948  0.3989
16915TIP3   OH272159   6.586   3.562   2.526 -0.2082 -0.4486 -0.6367
16915TIP3    H172160   6.652   3.513   2.476  0.1888 -0.6459  0.0840
16915TIP3    H272161   6.539   3.495   2.576 -0.4589 -0.2226 -0.5701
16916TIP3   OH272162   5.424   0.181   0.519  0.3512 -0.1499  0.4263
16916TIP3    H172163   5.448   0.234   0.595 -0.9465  0.3607  0.5007
16916TIP3    H272164   5.333   0.157   0.535  0.1844 -0.3550 -0.7918
16917TIP3   OH272165   2.658   1.878   2.187  0.3677 -0.3566  0.0512
16917TIP3    H172166   2.604   1.838   2.119  0.4724  1.0895 -0.9161
16917TIP3    H272167   2.740   1.828   2.185  0.0397 -0.8895 -0.2706
16918TIP3   OH272168   2.335   5.757   4.066 -0.0862  0.0309  1.3100
16918TIP3    H172169   2.258   5.732   4.015  0.9650  0.1824 -0.4023
16918TIP3    H272170   2.307   5.748   4.158 -1.9145 -0.5586  0.7252
16919TIP3   OH272171   5.819   2.925  15.248  0.3239  0.1662 -0.1238
16919TIP3    H172172   5.908   2.958  15.258  1.5002 -2.2254 -2.1520
16919TIP3    H272173   5.813   2.901  15.155 -2.2725 -0.2012  0.0965
16920TIP3   OH272174   0.710   4.595   5.305  0.7173  0.0363 -0.7802
16920TIP3    H172175   0.799   4.630   5.312 -0.5392  2.9715  1.2145
16920TIP3    H272176   0.666   4.655   5.246 -0.3049 -0.6981 -0.7656
16921TIP3   OH272177   6.761   4.849  10.939 -0.3001  0.0188 -0.0070
16921TIP3    H172178   6.808   4.841  11.022 -0.1686  1.0480  0.0204
16921TIP3    H272179   6.809   4.790  10.879  2.4430  2.7303 -0.5925
16922TIP3   OH272180   2.953   0.383   4.905 -0.6871 -0.0953 -0.1383
16922TIP3    H172181   2.872   0.422   4.872 -0.2031  1.0905  0.0401
16922TIP3    H272182   3.010   0.458   4.925  0.7065 -0.9258 -0.8883
16923TIP3   OH272183   6.785   0.823  11.364  0.0167 -0.2348 -0.4479
16923TIP3    H172184   6.853   0.888  11.382 -1.4628  1.2078  0.1039
16923TIP3    H272185   6.799   0.797  11.274  0.5974  0.9277 -0.7051
16924TIP3   OH272186   4.849   5.982  10.509  0.1987 -0.0759  0.2271
16924TIP3    H172187   4.940   6.012  10.510  0.3752 -0.5883 -0.2391
16924TIP3    H272188   4.854   5.891  10.538  0.1742 -1.0025 -2.5608
16925TIP3   OH272189   5.137   5.422  15.368 -0.2496 -0.3070 -0.6925
16925TIP3    H172190   5.080   5.496  15.389  0.8566  0.3883 -0.0963
16925TIP3    H272191   5.093   5.346  15.407 -1.5606 -0.0400 -1.5992
16926TIP3   OH272192   2.773   1.450   0.691  0.0218 -1.0190 -0.3266
16926TIP3    H172193   2.824   1.453   0.610 -1.1014  1.7782 -0.9564
16926TIP3    H272194   2.768   1.541   0.720 -1.5830 -1.7102  1.6369
16927TIP3   OH272195   5.670   6.147   5.681  0.4493 -0.3009 -0.1539
16927TIP3    H172196   5.596   6.106   5.725  0.8081  0.8968  1.5992
16927TIP3    H272197   5.673   6.236   5.715  0.4923  0.7940 -2.9427
16928TIP3   OH272198   6.344   1.962  11.506  0.3089 -0.2878  0.1798
16928TIP3    H172199   6.303   1.997  11.586  2.2652  0.1661  1.0228
16928TIP3    H272200   6.284   1.894  11.476 -1.2042  0.5682  1.1907
16929TIP3   OH272201   5.656   2.947   2.875  0.0988 -0.2906 -0.0216
16929TIP3    H172202   5.599   2.875   2.849  0.8908 -1.3538  1.1395
16929TIP3    H272203   5.683   2.925   2.964  0.9470  1.0753  0.0722
16930TIP3   OH272204   1.599   4.879   1.455  0.4497 -0.2159 -0.4141
16930TIP3    H172205   1.614   4.784   1.458  1.3148 -0.0598  0.7973
16930TIP3    H272206   1.515   4.892   1.497 -0.4502 -0.5814 -2.0544
16931TIP3   OH272207   5.033   2.476   3.396  0.2703 -0.7454  0.1146
16931TIP3    H172208   5.020   2.411   3.465  0.5077  0.8334  1.6897
16931TIP3    H272209   5.128   2.480   3.385  0.1643 -2.2586 -1.5777
16932TIP3   OH272210   4.783   5.920   3.996 -0.7417 -0.3467 -0.2319
16932TIP3    H172211   4.871   5.958   3.996 -0.6294 -0.6074 -0.3890
16932TIP3    H272212   4.787   5.848   4.058 -1.2394  0.5471  0.8629
16933TIP3   OH272213   4.675   5.486  15.822 -0.1186  0.0189  0.0302
16933TIP3    H172214   4.735   5.417  15.795 -2.1645 -1.6828 -0.2286
16933TIP3    H272215   4.667   5.543  15.745  1.5854  0.5962  0.2541
16934TIP3   OH272216   5.440   2.485   1.764  0.2741 -0.2513 -0.2898
16934TIP3    H172217   5.520   2.537   1.773 -0.4721  0.7876  0.5104
16934TIP3    H272218   5.390   2.530   1.695  0.5111 -1.0838 -1.0188
16935TIP3   OH272219   0.044   1.238   1.073  0.4318 -0.3418  0.1728
16935TIP3    H172220   0.044   1.320   1.025 -0.4821 -0.9366 -0.8543
16935TIP3    H272221   0.130   1.199   1.053  0.1243 -0.5077 -0.8465
16936TIP3   OH272222   2.888   3.079  12.640  0.2289  0.0089 -0.6421
16936TIP3    H172223   2.814   3.079  12.579  0.1543 -3.3642 -0.6666
16936TIP3    H272224   2.964   3.099  12.586 -0.4695  2.1471 -0.8670
16937TIP3   OH272225   5.718   0.900  11.876  0.3398 -0.0261 -0.0290
16937TIP3    H172226   5.767   0.819  11.892 -1.1487 -0.4106  3.0980
16937TIP3    H272227   5.780   0.969  11.898 -0.0292 -0.4835  2.6617
16938TIP3   OH272228   2.563   2.165   2.761 -0.0622 -0.4200  0.4891
16938TIP3    H172229   2.553   2.149   2.855 -1.0398 -2.5974  0.0435
16938TIP3    H272230   2.514   2.245   2.745 -0.5085 -0.4357  1.7210
16939TIP3   OH272231   5.064   1.118  17.091  0.2110 -0.0676 -0.3305
16939TIP3    H172232   5.121   1.060  17.141  0.3750 -1.3449 -1.9257
16939TIP3    H272233   4.985   1.126  17.144  1.4820  0.9662  1.4556
16940TIP3   OH272234   0.605   5.096   5.941 -0.5223 -0.3945 -0.5977
16940TIP3    H172235   0.589   5.166   6.005  0.3495 -0.1223 -0.6799
16940TIP3    H272236   0.603   5.140   5.856 -1.0634 -0.6551 -0.7234
16941TIP3   OH272237   4.031   5.915  16.439 -0.4000  0.4966 -0.2738
16941TIP3    H172238   3.941   5.947  16.444 -0.5290 -0.1462  2.1757
16941TIP3    H272239   4.077   5.964  16.507  0.8402  0.0317 -0.7748
16942TIP3   OH272240   4.714   1.708   4.854  0.3425  0.0684 -0.3030
16942TIP3    H172241   4.722   1.671   4.941  0.6140 -3.8416 -1.8747
16942TIP3    H272242   4.755   1.794   4.860  1.8619 -0.8191  3.0071
16943TIP3   OH272243   4.257   0.553   2.876 -0.0164 -0.6465  0.1509
16943TIP3    H172244   4.176   0.549   2.826  0.0482 -0.2967  0.0143
16943TIP3    H272245   4.253   0.478   2.935 -1.1563  0.2423  1.2486
16944TIP3   OH272246   2.050   4.624  14.045 -0.0490 -0.7252 -0.1696
16944TIP3    H172247   2.016   4.629  13.956  0.9341  0.2096 -0.5011
16944TIP3    H272248   2.016   4.542  14.080  1.1270 -2.0059 -2.0347
16945TIP3   OH272249   1.855   1.738  12.299 -0.3462  0.3582  0.3070
16945TIP3    H172250   1.858   1.828  12.268  1.0652 -0.0892 -0.9255
16945TIP3    H272251   1.943   1.722  12.334  0.2576 -1.2967 -1.8080
16946TIP3   OH272252   3.677   5.503  15.891 -0.0516 -0.0275 -0.5859
16946TIP3    H172253   3.630   5.462  15.963  0.8658  0.9069  0.5724
16946TIP3    H272254   3.770   5.495  15.916  0.2517  0.5634 -1.5164
16947TIP3   OH272255   4.398   4.961  10.660 -0.4134  0.1956 -0.4556
16947TIP3    H172256   4.490   4.935  10.663 -0.3489  0.2128 -1.9901
16947TIP3    H272257   4.395   5.035  10.599 -1.5603 -0.3564 -1.0939
16948TIP3   OH272258   5.926   3.874  11.345  0.0101 -0.1237  0.6470
16948TIP3    H172259   6.000   3.829  11.386  1.2731  2.3068  1.1455
16948TIP3    H272260   5.954   3.888  11.254  0.6756  1.7990  1.1220
16949TIP3   OH272261   1.574   3.964  15.046 -0.1857 -0.0456 -0.5653
16949TIP3    H172262   1.652   4.006  15.082  0.1518 -0.4334 -0.8408
16949TIP3    H272263   1.539   4.028  14.984 -0.2785  0.2682 -0.1896
16950TIP3   OH272264   3.154   6.043  12.803  0.3223 -0.5335 -0.2874
16950TIP3    H172265   3.168   6.129  12.843  0.6189 -0.5107 -0.4436
16950TIP3    H272266   3.092   6.059  12.732 -0.3935 -0.6121  0.3064
16951TIP3   OH272267   4.152   2.203  14.738  0.6690  0.4161 -0.3223
16951TIP3    H172268   4.127   2.144  14.809 -2.0989  0.1468 -1.4635
16951TIP3    H272269   4.108   2.167  14.660  1.0061  2.5299 -1.5310
16952TIP3   OH272270   5.198   6.039  17.215  0.1442  0.1099  0.3520
16952TIP3    H172271   5.284   5.995  17.213 -0.3411 -0.8425 -0.0287
16952TIP3    H272272   5.197   6.086  17.299  0.4707 -1.0590  1.0283
16953TIP3   OH272273   4.459   1.179   4.077 -0.6137 -0.7708  0.2101
16953TIP3    H172274   4.426   1.163   4.166 -0.0450 -0.1472  0.5431
16953TIP3    H272275   4.462   1.093   4.036 -1.7474 -0.9524  0.4912
16954TIP3   OH272276   2.907   6.258  13.668 -0.2692  0.1342  0.2340
16954TIP3    H172277   2.905   6.164  13.649 -0.0699  0.1448  0.1659
16954TIP3    H272278   2.986   6.271  13.720 -0.3119  0.2609  0.2686
16955TIP3   OH272279   0.934   0.413   4.655  0.3859 -0.3866 -0.2218
16955TIP3    H172280   0.877   0.425   4.579 -1.2947  3.0182  1.4685
16955TIP3    H272281   0.879   0.365   4.718  1.0392 -1.2852 -0.3236
16956TIP3   OH272282   3.113   5.377  15.517  0.1317 -0.1008  0.6523
16956TIP3    H172283   3.169   5.334  15.582 -0.1967  0.9769  1.6746
16956TIP3    H272284   3.129   5.471  15.529 -0.0837  0.1262 -0.6990
16957TIP3   OH272285   5.104   4.870   4.723  0.2559 -0.3661  0.5909
16957TIP3    H172286   5.032   4.857   4.661  0.1271 -0.8968  0.8476
16957TIP3    H272287   5.063   4.867   4.809  0.8368 -2.5448  0.8160
16958TIP3   OH272288   6.510   2.632  16.257 -0.3869  0.4087 -0.0137
16958TIP3    H172289   6.424   2.598  16.231 -0.3015  0.5580 -0.4834
16958TIP3    H272290   6.543   2.567  16.320 -0.2870 -0.3105 -0.8032
16959TIP3   OH272291   1.240   2.312   3.760  0.2006  0.5521  0.2186
16959TIP3    H172292   1.189   2.238   3.790 -0.7272  1.2670  0.4379
16959TIP3    H272293   1.328   2.277   3.747 -0.2079 -0.5599  0.3833
16960TIP3   OH272294   3.919   4.706   4.092  0.2214  0.2602 -0.4756
16960TIP3    H172295   3.885   4.795   4.082 -0.6077 -0.1603 -1.5019
16960TIP3    H272296   3.849   4.658   4.136  0.9008  0.2489  0.6123
16961TIP3   OH272297   1.795   6.278  15.021  0.2417  0.2441  0.0067
16961TIP3    H172298   1.731   6.302  15.087  0.5149  1.8162 -0.2747
16961TIP3    H272299   1.879   6.308  15.057  0.5132  0.2293 -0.6049
16962TIP3   OH272300   5.532   5.770  17.169 -0.1532 -0.3861  0.1224
16962TIP3    H172301   5.589   5.736  17.238 -1.4635  0.0449  1.4476
16962TIP3    H272302   5.553   5.717  17.092  2.3994  0.1288  0.4242
16963TIP3   OH272303   3.597   6.167  16.356 -0.1204  0.5848  0.3267
16963TIP3    H172304   3.504   6.157  16.372 -0.0067 -0.2128  0.5321
16963TIP3    H272305   3.607   6.153  16.261 -0.4012  2.2128  0.0505
16964TIP3   OH272306   0.590   0.515  11.506  0.0497  0.1225  0.5651
16964TIP3    H172307   0.676   0.549  11.481 -0.2721  0.0800 -0.6429
16964TIP3    H272308   0.530   0.586  11.485 -0.4939 -0.7466 -0.9212
16965TIP3   OH272309   4.307   5.485   3.298  0.4223  0.5442  0.2572
16965TIP3    H172310   4.273   5.409   3.345 -0.3147 -0.0167 -1.1412
16965TIP3    H272311   4.395   5.498   3.333 -0.3315  0.5409  2.2179
16966TIP3   OH272312   5.966   4.943   2.737  0.6136  0.4788 -0.3438
16966TIP3    H172313   5.901   5.004   2.772 -0.3873 -0.7961  0.0672
16966TIP3    H272314   6.049   4.973   2.773  0.0244  1.1444  0.4841
16967TIP3   OH272315   3.067   6.100  16.152 -0.0609  0.3033 -0.4742
16967TIP3    H172316   3.058   6.160  16.078  1.9223  1.8076  0.4582
16967TIP3    H272317   3.157   6.068  16.147  0.1486  0.5124  1.3155
16968TIP3   OH272318   3.391   3.969  12.569 -0.5637  0.0290  0.5627
16968TIP3    H172319   3.477   3.942  12.537 -0.5889  0.0113  0.5103
16968TIP3    H272320   3.383   4.060  12.540 -0.6977 -0.0701  0.2873
16969TIP3   OH272321   4.077   5.262   0.443  0.1166 -0.0520  0.1822
16969TIP3    H172322   4.109   5.345   0.479  0.3181 -0.1706  0.2761
16969TIP3    H272323   4.145   5.198   0.465 -0.2625 -0.3377  0.5310
16970TIP3   OH272324   3.430   0.530   3.494  0.0629  0.4081  0.0139
16970TIP3    H172325   3.517   0.557   3.464  0.0748  0.8448  0.4239
16970TIP3    H272326   3.439   0.438   3.516  0.4546  0.4819  0.1627
16971TIP3   OH272327   5.010   0.775   2.318  0.1196  0.1805  0.5944
16971TIP3    H172328   4.974   0.807   2.235  2.3274  2.3534  0.4142
16971TIP3    H272329   4.973   0.833   2.384 -0.0621 -0.2831  0.8960
16972TIP3   OH272330   3.581   2.817   1.207  0.1705 -0.0424  0.3199
16972TIP3    H172331   3.582   2.898   1.258  1.2118 -0.1466  0.4670
16972TIP3    H272332   3.489   2.807   1.181 -0.1591  0.6313  1.1767
16973TIP3   OH272333   5.421   0.641  12.473 -0.1422  0.0458 -0.0544
16973TIP3    H172334   5.415   0.696  12.552  2.7475  0.7530 -0.2773
16973TIP3    H272335   5.499   0.673  12.428  0.4313 -2.9244 -1.2375
16974TIP3   OH272336   5.664   2.572   5.873 -0.2496  0.7227  0.1083
16974TIP3    H172337   5.617   2.543   5.951  0.1106  0.3765  0.2055
16974TIP3    H272338   5.751   2.596   5.905 -0.3154  1.2314 -0.0865
16975TIP3   OH272339   1.900   2.037  12.729 -0.3791 -0.0940 -0.0304
16975TIP3    H172340   1.926   2.022  12.819  0.9427  0.7195 -0.2582
16975TIP3    H272341   1.919   2.130  12.714  1.2514 -0.6748 -1.7240
16976TIP3   OH272342   0.272   4.356   3.038 -0.2367  0.3350  0.2024
16976TIP3    H172343   0.297   4.437   2.993  0.0078  1.3483  2.1401
16976TIP3    H272344   0.308   4.287   2.983  0.2432  1.5596 -1.0556
16977TIP3   OH272345   1.260   3.062  15.376 -0.2711  0.0425 -0.0106
16977TIP3    H172346   1.224   2.979  15.405 -2.0111  0.4498 -0.9256
16977TIP3    H272347   1.349   3.041  15.347 -0.8633 -1.5768 -0.6872
16978TIP3   OH272348   2.742   1.607   5.314  0.2039 -0.5656 -0.3400
16978TIP3    H172349   2.721   1.624   5.222 -0.8640 -1.4891 -0.2762
16978TIP3    H272350   2.709   1.684   5.360  0.6938 -0.1217 -0.7139
16979TIP3   OH272351   4.624   0.225  11.873  0.3505  0.0839 -0.2782
16979TIP3    H172352   4.622   0.205  11.780  0.9946  1.2151 -0.5524
16979TIP3    H272353   4.670   0.152  11.913  0.5405 -0.1453 -0.9167
16980TIP3   OH272354   3.712   0.980  16.808 -0.0463 -0.3827 -0.0268
16980TIP3    H172355   3.740   1.070  16.788  2.4689 -1.1490 -0.1967
16980TIP3    H272356   3.707   0.977  16.903  0.0329 -0.0884 -0.0127
16981TIP3   OH272357   1.815   1.853  14.693 -0.0667  0.6068  0.3139
16981TIP3    H172358   1.881   1.912  14.655  0.3905  0.2591  0.5592
16981TIP3    H272359   1.732   1.884  14.657  0.1466  1.5191  0.5959
16982TIP3   OH272360   3.466   4.176  10.607  0.0797 -0.2632  1.0749
16982TIP3    H172361   3.382   4.217  10.588  0.8861  0.7661 -0.3366
16982TIP3    H272362   3.453   4.135  10.693 -1.4281  1.0460  1.5049
16983TIP3   OH272363   6.308   3.452  11.551 -0.0150  0.3968  0.1025
16983TIP3    H172364   6.342   3.364  11.531 -0.5909  0.2555 -0.2624
16983TIP3    H272365   6.386   3.505  11.566  0.3116 -0.6215  2.2223
16984TIP3   OH272366   6.208   3.091  16.167  0.9197  0.0914 -0.9886
16984TIP3    H172367   6.272   3.027  16.197  1.2639  0.5270 -0.7778
16984TIP3    H272368   6.258   3.172  16.157  0.2746  0.6032 -0.1733
16985TIP3   OH272369   0.365   2.006  13.280 -0.3024 -0.0134  0.2009
16985TIP3    H172370   0.358   2.041  13.191 -0.0879 -1.3083 -0.3387
16985TIP3    H272371   0.433   1.938  13.274 -1.9966 -1.8071  0.8013
16986TIP3   OH272372   5.237   6.135  13.160  0.2056 -0.5531  0.0958
16986TIP3    H172373   5.205   6.047  13.138  0.9890 -1.1994  1.4776
16986TIP3    H272374   5.255   6.176  13.076 -1.0465 -1.3850 -0.5968
16987TIP3   OH272375   0.304   3.503  16.728 -0.2114 -0.1367 -0.2290
16987TIP3    H172376   0.374   3.507  16.793 -0.8264  0.9420  0.3708
16987TIP3    H272377   0.350   3.499  16.644  0.6169  3.9684 -0.0852
16988TIP3   OH272378   4.387   1.628  14.877  0.3302  0.1390  0.2510
16988TIP3    H172379   4.337   1.671  14.807  2.3692  2.4452  0.1481
16988TIP3    H272380   4.325   1.618  14.949 -1.0444  0.3164 -0.8960
16989TIP3   OH272381   0.347   0.090   2.196  0.3905  0.3051  0.0531
16989TIP3    H172382   0.368   0.111   2.105  1.3984  0.0927  0.2254
16989TIP3    H272383   0.410   0.140   2.247  0.2069 -0.0296  0.6079
16990TIP3   OH272384   5.669   2.521  10.586 -0.0021  0.5607 -0.1612
16990TIP3    H172385   5.575   2.529  10.572 -0.3675 -0.7335  1.5029
16990TIP3    H272386   5.695   2.444  10.537  0.1675  0.7935 -0.4437
16991TIP3   OH272387   2.843   5.015  11.401  0.1245 -0.4404 -0.0027
16991TIP3    H172388   2.880   4.933  11.367  1.1850 -0.1308  0.3831
16991TIP3    H272389   2.754   5.018  11.365  0.9514 -0.4983 -2.1807
16992TIP3   OH272390   1.393   5.537   0.277  0.2630  0.4044 -0.0204
16992TIP3    H172391   1.446   5.515   0.354  0.5017  3.4523  0.7811
16992TIP3    H272392   1.366   5.628   0.292 -1.7592  0.2583 -2.3886
16993TIP3   OH272393   2.517   6.290   0.088 -0.6957  0.5383 -0.3464
16993TIP3    H172394   2.446   6.273   0.150 -0.6176  0.4130 -0.2927
16993TIP3    H272395   2.542   6.381   0.105 -2.5380  1.3925 -2.0732
16994TIP3   OH272396   2.006   1.672  12.033 -0.3797 -0.3147 -0.4483
16994TIP3    H172397   1.966   1.725  12.102  1.2362  1.3477 -0.7592
16994TIP3    H272398   1.941   1.669  11.963 -1.0621  0.0127  0.1752
16995TIP3   OH272399   2.958   2.853  12.182  0.3904 -0.3336 -0.2870
16995TIP3    H172400   3.009   2.772  12.174  1.3748  0.1311  1.1378
16995TIP3    H272401   3.002   2.915  12.124  0.8930 -0.2032  0.2328
16996TIP3   OH272402   0.694   1.166   2.517  0.0005 -0.0167  0.5745
16996TIP3    H172403   0.697   1.092   2.577  2.1163  0.6437  1.3520
16996TIP3    H272404   0.708   1.243   2.573  0.7783  0.7085 -0.5835
16997TIP3   OH272405   1.474   1.562  15.425  0.5442 -0.0642  0.5303
16997TIP3    H172406   1.552   1.530  15.471  0.7095  1.1029  1.0641
16997TIP3    H272407   1.442   1.634  15.479 -0.0297  0.4500 -0.4823
16998TIP3   OH272408   0.466   2.254  10.751  0.4483 -0.5789  0.0541
16998TIP3    H172409   0.373   2.257  10.776 -0.0572 -0.3260 -1.7699
16998TIP3    H272410   0.477   2.166  10.714  0.5579 -0.0821 -1.1017
16999TIP3   OH272411   3.180   3.329   4.067  0.2359 -0.0796 -0.4356
16999TIP3    H172412   3.108   3.283   4.110  0.8103  1.7278  2.5983
16999TIP3    H272413   3.153   3.421   4.068  0.9867  0.1999 -2.5810
17000TIP3   OH272414   1.384   2.727  16.954 -0.3752  0.0804 -0.1328
17000TIP3    H172415   1.463   2.781  16.960  0.2536 -0.6927 -1.1825
17000TIP3    H272416   1.408   2.644  16.995 -1.1997  0.4382  1.0879
17001TIP3   OH272417   4.983   5.416   0.093 -0.6001  0.5568 -0.0526
17001TIP3    H172418   5.022   5.381   0.173 -1.6351 -2.0601 -0.6402
17001TIP3    H272419   4.909   5.469   0.123  1.0779  2.4239  0.8709
17002TIP3   OH272420   3.371   2.578   3.036  0.0662  0.0200  0.0123
17002TIP3    H172421   3.416   2.541   2.960 -0.1227  1.7141 -0.9442
17002TIP3    H272422   3.326   2.655   3.002 -1.3768 -0.1288  1.5094
17003TIP3   OH272423   6.412   0.715   1.956  0.4234 -0.0945  0.1547
17003TIP3    H172424   6.433   0.696   2.047  0.1147 -0.8651  0.0677
17003TIP3    H272425   6.329   0.669   1.940 -0.5363  1.6049  0.0441
17004TIP3   OH272426   1.321   0.541   5.177  0.0547  0.2369 -0.3724
17004TIP3    H172427   1.274   0.574   5.254 -1.6825 -1.5684 -0.6268
17004TIP3    H272428   1.308   0.609   5.110 -0.6651  0.5938  0.1190
17005TIP3   OH272429   4.893   5.703  16.369 -0.0074 -0.2088  0.3569
17005TIP3    H172430   4.901   5.706  16.273  0.4780  1.6729  0.4357
17005TIP3    H272431   4.827   5.768  16.389  0.1294 -0.3680  1.3299
17006TIP3   OH272432   3.020   2.700   1.747  0.5553  0.4206 -0.0251
17006TIP3    H172433   3.102   2.746   1.765 -1.0004  3.3199 -0.0154
17006TIP3    H272434   3.028   2.674   1.655  1.0226  1.7712 -0.3888
17007TIP3   OH272435   4.090   6.516   5.105 -0.1944  0.7896  0.3890
17007TIP3    H172436   4.027   6.509   5.033 -1.3226  0.2323  1.4349
17007TIP3    H272437   4.094   6.610   5.124  0.1988  0.9540 -0.4696
17008TIP3   OH272438   5.400   1.614  12.353 -0.6848 -0.1354  0.2747
17008TIP3    H172439   5.371   1.525  12.372 -0.6206 -0.1186  0.4562
17008TIP3    H272440   5.475   1.602  12.294 -1.1650 -0.1718 -0.3381
17009TIP3   OH272441   4.573   6.226   3.351  0.1414 -0.1364  0.1031
17009TIP3    H172442   4.576   6.248   3.445 -0.8269 -2.5595  0.7357
17009TIP3    H272443   4.568   6.130   3.349 -1.0836 -0.0474 -2.4209
17010TIP3   OH272444   6.387   6.718  10.964  0.0667 -0.0458 -0.1013
17010TIP3    H172445   6.452   6.685  10.902  0.0611 -0.0173 -0.1219
17010TIP3    H272446   6.352   6.797  10.922  1.9907  1.5127  1.1138
17011TIP3   OH272447   3.321   5.140  12.352  0.1217  0.1863 -0.0493
17011TIP3    H172448   3.253   5.191  12.396  0.7469  1.6930 -0.8206
17011TIP3    H272449   3.381   5.115  12.422 -1.6915 -1.9767  0.8110
17012TIP3   OH272450   4.890   3.751  11.910 -0.2595  0.1704  0.0711
17012TIP3    H172451   4.861   3.761  11.819 -1.0912 -0.5076  0.2551
17012TIP3    H272452   4.948   3.675  11.908 -0.6409 -0.1215  0.1934
17013TIP3   OH272453   2.463   1.087  12.665 -0.4146  0.3552 -0.0565
17013TIP3    H172454   2.418   1.018  12.616 -1.5690  0.1958  1.1888
17013TIP3    H272455   2.549   1.094  12.622 -1.2337 -0.0409 -1.8305
17014TIP3   OH272456   6.143   5.265   0.052  0.7468  0.0442 -0.3564
17014TIP3    H172457   6.196   5.325   0.104 -0.0810  1.6299 -1.2853
17014TIP3    H272458   6.186   5.264  -0.034  1.1708 -1.2660 -0.1317
17015TIP3   OH272459   5.182   2.802  10.794  0.2650  0.4294 -0.6742
17015TIP3    H172460   5.118   2.791  10.724 -0.1226  0.1361 -0.2723
17015TIP3    H272461   5.256   2.846  10.751 -0.3483  1.1092 -1.0565
17016TIP3   OH272462   5.289   4.595  12.030  0.6047 -0.1829  0.3050
17016TIP3    H172463   5.345   4.606  11.953  2.0541 -1.6436  1.1122
17016TIP3    H272464   5.207   4.562  11.995 -0.2902  3.2285 -1.0445
17017TIP3   OH272465   6.370   4.324   0.108 -0.1160 -0.6809 -0.3089
17017TIP3    H172466   6.277   4.346   0.105 -0.3149 -1.2073  1.4634
17017TIP3    H272467   6.384   4.289   0.196  1.9887  0.3920 -0.1745
17018TIP3   OH272468   4.142   1.629   4.775 -0.2925  0.5764  0.4072
17018TIP3    H172469   4.121   1.702   4.717  1.7250  0.9339  0.1166
17018TIP3    H272470   4.165   1.670   4.858 -1.9423  0.1209  1.1132
17019TIP3   OH272471   5.031   0.968  15.703  0.0857  0.0114  0.0320
17019TIP3    H172472   5.047   0.876  15.682 -0.8642 -0.1781  0.1275
17019TIP3    H272473   5.118   1.006  15.712  0.5936 -1.8614  4.4027
17020TIP3   OH272474   1.719   5.620   4.302 -0.2706  0.4932 -0.1333
17020TIP3    H172475   1.671   5.540   4.324  0.2174  0.3057  0.2493
17020TIP3    H272476   1.689   5.685   4.366  1.2456 -0.0864  1.1870
17021TIP3   OH272477   5.492   0.722  12.866 -0.0575 -0.1213  0.0177
17021TIP3    H172478   5.580   0.758  12.855 -0.1332 -0.0031 -0.2008
17021TIP3    H272479   5.436   0.780  12.815 -0.2423 -0.2812  0.0396
17022TIP3   OH272480   5.492   4.056   1.426  0.2679 -0.5593  0.0251
17022TIP3    H172481   5.581   4.030   1.401  0.4503 -2.2096  2.2532
17022TIP3    H272482   5.486   4.033   1.518 -2.1354  0.5485  0.1696
17023TIP3   OH272483   3.963   4.343   0.010  0.5638 -0.1201  0.2110
17023TIP3    H172484   3.969   4.397   0.088  0.8612 -0.2229  0.2597
17023TIP3    H272485   3.931   4.258   0.042  0.3134 -0.0418  0.1697
17024TIP3   OH272486   5.714   0.445   0.284 -0.3201  0.0532  0.2332
17024TIP3    H172487   5.742   0.536   0.271 -1.3021  0.0341 -2.4132
17024TIP3    H272488   5.786   0.393   0.247  0.0274 -0.2573  1.3236
17025TIP3   OH272489   5.577   0.268   2.687 -0.1556  0.0821  0.2449
17025TIP3    H172490   5.574   0.195   2.626  2.6626  0.5031 -0.4719
17025TIP3    H272491   5.521   0.335   2.648 -0.9242 -0.8349 -0.2342
17026TIP3   OH272492   2.043   1.790   4.781  0.1156  0.2575  0.1726
17026TIP3    H172493   1.962   1.739   4.784 -1.4400  2.6303 -0.5091
17026TIP3    H272494   2.073   1.794   4.872 -1.4816  0.8232  0.6856
17027TIP3   OH272495   3.566   1.449   4.210  0.0093  0.3797 -0.3114
17027TIP3    H172496   3.554   1.536   4.172  0.3289  1.3878  1.8129
17027TIP3    H272497   3.545   1.461   4.303  1.3752 -1.5073  0.2574
17028TIP3   OH272498   2.720   1.089  12.569 -0.2749 -0.1781 -0.3585
17028TIP3    H172499   2.776   1.065  12.643 -0.6067  1.3786  0.4174
17028TIP3    H272500   2.756   1.041  12.495  2.1767  0.9011  0.0903
17029TIP3   OH272501   5.005   6.285  13.103 -0.4302 -0.1687  1.0374
17029TIP3    H172502   5.091   6.254  13.128 -0.7837  0.0891  2.6315
17029TIP3    H272503   5.020   6.337  13.023  0.7977 -0.5595  1.0134
17030TIP3   OH272504   1.314   6.645  13.339 -0.2795  0.0133 -0.2982
17030TIP3    H172505   1.228   6.685  13.353 -0.2567  0.0271 -0.1937
17030TIP3    H272506   1.317   6.626  13.246 -0.6783 -0.6403 -0.1765
17031TIP3   OH272507   0.207   1.120  15.954 -0.4240 -0.2370  0.0090
17031TIP3    H172508   0.145   1.085  15.890 -0.6402  2.2632 -1.2051
17031TIP3    H272509   0.153   1.169  16.016  0.2017  0.7100 -0.1963
17032TIP3   OH272510   6.284   1.385  14.015  0.1485 -0.2332  0.9577
17032TIP3    H172511   6.353   1.424  14.069  2.0927 -0.6394 -1.1981
17032TIP3    H272512   6.219   1.455  14.006  1.3183  0.8999  1.1582
17033TIP3   OH272513   4.549   1.451  13.383 -0.0234 -0.0953  0.8549
17033TIP3    H172514   4.596   1.408  13.453  0.2125 -0.2395  0.6101
17033TIP3    H272515   4.618   1.486  13.326 -0.1949 -1.4437 -0.2148
17034TIP3   OH272516   3.200   6.564   5.353  0.4598 -1.0701  0.1627
17034TIP3    H172517   3.114   6.545   5.390  1.5367 -1.9176  2.3328
17034TIP3    H272518   3.262   6.540   5.423  2.5239 -1.7591 -1.8292
17035TIP3   OH272519   5.424   6.732   5.778 -0.4171 -0.3481  0.0834
17035TIP3    H172520   5.382   6.775   5.852 -2.5351 -0.5890 -0.9292
17035TIP3    H272521   5.423   6.639   5.800  0.8798 -0.2366  0.6683
17036TIP3   OH272522   1.621   4.472  16.541 -0.2968 -0.4530  0.0031
17036TIP3    H172523   1.638   4.386  16.580  0.3039  0.2313  1.3032
17036TIP3    H272524   1.704   4.518  16.547 -0.1427 -0.3888 -2.3275
17037TIP3   OH272525   0.154   6.174   3.298 -0.2408 -0.5328  0.7551
17037TIP3    H172526   0.223   6.178   3.231 -1.3471 -3.3424 -0.6331
17037TIP3    H272527   0.194   6.213   3.376  2.4264 -0.7968 -0.4131
17038TIP3   OH272528   1.660   4.224   2.250 -0.1593 -0.0335 -0.1105
17038TIP3    H172529   1.662   4.310   2.291 -0.0067  0.5450 -1.3162
17038TIP3    H272530   1.712   4.169   2.308 -0.9449  0.4753  1.1061
17039TIP3   OH272531   4.106   4.507  13.808  0.9364 -0.8086  0.0601
17039TIP3    H172532   4.107   4.418  13.771  0.5070 -0.5760 -0.5298
17039TIP3    H272533   4.114   4.564  13.732  1.2838 -0.3412  0.4471
17040TIP3   OH272534   5.204   1.007  11.888 -0.2591 -0.7655  0.2452
17040TIP3    H172535   5.254   0.950  11.946 -0.2677 -0.8138  0.2061
17040TIP3    H272536   5.266   1.073  11.858 -0.4798 -0.1603  1.0902
17041TIP3   OH272537   3.846   2.992  13.207 -0.3227 -0.3185 -0.3801
17041TIP3    H172538   3.909   2.920  13.205 -1.5047 -1.4113  0.7109
17041TIP3    H272539   3.871   3.044  13.284  0.1043  0.0641 -0.7699
17042TIP3   OH272540   3.737   0.325  13.072 -0.4206  0.2687 -0.1968
17042TIP3    H172541   3.721   0.351  13.162  1.5517  0.7997  0.0139
17042TIP3    H272542   3.810   0.263  13.077  0.2377  0.9177 -1.5081
17043TIP3   OH272543   2.080   6.529   2.634 -0.0347  0.1512  0.3757
17043TIP3    H172544   2.162   6.560   2.671 -0.1586 -0.8627  1.5303
17043TIP3    H272545   2.059   6.593   2.566 -1.2906  3.7180  3.9222
17044TIP3   OH272546   1.770   3.517  16.273 -0.0867  0.2165  0.4753
17044TIP3    H172547   1.733   3.439  16.231 -0.8328  1.4441 -1.2181
17044TIP3    H272548   1.700   3.549  16.330 -1.0280  1.4696 -1.3105
17045TIP3   OH272549   3.646   4.480  12.988  0.3478 -0.1751 -0.6189
17045TIP3    H172550   3.574   4.485  13.051  0.2824  0.2880 -0.7289
17045TIP3    H272551   3.721   4.518  13.034  0.7959 -1.6332 -0.1255
17046TIP3   OH272552   1.950   1.172  13.757 -0.4216  0.3422 -0.4355
17046TIP3    H172553   1.891   1.165  13.682  0.6338  1.0567 -1.3524
17046TIP3    H272554   1.991   1.085  13.763 -1.5426 -0.1394  0.1784
17047TIP3   OH272555   2.796   5.357   3.868  0.1721  0.0712 -0.2795
17047TIP3    H172556   2.729   5.414   3.831  2.3409  0.5294 -3.8645
17047TIP3    H272557   2.852   5.415   3.920  0.0986  0.4795 -0.6532
17048TIP3   OH272558   0.020   4.841  12.924 -0.2894  0.4212  0.1682
17048TIP3    H172559   0.075   4.891  12.863  0.7982 -0.5850  0.3125
17048TIP3    H272560  -0.029   4.781  12.868  1.9035 -1.6501  0.3578
17049TIP3   OH272561   6.093   1.526  11.263 -0.4326 -1.2627  0.5223
17049TIP3    H172562   6.075   1.475  11.184 -1.6732  1.0512 -0.7490
17049TIP3    H272563   6.062   1.471  11.335 -2.5440 -1.9423 -0.8684
17050TIP3   OH272564   1.911   3.603   5.299  0.3382  0.1340 -0.0210
17050TIP3    H172565   1.836   3.571   5.349  0.3379  0.3905  0.1428
17050TIP3    H272566   1.961   3.524   5.277 -1.4737 -0.3694 -2.5832
17051TIP3   OH272567   3.036   1.730   3.681 -0.2067  0.6947  0.3041
17051TIP3    H172568   2.949   1.728   3.720 -0.1127 -0.0785  0.4907
17051TIP3    H272569   3.040   1.812   3.634 -0.4646  1.4994  1.6493
17052TIP3   OH272570   2.935   6.507   4.264 -0.3623 -0.6116  0.1482
17052TIP3    H172571   2.942   6.469   4.176  1.5575  0.3715 -0.1658
17052TIP3    H272572   3.005   6.465   4.314 -0.0776  0.3763  0.6016
17053TIP3   OH272573   3.650   0.060  16.987  0.0225  0.3856  0.0169
17053TIP3    H172574   3.567   0.108  16.992 -0.8205 -1.1848  2.2587
17053TIP3    H272575   3.687   0.084  16.902 -1.5077  3.0680  0.0567
17054TIP3   OH272576   1.787   4.131  13.955  0.2205  0.0895  0.2223
17054TIP3    H172577   1.706   4.179  13.939  0.5560  0.4046 -0.5465
17054TIP3    H272578   1.855   4.182  13.911  0.4025 -1.7549 -1.7156
17055TIP3   OH272579   6.280   5.923   4.543  0.8646 -0.3428  0.2356
17055TIP3    H172580   6.311   5.988   4.606 -0.4950  0.8489 -0.2885
17055TIP3    H272581   6.309   5.955   4.458  0.0490 -0.3245 -0.0411
17056TIP3   OH272582   5.995   1.501  14.801 -0.0729  0.2037 -0.9398
17056TIP3    H172583   5.986   1.421  14.852 -0.1205  0.7986  0.0009
17056TIP3    H272584   6.039   1.474  14.720  2.0445 -0.3603  0.3748
17057TIP3   OH272585   5.195   6.478  10.879  0.7931  0.0041  0.4581
17057TIP3    H172586   5.255   6.524  10.821  1.1629 -0.7073  0.2658
17057TIP3    H272587   5.156   6.547  10.933 -0.3452  0.7929 -1.3390
17058TIP3   OH272588   6.296   2.517  16.033  0.5366 -0.1470 -0.0568
17058TIP3    H172589   6.273   2.505  16.125 -1.1273 -0.5655 -0.4963
17058TIP3    H272590   6.349   2.440  16.012 -1.5663 -1.6228 -0.1888
17059TIP3   OH272591   5.090   1.449  15.181 -0.1884  0.1865  0.3597
17059TIP3    H172592   5.082   1.427  15.088  0.1283  1.3833  0.0382
17059TIP3    H272593   5.015   1.406  15.223 -1.7432  1.6573 -0.8398
17060TIP3   OH272594   2.470   6.696  11.318  0.0894  0.6048 -1.0951
17060TIP3    H172595   2.453   6.606  11.347  2.0329 -0.0890 -2.0486
17060TIP3    H272596   2.392   6.719  11.267 -1.8207  0.6123  1.6762
17061TIP3   OH272597   5.633   5.245  16.367 -0.1373  0.1804 -0.4309
17061TIP3    H172598   5.541   5.266  16.383  0.0452 -0.3448  1.4445
17061TIP3    H272599   5.631   5.186  16.291 -1.5762 -1.7278  1.0475
17062TIP3   OH272600   3.374   2.481   5.702 -1.2402 -0.4683 -0.1997
17062TIP3    H172601   3.290   2.441   5.723 -2.2356  1.8033  0.3796
17062TIP3    H272602   3.438   2.435   5.756 -2.3905 -1.0407  0.6816
17063TIP3   OH272603   0.111   6.397  15.541  0.1163 -0.4953  0.1761
17063TIP3    H172604   0.097   6.492  15.546  0.3660 -0.4969  0.9642
17063TIP3    H272605   0.205   6.388  15.526 -0.2301 -0.5657 -2.1644
17064TIP3   OH272606   3.574   1.879  13.203  0.4040 -0.0349  0.6108
17064TIP3    H172607   3.536   1.793  13.185 -0.7227  0.5182  0.2973
17064TIP3    H272608   3.636   1.864  13.275 -1.8618 -0.6067  2.4841
17065TIP3   OH272609   3.753   3.130   0.111  0.2239  0.2914  0.5378
17065TIP3    H172610   3.724   3.198   0.171  0.0480  1.3587 -0.7313
17065TIP3    H272611   3.672   3.092   0.077  0.3157 -1.1608  1.9003
17066TIP3   OH272612   3.717   2.257   6.115 -0.2230 -0.2515 -0.3634
17066TIP3    H172613   3.727   2.162   6.102  1.0763 -0.0209 -1.1459
17066TIP3    H272614   3.733   2.270   6.208  3.0499 -0.4127 -0.8424
17067TIP3   OH272615   5.144   2.149   2.912 -0.6198 -0.3051  0.2486
17067TIP3    H172616   5.083   2.221   2.927 -0.5891 -1.0568  4.5678
17067TIP3    H272617   5.228   2.181   2.945 -0.1768 -1.6468  0.4786
17068TIP3   OH272618   2.077   5.065  13.198 -0.2543  0.3742  0.1288
17068TIP3    H172619   2.156   5.093  13.153 -0.1767 -2.1302 -1.4144
17068TIP3    H272620   2.038   4.999  13.140 -1.8941 -0.6025  2.2319
17069TIP3   OH272621   5.336   4.287  12.801 -0.0362  0.4630  0.4465
17069TIP3    H172622   5.413   4.242  12.765 -0.4675 -0.6514  0.9006
17069TIP3    H272623   5.268   4.220  12.802 -1.3019  1.6930 -0.8514
17070TIP3   OH272624   2.293   0.032   3.601 -0.1988 -0.3121 -0.6531
17070TIP3    H172625   2.289   0.114   3.552  0.0791  1.0604  1.5383
17070TIP3    H272626   2.326  -0.032   3.539  0.8665  1.5465 -2.0421
17071TIP3   OH272627   4.775   3.723   3.242  0.0169 -0.4201 -0.0432
17071TIP3    H172628   4.776   3.715   3.338  1.2401  0.3677  0.0189
17071TIP3    H272629   4.757   3.816   3.226 -0.3817 -0.5892 -0.5851
17072TIP3   OH272630   4.422   0.322   4.757 -0.2158  0.3059 -0.5277
17072TIP3    H172631   4.424   0.336   4.662 -0.0784 -0.0021 -0.5711
17072TIP3    H272632   4.408   0.227   4.767  0.4226  0.2422 -0.2389
17073TIP3   OH272633   5.827   0.647  11.924  0.3052  0.8798 -0.0514
17073TIP3    H172634   5.866   0.680  12.004 -1.2780  0.5627  0.8808
17073TIP3    H272635   5.821   0.552  11.937  2.0981  0.5447 -1.4842
17074TIP3   OH272636   2.795   0.813   2.768 -0.7274 -0.1233  0.3162
17074TIP3    H172637   2.858   0.832   2.698 -0.0801  2.1395  1.4427
17074TIP3    H272638   2.740   0.744   2.733  1.6243 -1.3258 -1.1801
17075TIP3   OH272639   5.914   3.018   2.001  0.2172  0.1017 -0.2789
17075TIP3    H172640   5.988   3.053   2.052 -1.6479  2.2753  1.0007
17075TIP3    H272641   5.947   3.016   1.911  2.2315 -0.0537  0.4199
17076TIP3   OH272642   3.338   2.762   1.452 -0.0562  0.8110 -0.0365
17076TIP3    H172643   3.335   2.850   1.415 -0.1223  0.6050 -0.5282
17076TIP3    H272644   3.419   2.760   1.503  0.6406  0.7335 -1.1153
17077TIP3   OH272645   4.193   0.733   2.604 -0.0422  0.9507  0.0460
17077TIP3    H172646   4.229   0.648   2.579  0.4987  1.3159 -0.4452
17077TIP3    H272647   4.265   0.777   2.651 -0.3569  1.0919  0.4038
17078TIP3   OH272648   2.034   5.978   0.549 -0.1374  0.2006 -0.3918
17078TIP3    H172649   2.012   6.027   0.470 -0.5784  0.8156  0.1144
17078TIP3    H272650   2.063   5.892   0.516  0.2462  0.6509 -1.2476
17079TIP3   OH272651   0.740   4.855   5.911  0.3387 -0.7998  0.2830
17079TIP3    H172652   0.785   4.836   5.993 -0.7083 -1.8487  0.6252
17079TIP3    H272653   0.694   4.937   5.928  0.1681 -0.9866  0.7218
17080TIP3   OH272654   5.250   3.480   1.269 -0.1944 -0.0879 -0.0646
17080TIP3    H172655   5.342   3.487   1.242 -0.8392  1.9249 -1.8739
17080TIP3    H272656   5.204   3.449   1.191 -1.0793 -1.0384  0.8123
17081TIP3   OH272657   3.670   5.758   3.646  0.2877  0.1533 -0.1352
17081TIP3    H172658   3.624   5.797   3.571 -1.1568  1.5213  1.4180
17081TIP3    H272659   3.613   5.685   3.673  0.4590  0.0900  0.0565
17082TIP3   OH272660   2.559   5.098   4.150  0.4809 -0.2070 -0.4048
17082TIP3    H172661   2.479   5.140   4.182  0.4095 -1.1917  0.7570
17082TIP3    H272662   2.529   5.019   4.106  0.8228 -0.7199  0.2723
17083TIP3   OH272663   6.675   4.155  11.595 -0.0707 -0.1895 -0.2045
17083TIP3    H172664   6.756   4.120  11.559  0.1928  1.0573 -0.8390
17083TIP3    H272665   6.697   4.243  11.625 -1.2176  0.2232 -0.5275
17084TIP3   OH272666   0.147   4.027  15.035  0.3062 -0.1386 -0.7735
17084TIP3    H172667   0.064   4.060  15.067  0.9948  0.2849  0.6212
17084TIP3    H272668   0.124   3.965  14.967 -1.1136  0.7312 -1.1063
17085TIP3   OH272669   4.935   1.481  14.515 -0.8092 -0.4868 -0.2539
17085TIP3    H172670   4.925   1.433  14.597  1.0556 -0.4502  0.0211
17085TIP3    H272671   4.942   1.413  14.448 -1.5563 -0.5314 -0.2882
17086TIP3   OH272672   4.188   1.465   1.716  0.8140 -0.2147 -0.3285
17086TIP3    H172673   4.148   1.479   1.630  0.6304 -3.3719 -0.8200
17086TIP3    H272674   4.247   1.391   1.703  0.4740 -1.0098  2.3474
17087TIP3   OH272675   2.285   5.047   3.667 -0.1780 -0.5339 -0.3202
17087TIP3    H172676   2.333   5.116   3.714  0.0231 -1.1950  0.4663
17087TIP3    H272677   2.199   5.045   3.709 -0.4852 -0.1752 -0.9257
17088TIP3   OH272678   5.315   6.437  17.065  0.9820 -0.3787  0.0592
17088TIP3    H172679   5.385   6.405  17.121  0.9652 -1.2402 -0.3886
17088TIP3    H272680   5.354   6.443  16.978  0.8448  0.3659  0.0479
17089TIP3   OH272681   1.824   5.133   4.580  0.1823 -0.1233 -0.1469
17089TIP3    H172682   1.891   5.193   4.550  0.4072 -0.1528  0.2920
17089TIP3    H272683   1.743   5.165   4.541  0.7554 -1.2798 -2.3829
17090TIP3   OH272684   6.300   1.212  16.289  0.0785  0.4129  0.0415
17090TIP3    H172685   6.369   1.147  16.300 -0.7224 -0.2832  0.9190
17090TIP3    H272686   6.325   1.284  16.347 -0.1832 -0.0428  0.7202
17091TIP3   OH272687   0.292   2.425   2.391 -0.1203  0.0819  0.5367
17091TIP3    H172688   0.285   2.429   2.486 -1.4112  0.7933  0.4159
17091TIP3    H272689   0.359   2.359   2.375 -1.3888 -1.5961  1.9048
17092TIP3   OH272690   3.786   2.561   0.217 -0.1573 -1.0757 -0.1113
17092TIP3    H172691   3.876   2.545   0.188 -0.3909 -0.5403 -1.1753
17092TIP3    H272692   3.783   2.654   0.237 -0.8142 -0.8141 -1.3644
17093TIP3   OH272693   4.189   4.638   5.752 -0.8501  0.6417 -0.0360
17093TIP3    H172694   4.238   4.720   5.741  0.0180 -0.1550 -2.7205
17093TIP3    H272695   4.245   4.583   5.806 -0.4659  1.0806  0.0135
17094TIP3   OH272696   1.441   0.507  11.278 -0.0980  0.0788 -0.1162
17094TIP3    H172697   1.355   0.485  11.312  0.2365  0.9734  1.3343
17094TIP3    H272698   1.434   0.599  11.252  0.0658 -0.1940 -1.1565
17095TIP3   OH272699   4.867   3.636  16.085  0.5653 -0.3380 -0.2488
17095TIP3    H172700   4.847   3.634  16.179  0.2343  0.4512 -0.2903
17095TIP3    H272701   4.786   3.669  16.045  0.3389 -1.6770 -0.9231
17096TIP3   OH272702   1.896   0.865  10.918  0.1602  0.0940  0.0707
17096TIP3    H172703   1.972   0.923  10.925  0.9216 -0.9807  0.7390
17096TIP3    H272704   1.928   0.788  10.871 -1.0583  0.5438 -1.5679
17097TIP3   OH272705   4.025   3.944   4.525  0.3097  0.1651 -0.0271
17097TIP3    H172706   4.048   3.872   4.584  0.7554  1.2040  1.0637
17097TIP3    H272707   3.931   3.956   4.537  0.6112  1.1662  1.3578
17098TIP3   OH272708   0.428   5.702  17.062 -0.1144  0.0450 -0.0218
17098TIP3    H172709   0.385   5.757  16.997  0.6064 -0.0838 -0.6099
17098TIP3    H272710   0.408   5.745  17.146 -0.2011  0.7688 -0.4081
17099TIP3   OH272711   3.553   6.605  14.667 -0.2352  0.3116  0.2606
17099TIP3    H172712   3.600   6.617  14.585 -0.0393  0.3068  0.3717
17099TIP3    H272713   3.592   6.527  14.706  0.4502  0.9598  0.8965
17100TIP3   OH272714   0.850   3.379   1.657 -0.2893 -0.9812 -0.1654
17100TIP3    H172715   0.886   3.454   1.703 -1.0874 -2.7683  3.4941
17100TIP3    H272716   0.914   3.360   1.588  1.8282  0.6418  1.3145
17101TIP3   OH272717   1.519   5.899  14.199  0.3121  0.0897  0.0038
17101TIP3    H172718   1.570   5.854  14.266 -2.2689 -1.5486  0.9597
17101TIP3    H272719   1.543   5.855  14.117 -0.5769 -1.5781  0.6314
17102TIP3   OH272720   4.135   0.376   4.422 -0.2352 -0.0019  0.4903
17102TIP3    H172721   4.078   0.414   4.356 -0.3803 -0.5920  0.2770
17102TIP3    H272722   4.109   0.284   4.427  2.5145 -0.9625 -1.5981
17103TIP3   OH272723   2.075   5.018   1.634 -0.3609  0.2198 -0.4021
17103TIP3    H172724   2.159   5.036   1.675  0.2364  1.9648 -2.3180
17103TIP3    H272725   2.070   4.923   1.630  0.8463  0.0828  1.0732
17104TIP3   OH272726   4.477   0.445   0.636  0.2154  0.2725  0.1161
17104TIP3    H172727   4.384   0.448   0.657  0.0879 -1.3891 -0.1587
17104TIP3    H272728   4.516   0.515   0.688 -0.8790 -0.4292  1.9281
17105TIP3   OH272729   5.877   6.298   0.418  0.4815 -0.2229  0.0164
17105TIP3    H172730   5.944   6.265   0.357  0.2443  1.8650 -1.4447
17105TIP3    H272731   5.796   6.294   0.368 -0.0175 -0.1359  0.8221
17106TIP3   OH272732   6.309   0.736  13.294 -0.0284  0.0264  0.3657
17106TIP3    H172733   6.275   0.703  13.377 -0.4446  2.1276  1.0828
17106TIP3    H272734   6.404   0.735  13.306 -0.0911  0.4198  0.9186
17107TIP3   OH272735   6.389   0.290  12.479 -0.4828 -0.4180  0.0675
17107TIP3    H172736   6.390   0.367  12.535 -1.2344 -0.2151 -0.1850
17107TIP3    H272737   6.471   0.294  12.430 -0.5730  0.2955 -0.0309
17108TIP3   OH272738   4.979   3.167  12.051 -0.2733 -0.1285 -0.2984
17108TIP3    H172739   4.953   3.201  11.966  0.5092 -1.1284 -0.9535
17108TIP3    H272740   4.932   3.084  12.059 -0.2398 -0.1019  0.1826
17109TIP3   OH272741   1.581   2.079  14.194  0.0992 -0.4211  0.0858
17109TIP3    H172742   1.676   2.077  14.202  0.0472 -1.4562  0.6236
17109TIP3    H272743   1.552   1.999  14.238 -1.0378  0.0259  0.1679
17110TIP3   OH272744   1.796   4.476   3.272 -0.2683 -0.8242  0.5935
17110TIP3    H172745   1.790   4.508   3.182 -1.9426 -0.5418  0.7881
17110TIP3    H272746   1.887   4.447   3.281  0.9252  2.4277 -0.0825
17111TIP3   OH272747   5.159   2.807  14.711  0.3311  0.3420 -0.5973
17111TIP3    H172748   5.116   2.722  14.701 -0.5498  0.8868 -1.4712
17111TIP3    H272749   5.095   2.870  14.680  0.9262  1.3516  0.2091
17112TIP3   OH272750   3.043   4.761  12.107 -0.3611 -0.1071  0.3724
17112TIP3    H172751   3.107   4.827  12.132  1.0870 -1.3277 -0.0482
17112TIP3    H272752   2.980   4.808  12.051 -0.4415  1.3251  1.6346
17113TIP3   OH272753   0.715   2.314   4.098 -0.1986 -0.1707 -0.7647
17113TIP3    H172754   0.657   2.259   4.150  1.2918 -0.7718  0.2864
17113TIP3    H272755   0.677   2.402   4.105 -0.5073 -0.4038  0.6223
17114TIP3   OH272756   4.358   0.235  13.511 -0.4089  0.5783 -0.7095
17114TIP3    H172757   4.346   0.325  13.479  0.6796  1.1424  0.4215
17114TIP3    H272758   4.292   0.225  13.580  0.9807  1.3222  0.7617
17115TIP3   OH272759   5.860   2.844  13.430  0.2709 -0.1791 -0.1519
17115TIP3    H172760   5.798   2.826  13.360 -0.3381 -1.0807  0.6041
17115TIP3    H272761   5.841   2.778  13.497  3.5635 -2.0048 -0.8603
17116TIP3   OH272762   2.909   0.753   0.751 -0.1004 -0.0144  0.2363
17116TIP3    H172763   2.850   0.715   0.685  0.8354  0.4099 -0.8690
17116TIP3    H272764   2.900   0.848   0.738 -1.0677  0.1124  1.7630
17117TIP3   OH272765   3.630   4.640   5.923  0.1367  0.2848 -0.3481
17117TIP3    H172766   3.542   4.627   5.889 -0.5084 -0.0108  1.4022
17117TIP3    H272767   3.673   4.555   5.913 -0.7832 -0.4449  1.6099
17118TIP3   OH272768   4.953   0.267  15.640 -0.1669  0.0541  0.0589
17118TIP3    H172769   4.918   0.346  15.598  0.0555  0.5765  0.8472
17118TIP3    H272770   5.037   0.294  15.676  0.3065 -0.7709 -0.3930
17119TIP3   OH272771   2.559   4.104  11.591 -0.6244 -0.3760 -0.3202
17119TIP3    H172772   2.627   4.168  11.613 -0.3336 -1.0302  0.7385
17119TIP3    H272773   2.540   4.120  11.499 -1.3867  1.9981  0.2248
17120TIP3   OH272774   2.371   0.929  16.326  0.0183  0.1149 -0.3399
17120TIP3    H172775   2.456   0.972  16.314 -0.8772  2.1585  0.2661
17120TIP3    H272776   2.359   0.928  16.421  0.0147 -1.5137 -0.3487
17121TIP3   OH272777   2.945   5.504  12.474  0.3396 -0.9180  0.3236
17121TIP3    H172778   2.904   5.420  12.495  1.0444 -1.3783 -0.1085
17121TIP3    H272779   2.903   5.532  12.392  0.3534 -1.0238  0.2805
17122TIP3   OH272780   2.970   3.405   3.170  0.4225 -0.3179  1.0636
17122TIP3    H172781   2.984   3.483   3.224  2.3322  0.6895 -0.8282
17122TIP3    H272782   3.050   3.396   3.119 -0.6619 -2.2408 -0.3708
17123TIP3   OH272783   5.927   6.339   2.902  0.4528  0.2828  0.2278
17123TIP3    H172784   5.866   6.289   2.957 -0.7743  0.0399 -1.3132
17123TIP3    H272785   5.956   6.277   2.836  0.0169  1.2109 -0.8550
17124TIP3   OH272786   1.257   6.304   5.335  0.1193  0.0763 -0.1540
17124TIP3    H172787   1.231   6.290   5.244 -0.4821 -0.3660  0.0815
17124TIP3    H272788   1.299   6.390   5.335 -0.2116  0.2447 -0.7810
17125TIP3   OH272789   0.687   0.294   2.759  0.5655  0.2105  0.1604
17125TIP3    H172790   0.676   0.211   2.713 -1.6262  0.2085  0.6468
17125TIP3    H272791   0.758   0.277   2.821 -0.9209 -1.8240  1.3696
17126TIP3   OH272792   1.787   6.015  13.206  0.1730  0.3636 -0.1367
17126TIP3    H172793   1.764   5.923  13.220 -0.5083  0.3323 -1.4433
17126TIP3    H272794   1.809   6.020  13.113 -1.2064  1.8255 -0.3970
17127TIP3   OH272795   2.005   2.162   2.526 -0.3729  0.3561  0.0634
17127TIP3    H172796   1.984   2.076   2.562  0.4412 -0.2579 -0.8769
17127TIP3    H272797   1.948   2.171   2.450  0.3916  0.0956 -0.5607
17128TIP3   OH272798   0.722   3.771   4.449 -0.1138  0.2633 -0.0055
17128TIP3    H172799   0.676   3.854   4.461 -0.9867 -0.1591 -0.4103
17128TIP3    H272800   0.810   3.797   4.421 -0.5778  1.0423 -0.7893
17129TIP3   OH272801   3.412   2.192  14.237 -0.2910  0.5466  0.1365
17129TIP3    H172802   3.442   2.219  14.324  1.4614 -1.6221  0.2723
17129TIP3    H272803   3.455   2.253  14.177  1.3236 -0.1208  0.5913
17130TIP3   OH272804   6.135   2.546   3.649  0.6249  0.3874  0.2546
17130TIP3    H172805   6.139   2.614   3.717 -0.2674  0.7973 -0.0958
17130TIP3    H272806   6.213   2.493   3.664  0.7847  0.8710  1.1888
17131TIP3   OH272807   4.937   1.817  15.945  0.0426  0.0295 -0.8815
17131TIP3    H172808   4.945   1.911  15.927 -0.0835 -0.0265 -1.2341
17131TIP3    H272809   4.874   1.785  15.880  2.9942 -1.0378 -3.3389
17132TIP3   OH272810   4.764   4.532   2.736 -0.3180  0.7164 -0.5589
17132TIP3    H172811   4.713   4.454   2.713  0.6352  0.0857 -0.5827
17132TIP3    H272812   4.833   4.535   2.669  0.8459  0.4199  0.6112
17133TIP3   OH272813   0.586   2.678  16.853  0.0961 -0.2501  0.4784
17133TIP3    H172814   0.628   2.677  16.939  1.0044 -2.3387  0.0337
17133TIP3    H272815   0.631   2.748  16.806  0.2952  0.2349  1.3735
17134TIP3   OH272816   3.473   0.338  12.991 -0.5613 -0.1691 -0.1879
17134TIP3    H172817   3.425   0.394  13.053 -0.8566 -1.4862  0.7926
17134TIP3    H272818   3.561   0.334  13.028 -0.4753 -0.1636 -0.3921
17135TIP3   OH272819   1.165   1.341  12.388 -1.0127 -0.7369 -0.1545
17135TIP3    H172820   1.188   1.398  12.315 -0.7590 -0.4537  0.1439
17135TIP3    H272821   1.185   1.393  12.466 -3.8256 -0.0156  0.1328
17136TIP3   OH272822   6.555   5.345   6.268  0.1558  0.4584  0.2575
17136TIP3    H172823   6.602   5.401   6.207  1.0815  2.5080  2.7766
17136TIP3    H272824   6.617   5.275   6.289 -0.3078 -0.4852 -1.3801
17137TIP3   OH272825   1.682   2.740  16.342  0.3283  0.3677 -0.0963
17137TIP3    H172826   1.742   2.800  16.388  1.2574  0.9098 -1.9791
17137TIP3    H272827   1.733   2.660  16.328  0.0873  0.2443 -0.2797
17138TIP3   OH272828   6.751   4.620  15.338  0.0063 -0.3539 -0.0728
17138TIP3    H172829   6.687   4.690  15.348 -0.4378 -0.8128  0.2995
17138TIP3    H272830   6.802   4.623  15.419  1.2493  0.7918 -0.8618
17139TIP3   OH272831   1.363   1.160  15.612 -0.3402 -0.1629  0.0942
17139TIP3    H172832   1.382   1.077  15.656  2.1824  0.4627  0.2532
17139TIP3    H272833   1.449   1.199  15.596 -1.5379  3.2771  1.6408
17140TIP3   OH272834   3.661   3.029   3.462 -0.3088  0.1937  0.6118
17140TIP3    H172835   3.687   2.946   3.502  0.1380  0.9013  1.7899
17140TIP3    H272836   3.739   3.083   3.466 -0.0926  0.0993 -1.7085
17141TIP3   OH272837   4.708   2.122  13.041  0.6284 -0.2719  0.5775
17141TIP3    H172838   4.661   2.040  13.027 -0.1456  0.2396  0.2027
17141TIP3    H272839   4.664   2.186  12.985  1.5487  0.2906  0.4716
17142TIP3   OH272840   3.052   6.775  14.246  0.2843  0.1098  0.7730
17142TIP3    H172841   3.013   6.852  14.288  2.7915  1.7649  0.1851
17142TIP3    H272842   2.977   6.722  14.220 -1.4299  0.9458  3.7728
17143TIP3   OH272843   2.422   0.537   3.487 -0.2564  0.3324 -0.3809
17143TIP3    H172844   2.363   0.538   3.562 -0.4027  1.4402 -0.5104
17143TIP3    H272845   2.442   0.629   3.470  2.0234 -0.0455  0.0643
17144TIP3   OH272846   5.845   5.740  13.154 -0.1909 -0.1545  0.0858
17144TIP3    H172847   5.935   5.769  13.169  0.7650 -3.7182  1.5975
17144TIP3    H272848   5.806   5.735  13.242 -1.0231 -1.2947 -0.3384
17145TIP3   OH272849   4.291   2.308   5.809  0.7650 -0.6778 -0.3809
17145TIP3    H172850   4.198   2.296   5.829  0.4678  1.0887 -0.6871
17145TIP3    H272851   4.336   2.271   5.885 -0.1724 -1.6132 -0.2613
17146TIP3   OH272852   5.848   0.280   2.195 -0.2618  0.2975  0.0906
17146TIP3    H172853   5.784   0.210   2.210 -0.3916  0.3418 -0.2566
17146TIP3    H272854   5.896   0.253   2.118  0.0499  0.3326  0.2726
17147TIP3   OH272855   3.951   6.280   3.671 -0.0855 -0.3917 -0.0552
17147TIP3    H172856   3.943   6.226   3.749  2.0434 -0.4222  0.1717
17147TIP3    H272857   3.960   6.217   3.599 -1.0392 -0.3565 -0.2093
17148TIP3   OH272858   0.724   1.823  15.774 -0.8631 -0.3171  0.2680
17148TIP3    H172859   0.711   1.917  15.786 -1.2185 -0.4569  0.9717
17148TIP3    H272860   0.721   1.787  15.862  2.2479 -0.6277  0.3262
17149TIP3   OH272861   6.437   0.222   5.328 -0.2173 -0.0775 -0.1609
17149TIP3    H172862   6.402   0.272   5.255 -0.4079 -0.3504 -0.2579
17149TIP3    H272863   6.375   0.150   5.340  0.3726 -0.6270 -0.4020
17150TIP3   OH272864   4.575   5.318   3.437  0.4422  0.4985  0.0019
17150TIP3    H172865   4.532   5.236   3.413  0.5311  0.6681 -0.7527
17150TIP3    H272866   4.531   5.345   3.517  0.9025 -0.6490  0.6530
17151TIP3   OH272867   1.632   0.718   2.505  0.3391 -0.1803 -0.7950
17151TIP3    H172868   1.604   0.650   2.444  0.4197 -0.7913 -0.1536
17151TIP3    H272869   1.567   0.717   2.574  0.2668  0.4910 -0.8474
17152TIP3   OH272870   1.851   0.011   4.636 -0.4804  0.0604  0.1806
17152TIP3    H172871   1.788  -0.060   4.647 -1.7570  1.4260  1.8296
17152TIP3    H272872   1.798   0.090   4.627  0.9573  1.3575  2.4468
17153TIP3   OH272873   6.410   3.129   2.051 -0.1105 -0.4508  0.7585
17153TIP3    H172874   6.389   3.201   2.110 -0.1466 -0.6783  1.0235
17153TIP3    H272875   6.410   3.168   1.964 -1.0967 -0.3345  0.8086
17154TIP3   OH272876   0.017   3.355  14.936 -0.1880  0.1563 -0.6849
17154TIP3    H172877   0.097   3.330  14.890  1.6684  3.1428  0.7264
17154TIP3    H272878   0.033   3.332  15.028 -0.5427  1.5979 -0.2385
17155TIP3   OH272879   0.726   5.484  13.574 -0.1904  0.2756 -0.1442
17155TIP3    H172880   0.722   5.475  13.479 -0.1469  1.4086 -0.2627
17155TIP3    H272881   0.675   5.563  13.593 -0.2332  0.0330  0.7753
17156TIP3   OH272882   0.630   4.053  15.405  0.0462  0.0190 -0.8234
17156TIP3    H172883   0.604   4.074  15.316  0.3053  0.9273 -0.6872
17156TIP3    H272884   0.722   4.030  15.399  0.5386  1.8437 -0.5269
17157TIP3   OH272885   5.929   4.814  14.933 -0.1534 -0.4369  0.9262
17157TIP3    H172886   5.952   4.897  14.892 -2.3329  0.6096  1.7492
17157TIP3    H272887   5.978   4.813  15.015 -0.7278  0.3922  1.2782
17158TIP3   OH272888   5.365   5.237  16.052  0.2580  0.2616  0.1018
17158TIP3    H172889   5.379   5.268  15.962 -0.4688  1.5830  0.4401
17158TIP3    H272890   5.280   5.272  16.077  0.7035  0.3554  1.5174
17159TIP3   OH272891   6.732   3.388   4.331 -0.0925  0.2726 -0.1673
17159TIP3    H172892   6.712   3.364   4.422  0.6928  0.0815 -0.0396
17159TIP3    H272893   6.827   3.396   4.329 -0.1427  0.7198 -0.8708
17160TIP3   OH272894   1.878   5.557  11.180  0.6236 -0.4968  0.0692
17160TIP3    H172895   1.806   5.617  11.200  1.2115 -0.8188  3.5285
17160TIP3    H272896   1.835   5.479  11.143 -0.4441  0.6930 -1.2396
17161TIP3   OH272897   4.868   2.564  12.129 -0.5867  0.0929 -0.0243
17161TIP3    H172898   4.894   2.591  12.217 -2.2834 -1.1030  0.8621
17161TIP3    H272899   4.786   2.610  12.113  0.2104  1.0765 -1.3976
17162TIP3   OH272900   4.851   5.701   5.498 -0.7300  0.2146  0.1551
17162TIP3    H172901   4.762   5.691   5.463 -0.3434 -0.7470 -0.5911
17162TIP3    H272902   4.896   5.756   5.434  0.3019 -2.4693 -1.5161
17163TIP3   OH272903   4.174   1.488   2.437 -0.1996  0.3738  0.3969
17163TIP3    H172904   4.113   1.423   2.472 -1.2838  0.6054 -1.0091
17163TIP3    H272905   4.131   1.572   2.453  0.9824  0.7303  1.7870
17164TIP3   OH272906   5.883   2.189   5.373  0.5351  0.5107  0.4175
17164TIP3    H172907   5.954   2.128   5.351  0.7557  0.3243  1.5841
17164TIP3    H272908   5.836   2.145   5.444  0.4300  1.4993  0.9633
17165TIP3   OH272909   5.766   2.886   0.094  0.8351  0.4123  0.2273
17165TIP3    H172910   5.778   2.831   0.171  1.6506  0.4156  0.1149
17165TIP3    H272911   5.835   2.857   0.034  0.2077  0.4054 -0.4986
17166TIP3   OH272912   2.598   6.650   1.472 -0.1569 -0.1816 -0.2467
17166TIP3    H172913   2.586   6.692   1.386 -1.9754  0.4227  0.2691
17166TIP3    H272914   2.518   6.599   1.485  0.1781 -0.3988  1.0176
17167TIP3   OH272915   2.919   6.232   1.547  0.3727 -0.1302 -0.0518
17167TIP3    H172916   2.856   6.236   1.475 -1.3743 -1.8812  1.3360
17167TIP3    H272917   2.971   6.312   1.538 -0.1946 -0.0320 -2.8877
17168TIP3   OH272918   2.689   5.863  12.013 -0.1599 -0.4752 -0.3843
17168TIP3    H172919   2.610   5.816  11.986 -0.4450 -0.6731  0.7598
17168TIP3    H272920   2.757   5.829  11.956 -0.9540 -0.1199 -1.5591
17169TIP3   OH272921   3.362   5.776  13.005 -0.0455 -0.4910 -0.4530
17169TIP3    H172922   3.282   5.829  13.013 -0.3080 -0.7547 -1.3154
17169TIP3    H272923   3.425   5.833  12.962 -0.3793 -0.9184 -1.5325
17170TIP3   OH272924   0.872   2.563  17.080  0.0566  0.1776  0.1479
17170TIP3    H172925   0.930   2.577  17.156  1.1887  0.4804 -0.7558
17170TIP3    H272926   0.820   2.643  17.075 -1.6083 -0.7427  1.9384
17171TIP3   OH272927   2.328   6.652  13.556 -0.1411  0.4903  0.6653
17171TIP3    H172928   2.345   6.566  13.596  0.4900  0.2730 -0.0500
17171TIP3    H272929   2.405   6.668  13.501 -0.1301  1.6486  1.0135
17172TIP3   OH272930   6.549   1.617  11.221 -0.5674 -0.6494  0.8707
17172TIP3    H172931   6.622   1.566  11.185 -0.0028  0.8030 -0.0801
17172TIP3    H272932   6.473   1.587  11.171 -0.3216 -0.9048  0.6474
17173TIP3   OH272933   6.196   4.608   2.324  0.4120 -0.2440  0.9293
17173TIP3    H172934   6.199   4.692   2.277  1.2710  0.2636  1.8411
17173TIP3    H272935   6.164   4.545   2.260 -1.6689  1.0621  0.6487
17174TIP3   OH272936   3.840   3.690  14.530 -0.2739  0.7104  0.9476
17174TIP3    H172937   3.767   3.663  14.586 -0.5893 -0.8535 -0.1898
17174TIP3    H272938   3.887   3.609  14.513 -0.7409  1.0027 -1.8543
17175TIP3   OH272939   1.242   0.737  15.474 -0.0822 -0.1633  0.4362
17175TIP3    H172940   1.272   0.804  15.413 -1.3741  0.3367  0.3251
17175TIP3    H272941   1.249   0.655  15.426 -0.0145  0.0946  0.0129
17176TIP3   OH272942   0.067   1.500   0.971 -0.5322 -0.0603  0.3827
17176TIP3    H172943   0.093   1.556   0.898 -0.2077 -0.9620 -0.1946
17176TIP3    H272944  -0.020   1.531   0.995  0.2072  1.5988  0.9662
17177TIP3   OH272945   4.111   4.260  16.718  0.4017  0.4538 -0.3980
17177TIP3    H172946   4.126   4.270  16.624 -0.7380 -2.1210 -0.8899
17177TIP3    H272947   4.188   4.299  16.759  1.1764  1.0987 -2.4082
17178TIP3   OH272948   4.711   1.013   5.892  0.1701  0.2626 -0.0237
17178TIP3    H172949   4.642   1.022   5.958 -1.4119  2.1897 -1.8961
17178TIP3    H272950   4.788   1.051   5.934 -1.0689  2.4296  0.3655
17179TIP3   OH272951   6.616   5.681   2.244  0.0009  0.3660 -0.0845
17179TIP3    H172952   6.627   5.715   2.333  3.7778  0.2840 -0.4352
17179TIP3    H272953   6.664   5.743   2.189 -1.7989  0.0896 -1.9942
17180TIP3   OH272954   0.222   5.731   2.696  0.1254  0.0097  0.5375
17180TIP3    H172955   0.206   5.640   2.721 -2.0195  0.0011 -0.7355
17180TIP3    H272956   0.240   5.727   2.602 -2.8922  1.1596 -0.1485
17181TIP3   OH272957   4.196   3.335   3.331 -0.0122  0.2297 -0.3057
17181TIP3    H172958   4.168   3.376   3.413  0.3909  1.8576 -0.9622
17181TIP3    H272959   4.279   3.378   3.310  0.9827 -1.7057 -0.4688
17182TIP3   OH272960   4.539   5.916  13.907  0.1219  0.2788  0.1111
17182TIP3    H172961   4.560   6.004  13.876 -0.3975 -0.0154 -1.1096
17182TIP3    H272962   4.467   5.887  13.851 -0.0292 -0.7390  0.8127
17183TIP3   OH272963   3.289   1.592   2.085 -0.5046  0.6198 -0.6294
17183TIP3    H172964   3.353   1.522   2.079  0.9978  1.9005 -0.0218
17183TIP3    H272965   3.334   1.669   2.050 -1.0616  1.9540  1.5027
17184TIP3   OH272966   4.153   5.036  11.177  0.5476 -0.4605 -0.6228
17184TIP3    H172967   4.156   5.022  11.272  2.2172  2.2907 -0.2113
17184TIP3    H272968   4.106   5.118  11.166  1.8667  0.1434 -2.0416
17185TIP3   OH272969   5.459   4.672   0.983 -1.1458  0.0428 -0.5092
17185TIP3    H172970   5.435   4.751   0.935 -0.6766  0.2295 -0.4319
17185TIP3    H272971   5.520   4.626   0.925 -0.3466  0.4136  0.0275
17186TIP3   OH272972   5.589   4.100   5.524 -0.7058  0.4800  0.3664
17186TIP3    H172973   5.532   4.068   5.455 -0.4120  0.8127 -0.0355
17186TIP3    H272974   5.530   4.123   5.596 -1.0504  0.5496  0.0616
17187TIP3   OH272975   4.206   4.652  14.024 -0.0837 -0.5094  0.0667
17187TIP3    H172976   4.143   4.724  14.016  0.2884 -0.2842 -0.8612
17187TIP3    H272977   4.166   4.580  13.974  0.5825 -0.2388 -0.8559
17188TIP3   OH272978   2.084   5.744  15.593 -0.3491  0.6962 -0.0397
17188TIP3    H172979   1.993   5.771  15.577 -0.5368  1.2657  1.8390
17188TIP3    H272980   2.086   5.724  15.686  0.7874 -2.0199 -0.6173
17189TIP3   OH272981   5.932   4.833  13.876 -0.5274  0.0935  0.6682
17189TIP3    H172982   5.864   4.770  13.853 -0.1096  0.0003 -0.3257
17189TIP3    H272983   5.891   4.919  13.861 -0.2821  0.0326 -0.3662
17190TIP3   OH272984   4.423   4.008  14.917 -0.2073  0.0800  0.8195
17190TIP3    H172985   4.420   4.042  14.828  0.5571  1.2068  1.2164
17190TIP3    H272986   4.332   4.014  14.948 -0.6788 -1.3436 -0.2476
17191TIP3   OH272987   0.305   0.794  12.727 -0.4148 -0.1314 -0.4815
17191TIP3    H172988   0.338   0.810  12.639 -0.4941 -1.3891 -0.7600
17191TIP3    H272989   0.384   0.780  12.780 -0.4143 -0.9103 -0.6810
17192TIP3   OH272990   4.598   0.292   5.804 -0.9436 -0.1051  0.3297
17192TIP3    H172991   4.527   0.280   5.867 -1.2387  1.6290  0.3447
17192TIP3    H272992   4.633   0.379   5.823 -0.3075 -0.0173 -1.1747
17193TIP3   OH272993   1.151   1.212  13.025 -0.1199 -0.1059 -0.1055
17193TIP3    H172994   1.090   1.278  12.991  0.1448 -1.1649 -2.6817
17193TIP3    H272995   1.198   1.257  13.095 -0.0345  2.4074 -1.7336
17194TIP3   OH272996   0.758   1.799   2.269  0.1540 -0.4271  0.3627
17194TIP3    H172997   0.731   1.733   2.332  1.6169 -0.5570  0.8829
17194TIP3    H272998   0.729   1.765   2.184 -2.1883 -0.0518  0.9888
17195TIP3   OH272999   3.520   4.329   5.073 -0.4769  0.8167  0.0483
17195TIP3    H173000   3.535   4.239   5.104  2.6768  1.5551  0.8893
17195TIP3    H273001   3.470   4.370   5.144 -0.6570  0.1108  0.3348
17196TIP3   OH273002   0.442   3.812  13.740 -0.3638 -0.8825  0.6801
17196TIP3    H173003   0.425   3.725  13.776 -0.5229 -0.6151  1.2634
17196TIP3    H273004   0.499   3.854  13.805  0.5854 -0.9277 -0.1143
17197TIP3   OH273005   1.992   5.338   2.293 -0.2949 -0.0731  0.4649
17197TIP3    H173006   1.946   5.301   2.368 -0.1033  2.1231  1.6952
17197TIP3    H273007   1.986   5.432   2.305  1.9526  0.2918 -0.9390
17198TIP3   OH273008   2.489   3.104   5.778 -0.0816 -0.3326  0.2826
17198TIP3    H173009   2.521   3.104   5.687 -1.0852 -1.4049 -0.0862
17198TIP3    H273010   2.461   3.194   5.794  1.8665  0.3178  0.1750
17199TIP3   OH273011   1.494   4.086   5.901  0.2111 -0.4818  0.6083
17199TIP3    H173012   1.495   4.013   5.840  1.1799  0.8147 -0.9497
17199TIP3    H273013   1.562   4.145   5.869 -1.6437  1.8696  0.9124
17200TIP3   OH273014   2.038   6.541   4.656 -0.0439 -0.4215  0.2272
17200TIP3    H173015   2.110   6.604   4.646 -0.1325 -0.3054  0.3129
17200TIP3    H273016   2.010   6.551   4.747  0.2267 -0.8981  0.3604
17201TIP3   OH273017   3.801   3.107   1.334  0.0187  0.8535 -0.8938
17201TIP3    H173018   3.853   3.160   1.394 -1.6875  0.0927  1.3429
17201TIP3    H273019   3.857   3.096   1.257  2.1243  2.1823  0.3882
17202TIP3   OH273020   4.735   6.309   0.702  0.3409  0.2380 -0.1837
17202TIP3    H173021   4.806   6.317   0.639  0.4000  0.6194 -0.0752
17202TIP3    H273022   4.680   6.238   0.668  0.2312  0.6113 -0.8035
17203TIP3   OH273023   4.371   4.352  14.342 -0.0095 -0.5140  0.8222
17203TIP3    H173024   4.282   4.370  14.312  0.7669  2.1127 -0.0338
17203TIP3    H273025   4.425   4.359  14.263  1.1049 -0.9494  1.5370
17204TIP3   OH273026   3.539   3.936  12.902  0.0806 -0.2343 -0.3202
17204TIP3    H173027   3.448   3.921  12.878  0.0150 -1.6714  0.7277
17204TIP3    H273028   3.535   3.984  12.985  0.2631 -1.0351  0.1581
17205TIP3   OH273029   5.918   3.520   4.973  0.2508 -0.0026 -0.0963
17205TIP3    H173030   5.834   3.515   4.928 -0.6612 -0.4741  1.6184
17205TIP3    H273031   5.972   3.574   4.916 -1.7415  1.7320 -0.4018
17206TIP3   OH273032   3.580   2.456   4.635  0.4759  0.1323  0.1117
17206TIP3    H173033   3.638   2.514   4.586  0.7976 -0.4691 -0.2186
17206TIP3    H273034   3.638   2.389   4.671  0.0965 -0.0173  0.4472
17207TIP3   OH273035   5.852   5.157  15.471  0.1319 -0.8415 -0.5580
17207TIP3    H173036   5.798   5.077  15.465  0.3557 -0.9594 -1.0121
17207TIP3    H273037   5.942   5.125  15.479  0.1545 -0.6407  0.0355
17208TIP3   OH273038   5.093   0.282  16.022  0.5768 -0.0876  0.0440
17208TIP3    H173039   5.142   0.350  16.068  0.2342  0.8743 -0.9979
17208TIP3    H273040   5.128   0.283  15.932  1.4395 -2.1312  0.3276
17209TIP3   OH273041   2.174   6.039   0.802  0.1494 -0.7303 -0.2916
17209TIP3    H173042   2.133   5.998   0.726 -1.9852  0.2260  0.2901
17209TIP3    H273043   2.103   6.090   0.842  1.3744 -0.8283  2.0551
17210TIP3   OH273044   2.857   5.607  16.474  0.4288  0.0551 -0.3227
17210TIP3    H173045   2.858   5.651  16.558 -1.5860  1.0349 -0.7765
17210TIP3    H273046   2.937   5.636  16.430  0.2552  1.4767  0.2856
17211TIP3   OH273047   3.607   4.855   1.323  0.2213  0.7565 -0.1137
17211TIP3    H173048   3.628   4.945   1.348  1.4402  0.3254  0.4210
17211TIP3    H273049   3.598   4.808   1.405 -2.3583  0.8016 -0.3363
17212TIP3   OH273050   5.843   5.975  16.010 -1.2924  0.7759  0.0570
17212TIP3    H173051   5.798   5.912  16.067  2.1088 -0.3286  1.6464
17212TIP3    H273052   5.831   5.939  15.922  0.6719 -2.2170  0.9493
17213TIP3   OH273053   2.364   2.912  16.277  0.4107  0.2630  0.0914
17213TIP3    H173054   2.334   2.984  16.333  1.5175  0.5941  0.2636
17213TIP3    H273055   2.452   2.937  16.250  0.3754 -0.5092 -0.7543
17214TIP3   OH273056   6.111   1.229  16.900  0.8749 -0.0707  0.0797
17214TIP3    H173057   6.056   1.151  16.907  2.1877 -1.0627 -0.3601
17214TIP3    H273058   6.146   1.225  16.811  2.2137  0.1417  0.5850
17215TIP3   OH273059   0.145   2.717   1.257 -0.0372 -0.3906 -0.2905
17215TIP3    H173060   0.111   2.755   1.338  1.5394  1.8832 -0.6460
17215TIP3    H273061   0.088   2.750   1.188 -0.0088 -0.4831 -0.3586
17216TIP3   OH273062   2.419   1.455   2.066 -0.2446  0.8174 -0.1543
17216TIP3    H173063   2.444   1.459   1.974 -0.2253 -1.2546 -0.2608
17216TIP3    H273064   2.499   1.430   2.112 -0.7927 -0.4482  0.1356
17217TIP3   OH273065   4.564   0.008   0.119  0.0555  0.2836 -0.3837
17217TIP3    H173066   4.569   0.021   0.024 -1.3478 -2.7442 -0.9534
17217TIP3    H273067   4.652   0.025   0.151  0.1591  2.9560 -1.9810
17218TIP3   OH273068   2.794   6.066  10.395  0.0504  0.4370  0.2234
17218TIP3    H173069   2.840   5.984  10.373  1.9478  1.3234  0.7547
17218TIP3    H273070   2.773   6.058  10.488 -2.3859 -0.6613 -0.3873
17219TIP3   OH273071   2.021   1.569  14.727  0.7989 -0.5226 -0.3298
17219TIP3    H173072   2.002   1.556  14.820 -0.2682  0.2210 -0.4335
17219TIP3    H273073   2.110   1.604  14.725  1.4375 -2.0702  0.3093
17220TIP3   OH273074   2.852   3.314  16.032 -0.1553 -0.1286 -0.2501
17220TIP3    H173075   2.791   3.334  16.103 -1.7425 -0.7695 -1.4013
17220TIP3    H273076   2.812   3.354  15.954  1.9086  1.1880 -0.6743
17221TIP3   OH273077   2.254   4.801   0.222  0.0001 -0.4192 -0.4776
17221TIP3    H173078   2.211   4.750   0.290  1.2554 -0.3075  0.4256
17221TIP3    H273079   2.230   4.758   0.140 -1.6604 -0.4545  0.0192
17222TIP3   OH273080   0.658   3.025   5.801  0.0845 -0.1199 -0.1641
17222TIP3    H173081   0.725   2.969   5.761  0.6542 -0.1664  0.8274
17222TIP3    H273082   0.576   2.996   5.762  0.3436 -1.8346  0.5003
17223TIP3   OH273083   1.173   0.849   2.109 -0.2806  0.7452  0.3919
17223TIP3    H173084   1.082   0.858   2.138 -0.4301  0.8030 -0.0890
17223TIP3    H273085   1.204   0.939   2.101  0.2647  0.7015  1.9393
17224TIP3   OH273086   2.091   3.304   5.342 -0.0535  0.3551  0.1607
17224TIP3    H173087   2.128   3.249   5.273  0.0270  1.8688 -1.0227
17224TIP3    H273088   2.164   3.359   5.371 -1.0813  2.6217 -1.4543
17225TIP3   OH273089   1.460   6.546   5.623 -0.0528 -0.3698  0.1934
17225TIP3    H173090   1.387   6.500   5.666 -0.7753 -1.8967 -2.5467
17225TIP3    H273091   1.530   6.481   5.619  1.0335  0.6928  1.6564
17226TIP3   OH273092   0.251   3.212   1.401 -0.3307 -0.2886  0.5344
17226TIP3    H173093   0.226   3.121   1.383  1.5389 -1.4487  3.4209
17226TIP3    H273094   0.170   3.253   1.431 -0.8456 -1.4785  0.8285
17227TIP3   OH273095   5.085   3.455  15.486  0.3351 -0.1348  0.0830
17227TIP3    H173096   5.175   3.470  15.516  0.2434  0.5703  0.0107
17227TIP3    H273097   5.030   3.492  15.554  0.1247  1.4336 -0.9231
17228TIP3   OH273098   3.813   3.126   0.498 -0.2133  0.7697 -0.2315
17228TIP3    H173099   3.868   3.119   0.575 -1.2734 -0.9281  0.4060
17228TIP3    H273100   3.872   3.111   0.424 -0.0021 -2.3712  0.4984
17229TIP3   OH273101   3.164   1.155  12.520 -0.5511  0.0573 -0.3666
17229TIP3    H173102   3.105   1.218  12.478  0.7086  1.5233 -0.0153
17229TIP3    H273103   3.199   1.103  12.447 -2.0455 -0.6345 -0.6023
17230TIP3   OH273104   1.120   6.518  15.829  0.2383 -0.0842 -0.4672
17230TIP3    H173105   1.109   6.501  15.923  1.5447 -0.8639 -0.4326
17230TIP3    H273106   1.122   6.431  15.789  0.0161  0.2343 -1.1779
17231TIP3   OH273107   1.423   2.134  16.150  0.3655  0.7390  0.3680
17231TIP3    H173108   1.451   2.077  16.221 -0.0525 -0.1268 -0.1555
17231TIP3    H273109   1.347   2.180  16.184 -0.1063 -0.0075  0.3282
17232TIP3   OH273110   3.565   5.487  15.175  0.0996  0.3853 -0.0496
17232TIP3    H173111   3.656   5.484  15.148  0.3098 -0.8216  0.7747
17232TIP3    H273112   3.562   5.556  15.242  0.0675  1.5934 -1.2718
17233TIP3   OH273113   2.787   6.374  10.708 -0.7220 -0.2822  0.0272
17233TIP3    H173114   2.798   6.359  10.614 -2.4103 -0.6502 -0.1288
17233TIP3    H273115   2.854   6.318  10.749  0.1930  0.0844 -0.9556
17234TIP3   OH273116   6.021   1.888   0.766 -0.7062 -0.0080  0.0083
17234TIP3    H173117   6.110   1.911   0.793 -0.0562 -0.9561 -1.3069
17234TIP3    H273118   5.990   1.965   0.718 -0.1849 -0.1098 -0.4959
17235TIP3   OH273119   2.163   0.785   4.405  0.3308 -0.7681 -0.0546
17235TIP3    H173120   2.179   0.862   4.460 -0.5315 -1.5414  1.2899
17235TIP3    H273121   2.187   0.711   4.460 -0.4458 -1.5420 -0.7548
17236TIP3   OH273122   1.488   2.003   3.060  0.3926 -0.1205  0.3858
17236TIP3    H173123   1.535   2.084   3.077  2.4936 -1.5843  1.8982
17236TIP3    H273124   1.527   1.970   2.979  1.1597 -0.7164  0.9820
17237TIP3   OH273125   4.612   6.129   4.080 -0.3211  0.3458 -0.1166
17237TIP3    H173126   4.674   6.066   4.042  1.0011  1.7305 -0.3053
17237TIP3    H273127   4.591   6.188   4.008 -3.6141 -1.4008 -0.6531
17238TIP3   OH273128   6.601   3.962   6.421  0.6831 -0.5240 -0.2603
17238TIP3    H173129   6.633   3.916   6.499  1.7462 -1.1412 -1.0614
17238TIP3    H273130   6.541   4.028   6.456 -1.0196 -2.6091  0.9093
17239TIP3   OH273131   1.610   6.451   1.759 -0.2927 -0.3557  0.0682
17239TIP3    H173132   1.683   6.425   1.815  0.3445 -1.3355 -1.1788
17239TIP3    H273133   1.556   6.373   1.752 -1.2055  0.2209  0.5728
17240TIP3   OH273134   1.077   2.797   0.202 -0.4864  0.3687  0.2567
17240TIP3    H173135   1.132   2.835   0.133  0.4343 -0.9567  0.2454
17240TIP3    H273136   0.994   2.843   0.195  0.1960  1.4863 -0.5819
17241TIP3   OH273137   2.413   5.567  16.602 -0.2216  0.0200  0.1009
17241TIP3    H173138   2.366   5.486  16.586 -1.2157  0.1114  2.3124
17241TIP3    H273139   2.346   5.635  16.601  0.3145  0.5612  0.2216
17242TIP3   OH273140   5.850   4.444  16.687 -0.6415 -0.1871 -0.0247
17242TIP3    H173141   5.885   4.532  16.673  0.3953 -0.6912 -0.6648
17242TIP3    H273142   5.805   4.422  16.605  1.3721 -1.2673 -0.9122
17243TIP3   OH273143   4.203   6.423  15.873 -0.8545 -0.3005  0.7746
17243TIP3    H173144   4.198   6.444  15.966 -0.1040 -0.0197  0.7577
17243TIP3    H273145   4.296   6.428  15.853 -1.3581  3.5662 -0.8924
17244TIP3   OH273146   5.144   0.558  17.196 -0.3225 -0.2443  0.0329
17244TIP3    H173147   5.198   0.619  17.247 -2.5810  1.8188  0.0174
17244TIP3    H273148   5.203   0.525  17.128  0.7824  2.3808 -0.3322
17245TIP3   OH273149   0.372   1.727   2.406  0.5456 -0.0356 -0.1411
17245TIP3    H173150   0.286   1.754   2.376 -0.1653 -0.2057  1.6492
17245TIP3    H273151   0.406   1.802   2.454  1.0928 -0.2169 -0.2378
17246TIP3   OH273152   3.825   1.929  12.092 -0.4549  0.7994  0.4152
17246TIP3    H173153   3.756   1.940  12.158 -2.5753  0.1431 -1.6112
17246TIP3    H273154   3.799   1.851  12.043  0.8867  1.4421 -1.3931
17247TIP3   OH273155   3.059   1.169  15.638  0.3845 -0.6423 -0.7719
17247TIP3    H173156   3.094   1.087  15.673  0.7073 -0.4295 -0.6030
17247TIP3    H273157   3.052   1.227  15.713  2.3978  0.2801 -1.2743
17248TIP3   OH273158   1.586   5.765  12.753  0.5661  0.0121  0.1001
17248TIP3    H173159   1.654   5.751  12.820  0.1644 -1.1145  0.2866
17248TIP3    H273160   1.506   5.732  12.794 -0.0990  1.3582 -0.1110
17249TIP3   OH273161   1.700   3.865  16.269 -0.3819 -0.1828  0.2911
17249TIP3    H173162   1.671   3.798  16.330 -0.3967 -0.1343  0.3384
17249TIP3    H273163   1.649   3.850  16.190  0.5396 -1.0288 -0.1495
17250TIP3   OH273164   0.969   1.493  11.468  0.2438 -0.3087  0.7151
17250TIP3    H173165   1.027   1.503  11.543  1.1580  2.6102 -0.3161
17250TIP3    H273166   0.884   1.525  11.499  0.3297 -0.2261  0.8661
17251TIP3   OH273167   6.774   6.361  14.676  0.0844  0.0638 -0.3213
17251TIP3    H173168   6.686   6.324  14.685  0.0121  0.1651 -0.5876
17251TIP3    H273169   6.803   6.330  14.590  0.5747 -0.5327  0.0587
17252TIP3   OH273170   5.176   6.171   0.206 -0.0596  0.0274  0.2565
17252TIP3    H173171   5.176   6.265   0.189  1.9151 -0.2667 -1.5477
17252TIP3    H273172   5.137   6.162   0.294 -0.9287  2.4361  0.1496
17253TIP3   OH273173   6.745   2.205  16.876  0.5388 -0.0100 -0.1787
17253TIP3    H173174   6.819   2.232  16.822  0.3854 -1.9507 -1.3882
17253TIP3    H273175   6.675   2.268  16.854  1.1396  0.5025 -0.6420
17254TIP3   OH273176   6.771   0.638   0.606  0.5034  0.3418 -0.0749
17254TIP3    H173177   6.852   0.596   0.634  1.1134  0.8601 -1.0437
17254TIP3    H273178   6.798   0.723   0.573 -0.1227 -0.4374 -2.6886
17255TIP3   OH273179   4.184   3.330  16.497 -0.3579  0.6462 -0.0343
17255TIP3    H173180   4.100   3.339  16.543 -0.2091 -0.9661  0.6082
17255TIP3    H273181   4.243   3.389  16.544 -0.7114  0.4964  0.6161
17256TIP3   OH273182   4.119   4.252   0.397 -0.3599 -0.5636  0.3978
17256TIP3    H173183   4.116   4.247   0.493  0.7608  1.7348  0.5821
17256TIP3    H273184   4.049   4.312   0.374  0.4495  0.2090 -0.0907
17257TIP3   OH273185   1.117   0.334  15.690  0.0507  0.1796 -0.2927
17257TIP3    H173186   1.087   0.332  15.600  0.9777 -1.8782 -0.5789
17257TIP3    H273187   1.207   0.303  15.687  0.3584  0.8349  1.2542
17258TIP3   OH273188   1.232   4.625  14.371  0.1389 -0.2100 -0.0127
17258TIP3    H173189   1.270   4.689  14.430  1.2871 -0.7914 -0.1126
17258TIP3    H273190   1.147   4.662  14.347 -0.2098  0.1857  1.7410
17259TIP3   OH273191   3.826   2.731  13.512 -0.6411 -0.7194  0.3349
17259TIP3    H173192   3.776   2.734  13.431  0.0602 -1.4719 -0.1266
17259TIP3    H273193   3.777   2.672  13.569 -1.0459 -0.3171  0.4080
17260TIP3   OH273194   6.566   1.066  14.323 -0.0605 -0.7139  0.1371
17260TIP3    H173195   6.625   1.009  14.272  1.7698  0.4046  0.9837
17260TIP3    H273196   6.554   1.143  14.268  0.6069 -0.2133  0.6935
17261TIP3   OH273197   5.485   6.040   5.872 -0.4395  0.0683 -0.0456
17261TIP3    H173198   5.439   5.959   5.893 -2.3642  0.7247 -1.5946
17261TIP3    H273199   5.431   6.109   5.910 -0.1234  0.7949 -0.9038
17262TIP3   OH273200   3.893   4.608  12.776 -1.0094  0.7190  0.2915
17262TIP3    H173201   3.966   4.568  12.823 -1.1347 -0.0224 -0.1598
17262TIP3    H273202   3.896   4.700  12.803 -0.2621  0.5736  0.7189
17263TIP3   OH273203   6.344   1.850  15.352 -0.0060 -0.1903  0.1361
17263TIP3    H173204   6.346   1.945  15.358  0.5220 -0.2102  0.3323
17263TIP3    H273205   6.422   1.828  15.300  1.0229 -0.6403  1.8536
17264TIP3   OH273206   3.512   2.680  15.405  0.2406  0.1448  0.0534
17264TIP3    H173207   3.505   2.769  15.370  1.2285  1.5341  3.2719
17264TIP3    H273208   3.462   2.682  15.486  2.6344 -1.4328  1.6205
17265TIP3   OH273209   4.686   0.760   2.246 -0.2334  0.1747  0.3185
17265TIP3    H173210   4.605   0.791   2.206  0.3969 -0.6333 -1.6332
17265TIP3    H273211   4.683   0.665   2.237  1.0420  0.1529 -0.0233
17266TIP3   OH273212   5.952   5.552  10.744  0.0860  0.1514 -0.5143
17266TIP3    H173213   5.955   5.467  10.786  0.5486  0.7518  0.6813
17266TIP3    H273214   6.042   5.585  10.751 -0.4273  1.3812  0.3778
17267TIP3   OH273215   3.248   1.304  16.172 -0.0597  0.4134 -0.2553
17267TIP3    H173216   3.274   1.284  16.082  0.7770  0.2212  0.0200
17267TIP3    H273217   3.199   1.227  16.201  1.0484 -0.2115 -0.0142
17268TIP3   OH273218   2.537   4.229  11.835 -0.6227 -0.0583 -0.5369
17268TIP3    H173219   2.488   4.311  11.826 -1.3954 -0.6539 -1.8957
17268TIP3    H273220   2.524   4.184  11.751 -0.1829 -1.5627  0.1924
17269TIP3   OH273221   6.741   4.326  13.706  0.0759  0.4217 -0.1383
17269TIP3    H173222   6.792   4.336  13.786 -2.1482  1.7449  1.1790
17269TIP3    H273223   6.650   4.328  13.736 -0.7858  0.0953 -2.6243
17270TIP3   OH273224   6.716   0.797   4.912 -0.6671 -0.2270 -0.2810
17270TIP3    H173225   6.702   0.890   4.892 -0.9940  0.2401  1.9893
17270TIP3    H273226   6.808   0.791   4.934 -0.1402 -0.8778 -2.4759
17271TIP3   OH273227   3.078   1.819  15.901 -0.0094  0.2770 -0.1613
17271TIP3    H173228   3.012   1.872  15.946 -0.9527 -2.3442  1.6855
17271TIP3    H273229   3.145   1.802  15.966 -1.1270 -3.1236  0.2337
17272TIP3   OH273230   1.677   4.118   0.933 -0.4919 -0.4882  0.7379
17272TIP3    H173231   1.767   4.087   0.947 -0.2434  0.4479  1.2887
17272TIP3    H273232   1.685   4.180   0.860 -0.9263 -1.4576 -0.1370
17273TIP3   OH273233   1.491   4.912  10.963  0.4405  0.0818  0.0569
17273TIP3    H173234   1.532   4.841  10.914 -1.6731 -0.5257 -0.8569
17273TIP3    H273235   1.412   4.874  11.000  0.0264  1.5819  0.7536
17274TIP3   OH273236   1.804   6.460  14.095  0.0295 -0.4441 -0.0955
17274TIP3    H173237   1.830   6.510  14.172 -0.4411 -0.4811  0.0918
17274TIP3    H273238   1.857   6.496  14.023 -2.3991  2.3747 -0.5835
17275TIP3   OH273239   1.835   0.398  13.754  0.5027 -0.6634 -0.2095
17275TIP3    H173240   1.801   0.445  13.677 -0.2866 -2.0444 -0.7155
17275TIP3    H273241   1.870   0.316  13.718 -2.7837 -2.7960  1.2382
17276TIP3   OH273242   5.608   3.609   1.611 -0.4940  0.0769  0.4190
17276TIP3    H173243   5.647   3.635   1.528  0.0357 -1.7244  0.0919
17276TIP3    H273244   5.514   3.627   1.601 -0.5065 -0.6416 -0.7542
17277TIP3   OH273245   0.781   4.225   4.754 -0.0819  0.0789  0.1829
17277TIP3    H173246   0.753   4.312   4.727  0.7322 -0.2825 -1.9262
17277TIP3    H273247   0.821   4.187   4.676 -1.9863 -2.8507  0.5311
17278TIP3   OH273248   3.661   2.384  16.380 -0.4315 -0.0390  0.0318
17278TIP3    H173249   3.603   2.409  16.308 -0.5016  0.4043  0.2385
17278TIP3    H273250   3.614   2.314  16.425 -0.3835 -0.3240 -0.3599
17279TIP3   OH273251   5.842   1.722  14.799  0.1702 -0.5299  0.0646
17279TIP3    H173252   5.882   1.635  14.791  1.4869 -0.1574  2.1837
17279TIP3    H273253   5.756   1.713  14.759  0.3950 -2.7494  0.0391
17280TIP3   OH273254   6.108   4.666   1.995  0.3790  0.4248 -0.1515
17280TIP3    H173255   6.112   4.731   2.065  1.0425 -0.9117  1.0648
17280TIP3    H273256   6.060   4.592   2.033 -0.7930  0.3676 -1.6753
17281TIP3   OH273257   6.362   3.184   4.059 -0.6614 -0.2262  0.5711
17281TIP3    H173258   6.448   3.143   4.050 -1.2642 -1.7630  1.5893
17281TIP3    H273259   6.345   3.222   3.973  1.7956  1.6486  0.8551
17282TIP3   OH273260   2.112   1.793   5.928  0.0945 -0.0404 -0.5718
17282TIP3    H173261   2.091   1.798   5.834  1.9456 -0.1147 -0.9983
17282TIP3    H273262   2.033   1.826   5.971  0.1044  2.3248 -2.2385
17283TIP3   OH273263   4.405   4.739   2.180 -0.3651  0.9108  0.0794
17283TIP3    H173264   4.406   4.810   2.245  0.2325  2.8593 -1.9874
17283TIP3    H273265   4.496   4.727   2.156 -0.5382 -0.0806 -0.1044
17284TIP3   OH273266   2.554   5.190   0.821  0.1459 -0.6036 -0.9319
17284TIP3    H173267   2.541   5.139   0.741  0.8932 -0.0804 -1.3874
17284TIP3    H273268   2.576   5.125   0.888 -0.4556 -1.0368 -1.1527
17285TIP3   OH273269   4.367   1.371  15.691 -0.4588 -0.3866 -0.4111
17285TIP3    H173270   4.272   1.358  15.687 -0.2860 -1.8283  0.1096
17285TIP3    H273271   4.401   1.289  15.724  0.8386  0.6838  0.9660
17286TIP3   OH273272   3.602   6.315  12.913  0.0008  0.9841  0.1908
17286TIP3    H173273   3.622   6.222  12.906 -1.0740  0.5987  1.9046
17286TIP3    H273274   3.659   6.357  12.849 -0.8627 -1.0281 -1.9569
17287TIP3   OH273275   5.365   6.684  16.497  0.4530  0.0622  0.2608
17287TIP3    H173276   5.352   6.593  16.469  0.4676  0.4524 -1.0272
17287TIP3    H273277   5.460   6.696  16.496  0.4301  0.2225  0.0047
17288TIP3   OH273278   3.363   5.692  16.732  0.3771  0.6202  0.2552
17288TIP3    H173279   3.342   5.696  16.825 -0.3614  0.9352  0.0745
17288TIP3    H273280   3.399   5.604  16.719  0.9636  0.7576  0.9348
17289TIP3   OH273281   5.609   3.873   6.532  0.3277  0.0370  0.0892
17289TIP3    H173282   5.563   3.812   6.475  1.6910 -0.6988 -0.2496
17289TIP3    H273283   5.587   3.844   6.621  1.3517 -1.2403 -0.0743
17290TIP3   OH273284   1.780   4.973  11.490  0.2455 -0.1282  0.3527
17290TIP3    H173285   1.804   5.042  11.551  1.2199  1.0582 -1.3378
17290TIP3    H273286   1.734   5.018  11.419 -0.3764 -1.4018 -0.0620
17291TIP3   OH273287   6.721   2.332  11.925 -0.5442 -0.1313  0.7603
17291TIP3    H173288   6.641   2.312  11.973  0.0925 -1.4516  1.2799
17291TIP3    H273289   6.708   2.422  11.894 -2.1202 -0.2522  1.0330
17292TIP3   OH273290   6.583   1.857   2.557 -0.2496  0.5591  0.2182
17292TIP3    H173291   6.528   1.905   2.619 -1.0792 -2.4618  1.9171
17292TIP3    H273292   6.570   1.902   2.473 -4.4349  0.5956  0.7991
17293TIP3   OH273293   0.336   3.009  15.075 -0.4424 -0.3663  0.4225
17293TIP3    H173294   0.387   3.069  15.021  1.1801 -0.1118  2.1985
17293TIP3    H273295   0.281   2.961  15.013  1.6626 -0.3557 -1.4846
17294TIP3   OH273296   2.178   1.693   3.480 -0.6253 -0.3652  0.2135
17294TIP3    H173297   2.135   1.615   3.516  0.7796 -1.5496 -0.6255
17294TIP3    H273298   2.254   1.706   3.536 -0.0071 -0.5135 -0.5889
17295TIP3   OH273299   4.506   4.515   4.521  0.4425  0.4630  0.7796
17295TIP3    H173300   4.523   4.538   4.430  0.3569 -0.8253  0.4407
17295TIP3    H273301   4.414   4.538   4.534  0.7316  1.6142  0.8450
17296TIP3   OH273302   4.916   3.918   1.817  0.1125  0.0968  0.7175
17296TIP3    H173303   4.980   3.957   1.757 -0.9730  0.5371 -0.1678
17296TIP3    H273304   4.969   3.882   1.888  1.3465  0.4684  0.0040
17297TIP3   OH273305   0.943   2.757  14.951 -0.5805  0.5173  0.4896
17297TIP3    H173306   0.957   2.733  15.043 -0.1211  0.9485  0.5364
17297TIP3    H273307   0.852   2.735  14.934 -0.0168 -1.8885  0.3337
17298TIP3   OH273308   0.109   2.273   0.568 -0.8998  0.1311 -0.7084
17298TIP3    H173309   0.111   2.298   0.475 -2.1626  2.4991 -0.1569
17298TIP3    H273310   0.157   2.342   0.613 -1.0688 -0.5134  0.4939
17299TIP3   OH273311   2.932   0.173  12.508 -0.1998  0.1910 -0.3279
17299TIP3    H173312   2.871   0.141  12.441 -0.8823 -0.0855  0.4125
17299TIP3    H273313   2.956   0.095  12.558 -0.7358  0.5913  0.5786
17300TIP3   OH273314   1.507   1.224   6.760 -0.1217 -0.0432 -0.1292
17300TIP3    H173315   1.503   1.129   6.748  1.1632 -0.3668  1.8445
17300TIP3    H273316   1.506   1.259   6.671 -0.3763 -1.9105 -0.8815
17301TIP3   OH273317   6.371   1.708   1.553  0.2070 -0.1911 -0.7750
17301TIP3    H173318   6.410   1.722   1.467  0.9853 -0.1845 -0.4233
17301TIP3    H273319   6.382   1.792   1.598  1.5310 -0.7736  0.0142
17302TIP3   OH273320   5.657   6.397  14.086  0.6296  0.4242  0.5736
17302TIP3    H173321   5.722   6.367  14.023  1.3968  0.3015  1.4136
17302TIP3    H273322   5.592   6.443  14.033 -0.0324 -1.8254 -0.5979
17303TIP3   OH273323   2.261   0.715  12.991  0.1108  0.1074 -0.0694
17303TIP3    H173324   2.215   0.765  13.059  0.0851  1.3984 -1.0187
17303TIP3    H273325   2.215   0.631  12.989  1.7376 -0.9623  3.2865
17304TIP3   OH273326   1.750   0.515   5.323  0.2941  0.7376 -0.2316
17304TIP3    H173327   1.776   0.436   5.370 -0.6519 -0.5050 -1.7332
17304TIP3    H273328   1.711   0.572   5.390  0.0434 -0.4916  0.6817
17305TIP3   OH273329   5.936   1.609  12.162 -0.3678  0.4513  0.0163
17305TIP3    H173330   5.874   1.632  12.232  0.9818  0.8897  1.0752
17305TIP3    H273331   5.980   1.531  12.194 -0.4024  0.1122 -0.7628
17306TIP3   OH273332   1.410   2.312   5.253  0.3309 -0.3355  0.4179
17306TIP3    H173333   1.334   2.338   5.304 -0.3823 -0.4362 -0.5762
17306TIP3    H273334   1.485   2.345   5.303 -0.1652 -2.9372  3.0468
17307TIP3   OH273335   1.343   6.387  16.040 -0.1165  0.0369  0.4882
17307TIP3    H173336   1.297   6.390  16.124  0.8201 -0.4714  1.0188
17307TIP3    H273337   1.302   6.314  15.993  0.1487 -0.4078  0.9526
17308TIP3   OH273338   6.073   0.310   4.855  0.2938  0.0801 -0.0517
17308TIP3    H173339   5.983   0.279   4.869 -0.1148  0.9443 -0.6875
17308TIP3    H273340   6.127   0.232   4.867 -0.6238 -0.6496 -0.5399
17309TIP3   OH273341   5.819   2.534  12.892  0.2660  0.0185 -0.0968
17309TIP3    H173342   5.817   2.542  12.797 -1.1656 -0.0917 -0.0803
17309TIP3    H273343   5.727   2.527  12.918  0.7487 -2.4709  1.0891
17310TIP3   OH273344   6.446   0.736   5.851 -0.1883  0.2005 -0.3858
17310TIP3    H173345   6.431   0.722   5.944 -0.6754 -1.9446 -0.7640
17310TIP3    H273346   6.402   0.818   5.831 -0.1928  0.6019  1.2492
17311TIP3   OH273347   3.286   3.862   3.306 -0.2452  0.1538  0.1392
17311TIP3    H173348   3.334   3.831   3.382  0.3109 -0.8243 -0.6073
17311TIP3    H273349   3.351   3.866   3.236 -0.7492  1.0466 -0.2931
17312TIP3   OH273350   1.649   5.890   3.950 -0.0197  0.2608 -0.1435
17312TIP3    H173351   1.737   5.907   3.983 -0.4243  1.1661  0.4500
17312TIP3    H273352   1.590   5.912   4.022 -0.7909  0.4411 -0.8184
17313TIP3   OH273353   5.454   3.036  14.436 -0.1213  0.1610  0.2560
17313TIP3    H173354   5.467   3.020  14.342 -1.7458  0.2830  0.0040
17313TIP3    H273355   5.518   3.104  14.458  0.4080 -0.0126 -0.7099
17314TIP3   OH273356   0.772   2.437  16.454  0.2591 -0.0002 -0.2308
17314TIP3    H173357   0.866   2.455  16.459  0.5933 -1.4406 -0.8995
17314TIP3    H273358   0.738   2.463  16.539  0.6723  3.7188 -1.1433
17315TIP3   OH273359   1.552   2.803   5.084 -0.2171 -0.1114  0.0669
17315TIP3    H173360   1.608   2.871   5.120 -0.5414  0.2727 -0.1545
17315TIP3    H273361   1.612   2.741   5.043  0.0153  0.5545 -0.6031
17316TIP3   OH273362   0.956   4.193   4.089 -0.1450  0.5033 -0.2383
17316TIP3    H173363   0.876   4.241   4.066  0.8637  1.6778 -1.3246
17316TIP3    H273364   0.945   4.108   4.047 -1.5136  0.0621  0.9234
17317TIP3   OH273365   2.227   2.395   1.695 -0.0216 -0.2231 -0.4348
17317TIP3    H173366   2.244   2.323   1.756  1.3464  0.5740  0.1394
17317TIP3    H273367   2.142   2.429   1.722  0.1096 -0.5261  0.3729
17318TIP3   OH273368   2.991   4.025   4.622 -0.2295 -0.0765 -0.2913
17318TIP3    H173369   2.991   4.099   4.681  1.5111 -0.6470  0.4684
17318TIP3    H273370   3.079   4.026   4.582 -0.3601 -1.4116 -0.6419
17319TIP3   OH273371   4.060   4.589  11.548 -0.7947 -0.1900 -0.5126
17319TIP3    H173372   4.074   4.654  11.479  0.3189 -1.6251 -1.6482
17319TIP3    H273373   4.124   4.612  11.615  0.1422 -0.5839 -1.2630
17320TIP3   OH273374   4.422   6.289  10.539  0.2320 -0.0174 -0.3296
17320TIP3    H173375   4.412   6.340  10.619  1.6026 -4.0256  2.5845
17320TIP3    H273376   4.516   6.270  10.534 -0.1509 -1.7538 -1.5831
17321TIP3   OH273377   1.082   0.309  12.275 -0.0986  0.3093 -0.4169
17321TIP3    H173378   1.128   0.289  12.193  1.7250 -2.0379  1.1288
17321TIP3    H273379   1.017   0.375  12.250  1.9871  1.3885 -3.2899
17322TIP3   OH273380   5.034   6.580  17.050  0.2067  0.3346  0.2158
17322TIP3    H173381   5.067   6.524  17.121 -0.4063  1.6591  1.5721
17322TIP3    H273382   4.984   6.521  16.994  1.4024 -0.8993  0.4197
17323TIP3   OH273383   1.498   4.135  13.993 -0.0146 -0.3014  0.1328
17323TIP3    H173384   1.444   4.103  14.065  0.6772 -0.7247  0.4637
17323TIP3    H273385   1.438   4.139  13.918 -0.8481  0.5627  0.8287
17324TIP3   OH273386   4.173   0.261  14.959 -0.1060 -0.4766 -0.2401
17324TIP3    H173387   4.136   0.334  15.009 -2.2969 -0.9371 -1.1540
17324TIP3    H273388   4.256   0.242  15.003 -0.2912  1.4748  1.0233
17325TIP3   OH273389   3.368   3.337  11.981  0.9099  0.3738  0.1012
17325TIP3    H173390   3.383   3.278  12.055  1.5063 -0.3792 -0.6009
17325TIP3    H273391   3.324   3.413  12.019  1.0978 -0.0562  1.2032
17326TIP3   OH273392   0.680   4.091  11.963 -0.8867 -0.0235 -0.2313
17326TIP3    H173393   0.752   4.102  11.902  0.7307  0.5731  1.7208
17326TIP3    H273394   0.647   4.003  11.946 -0.8003  0.3095 -2.2738
17327TIP3   OH273395   1.451   2.880  15.183 -0.1652 -0.1080  0.4226
17327TIP3    H173396   1.443   2.789  15.213 -0.0252 -0.0790  0.5504
17327TIP3    H273397   1.419   2.879  15.093  1.7712 -0.6909 -0.2863
17328TIP3   OH273398   6.028   6.532   1.770 -0.4165 -0.2042  0.1237
17328TIP3    H173399   5.933   6.526   1.782 -0.5348  1.3652  0.1036
17328TIP3    H273400   6.039   6.555   1.678 -0.0183 -0.0987  0.1972
17329TIP3   OH273401   4.661   1.653  14.967  0.2125  0.1237  0.6959
17329TIP3    H173402   4.581   1.623  14.924  1.0066 -0.7127 -0.2244
17329TIP3    H273403   4.649   1.748  14.976 -1.6059 -0.1914  2.1338
17330TIP3   OH273404   2.788   1.241   5.144  0.2912 -0.2158  0.3964
17330TIP3    H173405   2.873   1.260   5.185  1.7773  0.0841 -2.6824
17330TIP3    H273406   2.728   1.303   5.184  1.4850 -0.4876  2.6972
17331TIP3   OH273407   2.369   0.836  12.518  0.0650  0.3374  0.3019
17331TIP3    H173408   2.398   0.777  12.588  0.5736 -0.0156 -0.2034
17331TIP3    H273409   2.323   0.780  12.456  0.3082  0.5212 -0.0449
17332TIP3   OH273410   6.288   6.597   2.540 -0.1608  0.4308  0.7520
17332TIP3    H173411   6.258   6.537   2.473  0.1762 -1.1247  1.9657
17332TIP3    H273412   6.217   6.600   2.604  0.6534 -0.2603  1.7037
17333TIP3   OH273413   6.132   0.075   2.527 -0.5362 -0.3189  0.2210
17333TIP3    H173414   6.082   0.097   2.606  1.1988  2.1742  0.6689
17333TIP3    H273415   6.092   0.127   2.458  0.9071  1.0567  0.4138
17334TIP3   OH273416   3.756   4.195   5.743  0.2535  0.8124 -0.1862
17334TIP3    H173417   3.684   4.247   5.706  0.0265  1.5761  1.3148
17334TIP3    H273418   3.797   4.253   5.807  1.8242  0.1540 -0.5726
17335TIP3   OH273419   4.867   2.349  11.517 -0.9957  0.1786 -0.2188
17335TIP3    H173420   4.902   2.260  11.504 -1.6672 -0.1119 -0.0633
17335TIP3    H273421   4.811   2.341  11.594  0.0920  1.0756  0.6760
17336TIP3   OH273422   2.089   1.799   5.046 -0.8435 -0.0572 -0.8107
17336TIP3    H173423   2.167   1.808   5.101 -1.3302 -0.8717  0.0477
17336TIP3    H273424   2.032   1.871   5.072 -0.4836  0.3869 -1.2546
17337TIP3   OH273425   3.495   6.316  10.342 -0.2862 -0.3313 -0.0972
17337TIP3    H173426   3.437   6.254  10.299 -1.0479  0.4020 -0.1231
17337TIP3    H273427   3.449   6.400  10.339  0.4752  0.1203  0.4673
17338TIP3   OH273428   1.951   2.038   5.772 -0.0136 -0.0881 -0.1281
17338TIP3    H173429   1.882   2.007   5.830  0.0184 -2.2723 -1.1969
17338TIP3    H273430   1.992   1.958   5.738  2.5584  1.1593 -0.0860
17339TIP3   OH273431   1.001   4.224   0.287 -0.0814  0.4507  0.9297
17339TIP3    H173432   0.910   4.252   0.277 -0.2647 -0.6017 -0.5180
17339TIP3    H273433   1.037   4.229   0.198  0.1143 -3.0194  0.7650
17340TIP3   OH273434   4.034   2.053   5.889 -0.1554  0.1269  0.7895
17340TIP3    H173435   4.049   2.012   5.804 -0.9003 -0.3656  0.8891
17340TIP3    H273436   4.120   2.084   5.917  0.0022  0.7279 -0.3644
17341TIP3   OH273437   2.182   5.639  12.772  0.1373 -0.1742  0.2685
17341TIP3    H173438   2.232   5.558  12.767  0.7616  0.0906  1.9682
17341TIP3    H273439   2.245   5.707  12.747 -1.0754 -0.3982 -3.8163
17342TIP3   OH273440   2.416   1.309  12.815  0.5580  0.6272 -0.6430
17342TIP3    H173441   2.427   1.218  12.785  1.4099  0.3027  0.5987
17342TIP3    H273442   2.496   1.353  12.786  2.1012 -0.0487  2.3637
17343TIP3   OH273443   3.901   2.500   6.170 -0.3763 -0.2238 -0.5375
17343TIP3    H173444   3.888   2.408   6.147 -0.2322 -0.2789 -0.3980
17343TIP3    H273445   3.941   2.538   6.092 -5.1453  0.9124 -2.6562
17344TIP3   OH273446   2.577   0.022  14.493  0.2141 -0.0220  0.2806
17344TIP3    H173447   2.547  -0.014  14.577  0.5806 -0.5447  0.1922
17344TIP3    H273448   2.606   0.110  14.514  1.9777 -0.7614  1.0517
17345TIP3   OH273449   0.263   5.646  15.901  0.0169 -0.1847 -0.3997
17345TIP3    H173450   0.333   5.582  15.888  1.1722  0.9576  0.0800
17345TIP3    H273451   0.267   5.703  15.824 -1.4004 -1.0257 -1.1169
17346TIP3   OH273452   3.627   4.163  15.333 -0.0293  0.0549  0.0158
17346TIP3    H173453   3.573   4.208  15.267 -0.3709  0.5121  0.6026
17346TIP3    H273454   3.639   4.075  15.298  1.5154  0.9021 -1.6547
17347TIP3   OH273455   4.483   2.245   0.367 -0.1075 -0.0428 -0.4848
17347TIP3    H173456   4.495   2.339   0.352  1.2324 -0.5194 -2.5520
17347TIP3    H273457   4.495   2.235   0.462  1.8402  1.6026 -0.5065
17348TIP3   OH273458   4.306   4.555   2.644  0.6603  0.1061  0.3484
17348TIP3    H173459   4.215   4.555   2.614  1.0935  2.0737 -1.0467
17348TIP3    H273460   4.358   4.566   2.565  2.1130 -0.4838  1.1971
17349TIP3   OH273461   2.606   6.301  14.707  0.6637  0.2197 -0.1826
17349TIP3    H173462   2.586   6.276  14.797 -0.4106  0.8320 -0.2441
17349TIP3    H273463   2.688   6.255  14.687  0.5408 -0.4692  0.8660
17350TIP3   OH273464   2.958   1.726   0.071 -0.9251  0.1171 -0.3252
17350TIP3    H173465   3.044   1.763   0.055 -1.5007  2.0290  0.8577
17350TIP3    H273466   2.903   1.760   0.001 -1.0794  0.2128 -0.1607
17351TIP3   OH273467   1.165   0.491   4.897 -0.1202  0.4954 -0.0711
17351TIP3    H173468   1.091   0.552   4.889 -0.5078  0.0720  0.2702
17351TIP3    H273469   1.157   0.433   4.822 -0.4334  0.1316  0.2378
17352TIP3   OH273470   3.343   4.581   0.825 -0.3222 -0.5085 -0.5433
17352TIP3    H173471   3.433   4.595   0.856 -0.2291 -0.1843 -0.9460
17352TIP3    H273472   3.353   4.534   0.743 -0.4512  0.6818 -1.2587
17353TIP3   OH273473   2.571   5.823   4.173  0.0990  0.0781  0.0815
17353TIP3    H173474   2.531   5.902   4.211  0.2467  0.1957 -0.0054
17353TIP3    H273475   2.511   5.798   4.103  0.1982  0.2790 -0.0768
17354TIP3   OH273476   3.864   5.611   1.210 -0.3298  0.2683 -0.1937
17354TIP3    H173477   3.774   5.587   1.230 -0.2872 -1.4212 -1.8747
17354TIP3    H273478   3.916   5.537   1.243  0.3633  0.7435 -0.1917
17355TIP3   OH273479   6.537   5.344   3.972 -0.0747  0.2198 -0.4846
17355TIP3    H173480   6.486   5.332   4.052  0.9192  1.7448  0.4237
17355TIP3    H273481   6.621   5.301   3.990  0.2327  0.7601 -0.6133
17356TIP3   OH273482   0.067   2.398   4.971 -0.0637  0.1630  0.9805
17356TIP3    H173483   0.112   2.316   4.949  0.0100  0.4755 -0.0953
17356TIP3    H273484   0.122   2.466   4.932 -1.6861  0.5238 -0.7484
17357TIP3   OH273485   3.119   3.569   0.568  0.0274  0.1165  0.0332
17357TIP3    H173486   3.200   3.607   0.533 -0.4950  0.5592 -0.7134
17357TIP3    H273487   3.140   3.477   0.584  0.9170  0.4123  0.6112
17358TIP3   OH273488   1.294   6.115   0.187  0.0070 -0.4205  0.5836
17358TIP3    H173489   1.361   6.166   0.143 -0.3371 -0.1670  0.3534
17358TIP3    H273490   1.298   6.144   0.278  0.1256 -0.3154  0.5449
17359TIP3   OH273491   6.150   2.826   2.151 -0.4963  0.5028  0.3291
17359TIP3    H173492   6.216   2.764   2.122  1.7504  1.9362  2.2067
17359TIP3    H273493   6.076   2.771   2.179  0.9222 -1.2678  0.6705
17360TIP3   OH273494   3.148   3.238   1.553 -0.4430 -0.2546 -0.2800
17360TIP3    H173495   3.070   3.251   1.499 -0.8773  1.4926  0.7025
17360TIP3    H273496   3.202   3.315   1.536  0.7194 -1.0785 -0.3733
17361TIP3   OH273497   4.686   0.733  11.265  0.5346  0.2206 -0.1942
17361TIP3    H173498   4.629   0.765  11.335  0.9561  0.3516  0.0898
17361TIP3    H273499   4.664   0.640  11.258 -1.3479  0.7274 -1.6470
17362TIP3   OH273500   0.436   5.109   5.268 -0.0245 -0.6047  0.4452
17362TIP3    H173501   0.427   5.204   5.268 -0.1181 -0.6047  2.3012
17362TIP3    H273502   0.367   5.079   5.209 -0.1349  0.4564  0.0130
17363TIP3   OH273503   0.870   4.879  16.287  0.4679  0.3306  0.2131
17363TIP3    H173504   0.915   4.912  16.365  3.1468 -0.3396 -0.9794
17363TIP3    H273505   0.813   4.810  16.319 -0.3268  1.7167  1.8834
17364TIP3   OH273506   0.168   5.283  11.196 -0.3353  0.5394  0.2142
17364TIP3    H173507   0.073   5.295  11.189 -0.0872  2.4461 -0.2096
17364TIP3    H273508   0.201   5.300  11.108  0.5042  1.0913  0.6302
17365TIP3   OH273509   3.800   3.134  15.846 -0.1237 -0.6276  0.3651
17365TIP3    H173510   3.883   3.085  15.852 -0.4968 -1.2043  0.8927
17365TIP3    H273511   3.785   3.143  15.752  0.9098  0.1168  0.2563
17366TIP3   OH273512   2.434   1.950   4.316 -0.2922 -0.2503 -0.0274
17366TIP3    H173513   2.440   1.988   4.404 -2.3784  1.2907 -0.5246
17366TIP3    H273514   2.442   2.024   4.256 -0.6325 -1.0697 -1.1102
17367TIP3   OH273515   0.122   1.892   3.748 -0.5968  0.7422 -0.2956
17367TIP3    H173516   0.108   1.937   3.831 -0.5014  1.7999 -0.8421
17367TIP3    H273517   0.150   1.961   3.687  0.9795 -0.2943 -0.7855
17368TIP3   OH273518   5.115   5.973   4.729 -0.2436 -0.4414  0.2632
17368TIP3    H173519   5.139   5.883   4.706 -2.7886 -1.0107 -0.2900
17368TIP3    H273520   5.192   6.024   4.706  0.4555 -2.1881 -1.4441
17369TIP3   OH273521   4.174   4.332  12.264  0.2432  0.6226 -0.0364
17369TIP3    H173522   4.103   4.268  12.267 -0.5827  1.5737  0.8680
17369TIP3    H273523   4.233   4.299  12.196 -1.8436  0.6239 -1.9098
17370TIP3   OH273524   2.800   5.292   3.118 -0.0044 -0.0070 -0.0901
17370TIP3    H173525   2.765   5.368   3.165  1.4792  1.4515 -1.3180
17370TIP3    H273526   2.872   5.261   3.173  1.1995  1.2018 -0.9486
17371TIP3   OH273527   0.585   1.141   3.204  0.2804 -0.6434  0.4248
17371TIP3    H173528   0.578   1.086   3.283 -2.1988 -0.1117  0.6278
17371TIP3    H273529   0.583   1.078   3.132  0.4902 -1.0157  0.7392
17372TIP3   OH273530   3.971   2.934  11.112  0.4753  0.1800 -0.4913
17372TIP3    H173531   4.048   2.967  11.066 -0.1210  1.6211 -0.4699
17372TIP3    H273532   3.916   2.896  11.043  0.3524  0.8266 -0.7520
17373TIP3   OH273533   0.229   4.734   1.528  0.1714 -0.3123 -0.1592
17373TIP3    H173534   0.180   4.688   1.596 -0.1960  0.1001 -0.1457
17373TIP3    H273535   0.288   4.793   1.576  1.1528 -1.2830 -0.1584
17374TIP3   OH273536   3.017   3.162   2.223 -0.8072  0.0404 -0.4683
17374TIP3    H173537   2.957   3.110   2.170  1.1459 -1.1581 -1.5742
17374TIP3    H273538   3.059   3.221   2.161 -2.6999  2.7159  0.7136
17375TIP3   OH273539   1.554   3.084   5.919  0.1564 -0.8110 -0.4266
17375TIP3    H173540   1.532   3.101   6.010  0.3254  0.7264 -0.6542
17375TIP3    H273541   1.608   3.004   5.922  2.6181  0.8248  1.1490
17376TIP3   OH273542   4.844   6.428  16.513  0.0469  0.2881  0.4262
17376TIP3    H173543   4.901   6.441  16.589  2.2834  0.1366 -1.1631
17376TIP3    H273544   4.862   6.503  16.457 -2.0310  0.7140  0.2961
17377TIP3   OH273545   0.539   4.126   3.468 -0.1019 -0.0821 -0.0034
17377TIP3    H173546   0.580   4.044   3.440  0.5017  0.4276 -0.6342
17377TIP3    H273547   0.602   4.166   3.527 -2.2598 -2.1686  3.9175
17378TIP3   OH273548   5.272   2.408  14.594  0.1770 -0.2559  0.2321
17378TIP3    H173549   5.244   2.435  14.506  1.6786 -1.0712 -0.5201
17378TIP3    H273550   5.197   2.428  14.650 -0.2371  1.7092 -0.9720
17379TIP3   OH273551   4.668   6.746  14.575 -0.1912  0.5313 -0.3312
17379TIP3    H173552   4.593   6.803  14.559 -0.5982  0.3210  0.7590
17379TIP3    H273553   4.631   6.668  14.616  0.4530 -0.1909 -1.1157
17380TIP3   OH273554   6.464   4.781   5.780  0.1711  0.2701 -0.7444
17380TIP3    H173555   6.494   4.870   5.765  1.1212  0.0164 -0.4120
17380TIP3    H273556   6.517   4.727   5.722 -0.0989 -0.1280 -0.6283
17381TIP3   OH273557   4.414   3.682   3.062  0.3135  0.3091  0.1657
17381TIP3    H173558   4.343   3.660   3.123 -0.1988 -0.8850 -0.8484
17381TIP3    H273559   4.448   3.765   3.095 -0.2310 -0.1035  1.8371
17382TIP3   OH273560   6.603   1.967   3.153  0.2658  0.5769 -0.0586
17382TIP3    H173561   6.672   1.902   3.166 -0.4785  0.0872  1.6597
17382TIP3    H273562   6.532   1.938   3.212 -0.8774  1.7954 -0.8064
17383TIP3   OH273563   5.981   2.302  14.333 -0.2886  0.0936 -0.6940
17383TIP3    H173564   5.912   2.260  14.282 -1.2014  0.2827  0.3631
17383TIP3    H273565   5.986   2.252  14.414 -0.5063  1.2510  0.0428
17384TIP3   OH273566   2.740   4.702   1.922 -0.4812 -0.4782 -0.5137
17384TIP3    H173567   2.736   4.607   1.911 -0.9219 -0.6995  1.4378
17384TIP3    H273568   2.734   4.737   1.832  0.8797 -2.3034 -1.3333
17385TIP3   OH273569   0.663   5.750   1.861 -0.1112  0.1684  0.4721
17385TIP3    H173570   0.609   5.766   1.784 -0.2326 -3.1916 -0.2232
17385TIP3    H273571   0.753   5.761   1.829 -0.1680 -1.0100 -0.1438
17386TIP3   OH273572   1.794   1.055   4.285 -0.3698  0.1544  0.0382
17386TIP3    H173573   1.714   1.109   4.284 -1.4938 -1.4881  0.2555
17386TIP3    H273574   1.860   1.112   4.324 -1.7471  1.1156  1.0421
17387TIP3   OH273575   5.099   5.319   2.147 -0.3134  0.0770  0.4087
17387TIP3    H173576   5.134   5.230   2.140  0.5693  0.4848 -0.5278
17387TIP3    H273577   5.037   5.315   2.220  0.1623 -1.1627  0.7552
17388TIP3   OH273578   1.454   5.264  13.607 -0.5095 -0.5436  0.2774
17388TIP3    H173579   1.549   5.269  13.615 -0.4634  0.2503 -0.5672
17388TIP3    H273580   1.437   5.184  13.558 -0.2787 -0.7419  0.5257
17389TIP3   OH273581   1.493   6.711  11.775  0.1764  0.3558  0.4130
17389TIP3    H173582   1.560   6.773  11.802 -1.8444  1.1631  3.8036
17389TIP3    H273583   1.435   6.703  11.850 -2.7966 -1.3334 -1.9237
17390TIP3   OH273584   0.372   4.793   4.476 -0.2173 -0.3370  0.4469
17390TIP3    H173585   0.289   4.752   4.454 -0.7337  0.6987  0.4267
17390TIP3    H273586   0.367   4.807   4.571  0.3077 -1.0746  0.5908
17391TIP3   OH273587   5.954   2.657   2.970  0.4889  0.6287 -0.0388
17391TIP3    H173588   6.045   2.629   2.963  0.2841  0.0536 -0.4666
17391TIP3    H273589   5.906   2.596   2.914  0.0502  1.9953 -1.1873
17392TIP3   OH273590   0.469   6.018  12.254 -0.2462 -0.2620  0.4186
17392TIP3    H173591   0.522   6.043  12.178  2.1958  0.2745  2.2174
17392TIP3    H273592   0.381   6.051  12.235  0.5162  0.5596 -1.8082
17393TIP3   OH273593   3.132   6.443   5.971 -0.0793  0.3439  0.1380
17393TIP3    H173594   3.051   6.405   5.936  0.4561 -2.6178  1.9878
17393TIP3    H273595   3.177   6.370   6.013  1.3030  2.9247  3.3063
17394TIP3   OH273596   2.524   3.395  10.658 -0.0294 -0.6780 -0.2158
17394TIP3    H173597   2.532   3.480  10.701 -1.4051 -0.9214  0.5507
17394TIP3    H273598   2.433   3.369  10.674 -0.3307 -1.1483 -2.5786
17395TIP3   OH273599   0.985   1.177  13.585  0.0372 -0.5847 -0.0586
17395TIP3    H173600   0.919   1.166  13.516 -0.5240  0.6222  0.2683
17395TIP3    H273601   1.012   1.088  13.606 -1.1025 -1.0724 -0.5812
17396TIP3   OH273602   3.119   0.398  10.809  0.5504 -0.4490  0.3799
17396TIP3    H173603   3.118   0.351  10.892  1.6076  0.1099  0.7237
17396TIP3    H273604   3.062   0.347  10.751  0.2492 -1.1389  1.2853
17397TIP3   OH273605   1.817   0.262  11.806 -0.3077 -0.1724 -0.3706
17397TIP3    H173606   1.752   0.200  11.843 -0.6573  1.0158  1.0610
17397TIP3    H273607   1.893   0.252  11.863  0.0995 -0.2005 -0.9209
17398TIP3   OH273608   0.970   3.711  14.329  0.0608 -0.1705 -0.0622
17398TIP3    H173609   1.051   3.717  14.380 -1.1036 -0.9451  1.9347
17398TIP3    H273610   0.950   3.802  14.305 -0.4117  0.4757  2.5748
17399TIP3   OH273611   6.639   4.619   3.474  0.1777  0.1695 -0.4035
17399TIP3    H173612   6.717   4.654   3.431  1.0534 -0.6199  0.5027
17399TIP3    H273613   6.625   4.677   3.549  1.4833 -1.2133  0.9572
17400TIP3   OH273614   1.490   5.324   4.835  0.1624  0.2182 -0.0745
17400TIP3    H173615   1.564   5.363   4.883  0.5464 -0.1661 -0.3504
17400TIP3    H273616   1.416   5.330   4.895  0.3835  0.7585  0.1418
17401TIP3   OH273617   4.826   5.214   3.493  0.5072  0.0311 -0.2668
17401TIP3    H173618   4.762   5.165   3.545  0.3442 -1.1720 -1.5822
17401TIP3    H273619   4.781   5.296   3.471 -0.1968 -0.3528 -0.2894
17402TIP3   OH273620   0.676   2.087  13.850 -0.3746 -0.5314 -0.0536
17402TIP3    H173621   0.757   2.106  13.897  0.0041  1.7476 -1.5520
17402TIP3    H273622   0.687   2.130  13.765 -2.8462 -0.8041 -0.5412
17403TIP3   OH273623   1.997   2.173  15.856  0.0463 -0.3028  0.4456
17403TIP3    H173624   1.958   2.086  15.844  0.3620 -0.2094 -1.3052
17403TIP3    H273625   1.999   2.184  15.951 -0.4249 -2.0144  0.6849
17404TIP3   OH273626   3.545   3.028   3.174 -0.6050 -0.5256 -0.4570
17404TIP3    H173627   3.586   3.077   3.246 -0.9804  0.8413 -1.1737
17404TIP3    H273628   3.603   2.953   3.161  0.2046 -0.0511  0.3496
17405TIP3   OH273629   2.787   4.841  16.732  0.1067 -0.1118  0.4327
17405TIP3    H173630   2.801   4.854  16.826  0.0639 -0.1620  0.4474
17405TIP3    H273631   2.843   4.906  16.690  0.2226 -0.1724  0.4919
17406TIP3   OH273632   4.774   3.902   5.796 -0.0843 -0.2887 -0.1767
17406TIP3    H173633   4.816   3.896   5.881 -0.3811  1.0271  0.0757
17406TIP3    H273634   4.731   3.817   5.784 -0.9014 -0.1178  1.4319
17407TIP3   OH273635   1.644   2.994  15.322  0.0460  0.7337 -0.0326
17407TIP3    H173636   1.686   2.909  15.330  1.8484  1.3336 -2.5764
17407TIP3    H273637   1.565   2.978  15.271 -0.8082  0.2518  1.4068
17408TIP3   OH273638   6.752   3.015  10.817 -0.4887  0.4300 -0.8766
17408TIP3    H173639   6.757   2.920  10.813  1.5933  0.5226 -1.3864
17408TIP3    H273640   6.678   3.038  10.761 -2.2937 -0.9714  0.8843
17409TIP3   OH273641   4.789   6.012   5.310  0.1831  0.4347 -0.0171
17409TIP3    H173642   4.868   5.957   5.301 -1.4183 -2.0489  0.6962
17409TIP3    H273643   4.780   6.025   5.404 -0.5987  0.1705 -0.0516
17410TIP3   OH273644   5.326   4.208   1.206  0.2552  0.9070  0.3340
17410TIP3    H173645   5.374   4.290   1.204 -0.0967  1.1918  2.1256
17410TIP3    H273646   5.376   4.152   1.266 -0.9074  0.7424  1.1729
17411TIP3   OH273647   5.431   1.543   4.654  0.1573 -0.0661  0.0281
17411TIP3    H173648   5.454   1.634   4.632  1.7372 -0.7323 -1.1555
17411TIP3    H273649   5.513   1.505   4.686 -0.9013 -0.6123  2.1751
17412TIP3   OH273650   1.464   4.385  15.248 -0.2054  0.9074  0.1785
17412TIP3    H173651   1.510   4.385  15.164  1.3296 -0.6431  0.9807
17412TIP3    H273652   1.390   4.326  15.235  0.6932 -0.2607  0.2317
17413TIP3   OH273653   0.676   6.481   5.355  0.4487 -0.1691  0.2628
17413TIP3    H173654   0.725   6.515   5.280  0.1524 -0.7984 -0.2203
17413TIP3    H273655   0.663   6.389   5.335  0.1405 -0.2783  0.9714
17414TIP3   OH273656   2.551   0.547  17.043  0.7140 -0.2946  0.6302
17414TIP3    H173657   2.564   0.455  17.019 -0.8146 -1.0659  2.5469
17414TIP3    H273658   2.456   0.560  17.034  1.0849  1.5098 -0.9330
17415TIP3   OH273659   1.891   4.147   1.875  0.0585 -0.7975 -0.2351
17415TIP3    H173660   1.956   4.189   1.817  0.7628 -1.2309  0.2338
17415TIP3    H273661   1.895   4.198   1.956  1.1664 -1.9624  0.4605
17416TIP3   OH273662   5.426   1.973   6.163  0.1501 -0.6931 -0.0087
17416TIP3    H173663   5.389   1.977   6.251  2.4522  1.1555  0.9573
17416TIP3    H273664   5.503   1.917   6.172  2.2886  2.0897 -0.0119
17417TIP3   OH273665   5.887   6.704  13.508  0.4644  0.2980  0.3070
17417TIP3    H173666   5.880   6.692  13.603  2.2750 -2.7061  0.1086
17417TIP3    H273667   5.807   6.665  13.473  0.2767  0.4868  0.5254
17418TIP3   OH273668   6.104   5.526   2.810 -0.3156  0.3291 -0.4505
17418TIP3    H173669   6.164   5.466   2.854 -0.9616 -0.0470 -0.0872
17418TIP3    H273670   6.156   5.562   2.737  0.7869  1.0209  0.6442
17419TIP3   OH273671   0.224   0.869   5.606 -0.0762 -0.0736  0.1102
17419TIP3    H173672   0.157   0.938   5.613 -1.0508 -1.0852  1.0054
17419TIP3    H273673   0.183   0.793   5.647  1.8182 -0.5939  1.0623
17420TIP3   OH273674   3.107   5.122   4.028  0.2906  0.2444  0.3462
17420TIP3    H173675   3.097   5.092   3.938  0.1305  0.0007  0.4458
17420TIP3    H273676   3.200   5.111   4.047  0.1014 -0.8803  0.6268
17421TIP3   OH273677   3.721   3.956   2.911 -0.6949 -0.2164  0.5132
17421TIP3    H173678   3.789   4.020   2.891 -0.5224 -0.3356  0.7088
17421TIP3    H273679   3.743   3.926   3.000  0.4110 -2.0592 -0.3520
17422TIP3   OH273680   6.107   4.387  11.473  0.0184  0.2575 -0.2776
17422TIP3    H173681   6.149   4.396  11.388 -0.7696  2.2174 -0.4835
17422TIP3    H273682   6.018   4.358  11.453 -0.4008  1.4557 -0.1763
17423TIP3   OH273683   2.588   0.476  13.952 -0.3231  1.0626 -0.2179
17423TIP3    H173684   2.608   0.567  13.975 -0.5209  0.9837  0.2750
17423TIP3    H273685   2.563   0.480  13.860 -1.9027  1.7579  0.2236
17424TIP3   OH273686   1.472   1.262   2.161 -0.1346  0.1770  0.1117
17424TIP3    H173687   1.472   1.357   2.165  0.4442  0.1866 -0.0927
17424TIP3    H273688   1.525   1.241   2.084  2.6754 -0.3973  2.1496
17425TIP3   OH273689   2.788   5.712   0.757  0.3140 -0.4888 -0.3803
17425TIP3    H173690   2.762   5.625   0.787  0.1109 -1.1761 -2.4142
17425TIP3    H273691   2.848   5.695   0.684  1.6816  1.0969  0.3385
17426TIP3   OH273692   2.627   4.442   0.124 -0.0589 -0.4697  0.5846
17426TIP3    H173693   2.572   4.365   0.112  0.1795 -0.4162 -0.9035
17426TIP3    H273694   2.704   4.409   0.170 -0.0751 -1.0797  0.1822
17427TIP3   OH273695   3.962   2.216   6.583  0.2137  0.6033 -0.0467
17427TIP3    H173696   4.043   2.266   6.565  0.0104  1.2004  0.6914
17427TIP3    H273697   3.892   2.281   6.575  0.1393  1.0407  3.4618
17428TIP3   OH273698   1.185   5.513   0.908 -0.1263  0.1335  0.2521
17428TIP3    H173699   1.107   5.512   0.853 -0.5446 -1.1227  0.8618
17428TIP3    H273700   1.174   5.589   0.965 -0.8575 -0.0031  0.2858
17429TIP3   OH273701   5.487   6.471   3.283  0.8818 -0.4930 -0.1387
17429TIP3    H173702   5.486   6.380   3.254 -0.9966 -0.8468  0.9275
17429TIP3    H273703   5.432   6.518   3.220  0.9519 -0.2983 -0.0581
17430TIP3   OH273704   5.772   3.683   1.409  0.6247 -0.4728  0.2313
17430TIP3    H173705   5.864   3.657   1.420  0.9981  0.0557 -1.4577
17430TIP3    H273706   5.776   3.760   1.352 -0.7042  1.2014  2.3438
17431TIP3   OH273707   6.276   0.988   6.050 -0.3034  0.6735  0.2094
17431TIP3    H173708   6.200   0.997   6.107  0.4865 -1.2257  1.5883
17431TIP3    H273709   6.247   0.927   5.981 -0.7461  1.7394 -0.5667
17432TIP3   OH273710   4.758   6.562   0.808  0.0160  0.3659 -0.5939
17432TIP3    H173711   4.821   6.521   0.868  1.8491  2.2811 -1.1645
17432TIP3    H273712   4.713   6.488   0.767  0.4145 -1.0151  1.3468
17433TIP3   OH273713   6.442   3.270   1.060 -0.1785  0.6183 -0.4191
17433TIP3    H173714   6.448   3.366   1.067 -1.1593  0.6887 -0.4727
17433TIP3    H273715   6.531   3.242   1.042  0.5078  1.3642  1.6027
17434TIP3   OH273716   2.223   3.778  11.447 -0.1726 -0.5798 -0.1678
17434TIP3    H173717   2.286   3.804  11.515 -1.1075 -1.7153  1.1656
17434TIP3    H273718   2.184   3.860  11.417 -1.0330 -0.1681  1.9756
17435TIP3   OH273719   5.822   5.451  15.304  0.1636 -0.2202 -0.0500
17435TIP3    H173720   5.758   5.462  15.233 -0.3219  0.9054  0.5456
17435TIP3    H273721   5.794   5.371  15.349  0.3356 -0.8075 -0.9750
17436TIP3   OH273722   1.713   1.117   6.466  0.1148  0.1457  0.4029
17436TIP3    H173723   1.619   1.109   6.482 -0.6580 -0.4565 -3.7908
17436TIP3    H273724   1.725   1.208   6.437  0.6896  0.0387  0.2900
17437TIP3   OH273725   5.173   3.194   3.350  0.2889 -0.4169  0.1460
17437TIP3    H173726   5.253   3.241   3.373  0.5578 -0.6202 -0.3614
17437TIP3    H273727   5.183   3.108   3.391 -0.2476 -0.0148  1.1603
17438TIP3   OH273728   1.900   5.184  12.332 -0.2190 -0.4681 -0.0585
17438TIP3    H173729   1.833   5.138  12.381 -0.6241 -0.4701 -0.6066
17438TIP3    H273730   1.856   5.214  12.253  0.7695 -1.7565 -1.1308
17439TIP3   OH273731   6.733   5.733   4.134 -0.1189  0.6288 -0.0972
17439TIP3    H173732   6.657   5.756   4.081 -0.6200  0.0617  0.3637
17439TIP3    H273733   6.777   5.816   4.151 -0.4254  0.9156 -0.6938
17440TIP3   OH273734   2.352   5.733   0.568 -0.1808 -0.5230  0.4413
17440TIP3    H173735   2.263   5.704   0.587 -0.0021 -0.7372  0.9477
17440TIP3    H273736   2.358   5.819   0.610 -0.6845  0.2442 -0.9927
17441TIP3   OH273737   3.351   4.727   4.014 -0.4085  0.0844 -0.1835
17441TIP3    H173738   3.328   4.726   4.106 -3.0999 -0.6859 -0.8267
17441TIP3    H273739   3.325   4.640   3.982  1.2996  0.0191 -1.4817
17442TIP3   OH273740   4.437   5.092   4.676 -0.1676  0.0178 -0.5615
17442TIP3    H173741   4.389   5.095   4.593  0.1759 -0.2460 -0.7671
17442TIP3    H273742   4.399   5.164   4.727 -1.0182 -0.3925 -0.5927
17443TIP3   OH273743   0.206   5.359   0.391  0.5710  0.1213  0.5040
17443TIP3    H173744   0.214   5.343   0.485 -0.7026 -1.2038  0.4156
17443TIP3    H273745   0.286   5.322   0.353  0.9554  0.4046  1.0375
17444TIP3   OH273746   4.600   5.671   1.763 -0.1425 -0.4054  0.3255
17444TIP3    H173747   4.674   5.614   1.739  0.5715  1.2450 -1.5021
17444TIP3    H273748   4.528   5.641   1.708 -0.7544 -1.7383  1.8077
17445TIP3   OH273749   1.288   2.697   3.842 -0.5237  0.7583 -0.1904
17445TIP3    H173750   1.281   2.642   3.921 -0.4690  0.3747 -0.4529
17445TIP3    H273751   1.382   2.704   3.826 -0.5869 -0.5131 -1.1611
17446TIP3   OH273752   0.862   2.078  15.789  0.2500 -0.9316  0.5593
17446TIP3    H173753   0.871   2.154  15.845 -2.3880 -0.0839 -0.0668
17446TIP3    H273754   0.951   2.048  15.773  1.3332  2.0365  0.7905
17447TIP3   OH273755   4.926   1.730   5.980  0.2173  0.5489  0.1352
17447TIP3    H173756   4.878   1.812   5.983 -0.4734  0.1597 -0.1061
17447TIP3    H273757   4.987   1.740   5.907  0.5559  1.0710  0.4862
17448TIP3   OH273758   2.220   5.080   4.620 -0.6447  0.5193 -0.1372
17448TIP3    H173759   2.224   5.153   4.682 -1.5414  1.3339 -1.0352
17448TIP3    H273760   2.246   5.004   4.672  2.3438  1.7571  0.3250
17449TIP3   OH273761   2.208   0.750  10.417 -0.7627  0.1323  0.3031
17449TIP3    H173762   2.123   0.782  10.446  0.1104  2.6887  0.1599
17449TIP3    H273763   2.203   0.749  10.322 -1.4489 -2.1229  0.3336
17450TIP3   OH273764   4.311   1.511  14.222 -0.2558  0.0373  0.0091
17450TIP3    H173765   4.380   1.564  14.261  0.1246 -0.9984  0.7541
17450TIP3    H273766   4.329   1.422  14.251 -1.7496 -0.2857 -0.0055
17451TIP3   OH273767   4.575   3.066  11.173 -0.8393  0.1707 -0.0130
17451TIP3    H173768   4.501   3.029  11.222 -1.1936  0.7378 -0.1134
17451TIP3    H273769   4.595   3.148  11.218 -1.3036  0.7997 -0.9417
17452TIP3   OH273770   3.651   0.486   0.842  0.2708  0.5502  0.2215
17452TIP3    H173771   3.566   0.522   0.816  1.0772  1.7503 -0.8481
17452TIP3    H273772   3.691   0.461   0.759  1.4294  1.0772  0.6219
17453TIP3   OH273773   5.074   0.112  15.275 -0.6182 -0.5244 -0.0427
17453TIP3    H173774   5.037   0.037  15.229 -2.8575 -0.4284  1.5454
17453TIP3    H273775   5.040   0.188  15.229 -2.4000 -0.4360  1.3907
17454TIP3   OH273776   1.779   2.677  11.637  0.5372  0.6467 -0.5585
17454TIP3    H173777   1.852   2.653  11.694 -0.9077  0.4934  1.2733
17454TIP3    H273778   1.721   2.728  11.693  0.6098  3.2508 -2.7759
17455TIP3   OH273779   1.375   3.148  12.202  0.0654  0.8586 -0.3288
17455TIP3    H173780   1.331   3.092  12.138  0.9136  0.6115 -0.7085
17455TIP3    H273781   1.437   3.199  12.151  1.4349 -0.0271  0.3983
17456TIP3   OH273782   5.303   1.457   5.255  0.6473 -0.1417 -0.3035
17456TIP3    H173783   5.257   1.377   5.229 -1.2804 -0.0863  2.6641
17456TIP3    H273784   5.358   1.430   5.328  2.1747  0.6792 -1.1450
17457TIP3   OH273785   3.963   4.942  14.421 -0.2498  0.2751 -0.3046
17457TIP3    H173786   3.997   4.874  14.362 -0.4381  1.4408 -1.7842
17457TIP3    H273787   3.868   4.925  14.423 -0.2514  0.2745 -0.3793
17458TIP3   OH273788   4.669   1.948   5.019 -0.1639  0.3018  0.5723
17458TIP3    H173789   4.688   2.005   5.093  2.6832  1.0775 -0.6761
17458TIP3    H273790   4.695   1.999   4.942 -1.7291 -1.0197 -0.8678
17459TIP3   OH273791   4.876   3.597  14.127 -0.4892  0.8196 -0.5809
17459TIP3    H173792   4.939   3.586  14.056  1.3989  2.1511  0.8463
17459TIP3    H273793   4.922   3.567  14.205 -1.9145  1.0442  0.3655
17460TIP3   OH273794   0.854   2.108   5.675  0.1051 -0.0484  0.2531
17460TIP3    H173795   0.876   2.050   5.602 -0.4211 -0.1556  0.1752
17460TIP3    H273796   0.763   2.086   5.697  0.4610 -0.4333  1.3352
17461TIP3   OH273797   6.675   4.027   3.850 -0.4473  0.2978  0.4850
17461TIP3    H173798   6.762   4.058   3.822 -1.0805  2.2737  0.6227
17461TIP3    H273799   6.615   4.061   3.783 -1.2094 -0.4323  0.7963
17462TIP3   OH273800   4.245   0.541   1.009  0.6511  0.0883  0.2359
17462TIP3    H173801   4.322   0.511   1.059  0.3932 -0.4774  0.2966
17462TIP3    H273802   4.266   0.520   0.918  0.8542  0.5479  0.1762
17463TIP3   OH273803   3.468   6.466   6.059 -0.1749 -0.2399 -0.0831
17463TIP3    H173804   3.498   6.556   6.072 -0.5915 -0.3905  2.0204
17463TIP3    H273805   3.427   6.466   5.972  1.0401  1.2547 -0.6730
17464TIP3   OH273806   0.069   5.819  16.034  0.1796 -0.3865  0.4710
17464TIP3    H173807   0.069   5.853  16.124  2.4896  2.9593 -0.6922
17464TIP3    H273808   0.137   5.752  16.034 -1.0744 -1.6815  1.6345
17465TIP3   OH273809   0.145   1.510  11.591 -0.8903 -0.0864 -0.3317
17465TIP3    H173810   0.073   1.464  11.633 -4.1586  3.1653 -2.1208
17465TIP3    H273811   0.162   1.460  11.511 -2.2403  0.0068 -0.6824
17466TIP3   OH273812   2.321   1.582  10.695 -0.1904  0.1762 -0.0021
17466TIP3    H173813   2.348   1.524  10.624  0.3100 -0.1537  0.4527
17466TIP3    H273814   2.232   1.553  10.718  0.3069 -0.8536  0.6701
17467TIP3   OH273815   3.834   2.195  16.622  0.0331 -0.0812  0.5838
17467TIP3    H173816   3.849   2.247  16.543  0.3098 -1.2063 -0.1203
17467TIP3    H273817   3.778   2.123  16.593  0.4903 -0.7447  1.3099
17468TIP3   OH273818   5.900   5.488  13.044 -0.1413 -0.3307  0.0673
17468TIP3    H173819   5.816   5.452  13.072 -0.4562  0.7211  0.5247
17468TIP3    H273820   5.898   5.579  13.076  1.0920 -0.2547 -0.0756
17469TIP3   OH273821   1.077   5.195   0.471 -0.5106 -0.1825 -0.1749
17469TIP3    H173822   1.075   5.100   0.483  2.2844 -0.1531  0.9496
17469TIP3    H273823   1.112   5.207   0.383  1.0046 -0.1934  0.4167
17470TIP3   OH273824   3.854   2.060   1.714  0.1697  0.3605 -0.3588
17470TIP3    H173825   3.939   2.079   1.754 -0.5372  0.9386  0.8897
17470TIP3    H273826   3.830   2.143   1.672  0.5793 -0.0346 -1.3834
17471TIP3   OH273827   4.758   6.766  15.122  0.1921  0.3342 -0.4391
17471TIP3    H173828   4.707   6.740  15.045 -0.8912 -0.0459  0.4088
17471TIP3    H273829   4.847   6.738  15.101 -0.5663 -2.2571 -0.4061
17472TIP3   OH273830   0.303   1.071   2.159  0.2485 -0.1465  0.1102
17472TIP3    H173831   0.320   1.165   2.157 -0.2891 -0.0480 -0.0074
17472TIP3    H273832   0.382   1.031   2.123  0.1454  0.3115 -0.6324
17473TIP3   OH273833   1.987   3.898   1.848 -0.3715  0.1743 -0.0567
17473TIP3    H173834   1.928   3.974   1.852 -0.3525  0.3470 -2.4180
17473TIP3    H273835   1.971   3.860   1.762  0.6447 -1.7059  0.5531
17474TIP3   OH273836   6.759   1.327   5.395 -0.4942  0.6266  0.7739
17474TIP3    H173837   6.731   1.390   5.461 -1.1397  1.3138 -0.1460
17474TIP3    H273838   6.689   1.327   5.329  0.0295 -0.2127  0.1941
17475TIP3   OH273839   5.114   4.089   3.094 -0.0885 -0.0526 -0.3147
17475TIP3    H173840   5.025   4.090   3.060 -0.4692 -4.0008  0.3102
17475TIP3    H273841   5.168   4.123   3.023 -1.6735 -1.2453 -2.1229
17476TIP3   OH273842   4.265   5.669  12.748  0.4988  0.2073  0.4309
17476TIP3    H173843   4.262   5.662  12.652  1.2202  1.3470  0.3081
17476TIP3    H273844   4.199   5.608  12.779 -0.1694  0.2768 -0.8272
17477TIP3   OH273845   1.100   6.246  15.021 -0.1132  0.3677  0.0937
17477TIP3    H173846   1.057   6.265  14.937  0.9095  0.2221 -0.4741
17477TIP3    H273847   1.033   6.202  15.072 -0.1618 -1.3710 -1.3966
17478TIP3   OH273848   1.000   2.864   1.982 -0.5759 -0.3090 -0.0531
17478TIP3    H173849   1.093   2.854   1.959 -1.0066  0.1424 -2.0453
17478TIP3    H273850   0.957   2.788   1.942 -1.0803 -0.4907  0.8272
17479TIP3   OH273851   0.177   6.450  11.450 -0.0584  0.6498 -0.3077
17479TIP3    H173852   0.106   6.397  11.488  1.8393 -1.4558  0.4080
17479TIP3    H273853   0.153   6.459  11.358 -0.8294 -0.7556 -0.2612
17480TIP3   OH273854   1.636   2.372  15.989 -0.0921 -0.0952 -0.0558
17480TIP3    H173855   1.677   2.438  16.045 -0.1823  0.6589 -0.8552
17480TIP3    H273856   1.573   2.327  16.045  0.4688  0.0335  0.6748
17481TIP3   OH273857   6.025   0.918  12.815  0.1749 -0.5175 -0.2601
17481TIP3    H173858   6.006   0.920  12.721 -0.2418  1.4401 -0.1593
17481TIP3    H273859   6.109   0.872  12.821  0.5304 -0.0796 -1.6553
17482TIP3   OH273860   5.554   0.794  11.175  0.1763 -0.0738 -0.0213
17482TIP3    H173861   5.557   0.703  11.148 -0.0424  0.0136 -0.3484
17482TIP3    H273862   5.558   0.844  11.093 -0.3236  0.1957  0.1154
17483TIP3   OH273863   4.801   6.514  13.044 -0.3163  0.0571 -0.3406
17483TIP3    H173864   4.895   6.518  13.059 -0.5847  0.4522  1.3663
17483TIP3    H273865   4.790   6.538  12.952  1.1268  1.5961 -0.1387
17484TIP3   OH273866   4.433   3.051   2.242 -0.0835 -0.3370 -0.1355
17484TIP3    H173867   4.493   3.050   2.316  1.0758  0.1209 -1.0536
17484TIP3    H273868   4.407   3.142   2.233  0.9087 -0.1445 -1.1727
17485TIP3   OH273869   1.831   2.593  16.914  0.2785 -0.6877  0.1749
17485TIP3    H173870   1.827   2.679  16.872  2.4713 -0.0315  1.2249
17485TIP3    H273871   1.885   2.540  16.855  0.2152 -0.8941  0.3030
17486TIP3   OH273872   5.963   6.097   2.307  0.7196 -0.1310  0.1219
17486TIP3    H173873   5.951   6.037   2.233  0.8415  0.8626 -0.7129
17486TIP3    H273874   6.031   6.055   2.360  0.8391 -0.7230 -0.4816
17487TIP3   OH273875   2.227   0.446  13.972 -0.2478  0.0247  0.4733
17487TIP3    H173876   2.164   0.401  14.028 -1.2256  0.1933 -0.4911
17487TIP3    H273877   2.309   0.445  14.023 -1.0183 -0.1789  1.7269
17488TIP3   OH273878   1.545   3.269  14.478  0.2192 -0.1137  0.3949
17488TIP3    H173879   1.574   3.181  14.453 -0.1836  0.0103 -0.5515
17488TIP3    H273880   1.567   3.277  14.571 -0.5763 -1.5556  0.7268
17489TIP3   OH273881   4.078   0.919  16.080 -0.1257 -0.5790 -0.3968
17489TIP3    H173882   4.157   0.937  16.131  0.7252  1.1273 -2.2388
17489TIP3    H273883   4.014   0.983  16.112 -1.0048 -2.3859  1.5486
17490TIP3   OH273884   3.959   4.526  16.755  0.3059 -0.2367  0.0412
17490TIP3    H173885   3.925   4.439  16.734 -1.0534  0.1061  0.7338
17490TIP3    H273886   3.983   4.563  16.671 -1.2723 -0.4216 -0.5075
17491TIP3   OH273887   2.358   4.615  11.472 -0.2263  0.6339  0.3221
17491TIP3    H173888   2.291   4.550  11.448 -0.9830  0.2657  3.2784
17491TIP3    H273889   2.430   4.563  11.508  0.8741  1.1771 -1.0523
17492TIP3   OH273890   6.109   1.010  16.214  0.3711  0.0766  0.1456
17492TIP3    H173891   6.147   1.079  16.268  0.5026 -0.4973  0.7915
17492TIP3    H273892   6.081   0.943  16.277 -0.8518  0.0802 -0.3875
17493TIP3   OH273893   3.193   1.644   1.680  0.1949 -0.2109 -0.6198
17493TIP3    H173894   3.181   1.739   1.689  0.6225 -0.4390  3.2533
17493TIP3    H273895   3.112   1.606   1.712  0.3186 -1.2096 -1.4547
17494TIP3   OH273896   1.694   1.781   0.710  0.0692 -0.0329 -0.5434
17494TIP3    H173897   1.742   1.708   0.750 -0.1633 -0.6791 -1.4298
17494TIP3    H273898   1.712   1.855   0.767  0.7289 -0.6674  0.0885
17495TIP3   OH273899   2.670   2.290   1.340 -0.1045 -0.2666 -0.7061
17495TIP3    H173900   2.695   2.380   1.320  1.6226 -0.2471  1.3380
17495TIP3    H273901   2.690   2.279   1.433 -1.7166 -2.3063 -0.5569
17496TIP3   OH273902   3.381   0.235   2.459 -0.2234 -0.2309 -0.0289
17496TIP3    H173903   3.455   0.285   2.426 -0.4051 -0.0743 -0.1963
17496TIP3    H273904   3.348   0.286   2.533 -0.5546  0.0123 -0.3466
17497TIP3   OH273905   1.813   2.203  11.362  0.3362  0.1838 -0.1957
17497TIP3    H173906   1.778   2.181  11.448  1.4897 -1.1150 -0.0466
17497TIP3    H273907   1.746   2.259  11.323 -0.2451  0.6921  1.4949
17498TIP3   OH273908   5.944   3.113  16.265 -1.0364  0.2116 -0.2529
17498TIP3    H173909   6.023   3.103  16.212 -0.2414  1.4281  0.6651
17498TIP3    H273910   5.952   3.045  16.332 -0.3270  0.9025  0.3662
17499TIP3   OH273911   2.048   3.500  15.420  0.1066 -0.6301  0.5170
17499TIP3    H173912   1.965   3.455  15.437 -0.6979  0.4428 -0.4566
17499TIP3    H273913   2.049   3.514  15.325  1.5956 -0.9987  0.4642
17500TIP3   OH273914   5.020   4.802   2.301 -0.4383  0.2384 -0.2269
17500TIP3    H173915   4.987   4.885   2.335 -3.8229 -1.4355  0.9221
17500TIP3    H273916   5.007   4.807   2.207  0.4788  1.4422 -0.2960
17501TIP3   OH273917   4.662   6.180   4.336  0.5468  0.5777 -0.1383
17501TIP3    H173918   4.636   6.145   4.251 -0.6005  1.8155 -0.3206
17501TIP3    H273919   4.581   6.186   4.386  1.1459  0.2807  0.8953
17502TIP3   OH273920   3.418   1.152  15.964  0.4826  0.2499 -0.4748
17502TIP3    H173921   3.420   1.204  15.884  2.0182  1.0512  0.0595
17502TIP3    H273922   3.471   1.075  15.943  0.7642  0.3908 -0.2972
17503TIP3   OH273923   4.675   0.686   0.925  0.3218 -0.1057 -0.6903
17503TIP3    H173924   4.605   0.680   0.861 -0.6671  0.4673  0.3208
17503TIP3    H273925   4.744   0.735   0.880 -1.0506  1.8389 -0.7345
17504TIP3   OH273926   2.319   0.474   6.048  0.2093  0.0844 -0.1012
17504TIP3    H173927   2.362   0.389   6.033  2.3338  1.4082 -1.8061
17504TIP3    H273928   2.371   0.514   6.118 -1.2909 -0.3330  1.2755
17505TIP3   OH273929   2.035   4.758   3.738  0.0971 -0.1928  0.0640
17505TIP3    H173930   2.019   4.853   3.738  1.0703 -0.0238 -0.7459
17505TIP3    H273931   1.949   4.720   3.719 -0.3160  0.5225  0.4590
17506TIP3   OH273932   6.393   5.568   5.170 -0.1856  0.0057 -1.4584
17506TIP3    H173933   6.380   5.644   5.226  0.5914 -0.6482 -0.3539
17506TIP3    H273934   6.361   5.594   5.084 -1.8904  0.8621 -0.5772
17507TIP3   OH273935   6.223   3.855  15.096 -0.3187 -0.1692  0.8346
17507TIP3    H173936   6.263   3.867  15.182 -0.6624 -0.3528  1.0203
17507TIP3    H273937   6.297   3.858  15.035  0.2189 -2.2339  1.3306
17508TIP3   OH273938   4.916   3.365  11.835  0.1684 -0.0665  0.1876
17508TIP3    H173939   4.891   3.355  11.743  0.1190 -0.1208  0.2060
17508TIP3    H273940   4.969   3.445  11.837 -0.4325  0.3416  0.2281
17509TIP3   OH273941   2.678   1.789  12.614  0.4194  0.0022  0.4715
17509TIP3    H173942   2.727   1.735  12.552 -1.4544 -0.1835 -0.9030
17509TIP3    H273943   2.745   1.827  12.671  1.9864 -1.6624 -0.2038
17510TIP3   OH273944   1.952   1.548   3.321 -0.0640  0.3561  0.0829
17510TIP3    H173945   1.908   1.495   3.254  0.0474 -0.0027  0.2895
17510TIP3    H273946   1.891   1.618   3.340 -0.3906  0.0705  0.0967
17511TIP3   OH273947   1.838   1.538  15.963 -0.2939  0.3708 -0.0081
17511TIP3    H173948   1.830   1.444  15.945  0.9134  0.0806  0.9032
17511TIP3    H273949   1.861   1.543  16.056  1.6895  1.4481 -0.5208
17512TIP3   OH273950   4.598   1.041   0.615 -0.3996  0.1635 -0.0686
17512TIP3    H173951   4.694   1.042   0.620 -0.4357  0.1970  0.5958
17512TIP3    H273952   4.579   1.039   0.521  0.2486  0.8634 -0.2237
17513TIP3   OH273953   0.382   1.916   4.128  0.4455  0.8978 -0.3488
17513TIP3    H173954   0.469   1.931   4.165  0.7823 -0.4041 -0.5616
17513TIP3    H273955   0.329   1.889   4.203  1.3241 -2.5180 -0.8426
17514TIP3   OH273956   4.735   6.400  13.600  0.5261  0.1777  0.0721
17514TIP3    H173957   4.749   6.351  13.681  3.3705  0.5077 -0.1620
17514TIP3    H273958   4.800   6.365  13.539 -0.3446  1.2202 -1.4932
17515TIP3   OH273959   5.022   2.440   1.309  0.2368  0.3571 -0.1728
17515TIP3    H173960   5.037   2.533   1.328  1.1461  0.2911 -0.5284
17515TIP3    H273961   5.107   2.399   1.324 -0.8017 -0.8723  2.6106
17516TIP3   OH273962   4.805   5.108   4.079  0.2180  0.0683 -0.1397
17516TIP3    H173963   4.801   5.049   4.004  1.0937 -0.1516 -0.0137
17516TIP3    H273964   4.715   5.112   4.111  0.0269 -0.6540 -0.5736
17517TIP3   OH273965   0.833   1.551   5.188 -0.0234 -0.1526  0.3162
17517TIP3    H173966   0.885   1.623   5.224 -0.7051 -0.4113  1.8550
17517TIP3    H273967   0.759   1.542   5.249 -0.0210 -2.0530  0.0470
17518TIP3   OH273968   4.218   5.886  10.809  0.0806 -0.4465 -0.5441
17518TIP3    H173969   4.215   5.975  10.774  1.6152 -0.4552 -0.7431
17518TIP3    H273970   4.159   5.836  10.753 -0.7363  0.4331 -0.4762
17519TIP3   OH273971   1.967   4.159   1.403  0.5651 -0.0617  0.3030
17519TIP3    H173972   2.007   4.108   1.474 -0.2698 -0.5047  0.4629
17519TIP3    H273973   2.001   4.118   1.323 -1.1561 -1.7828  0.4077
17520TIP3   OH273974   4.186   1.545   1.974  0.3917  0.6658  0.3650
17520TIP3    H173975   4.196   1.499   1.891 -0.4835 -0.2566  0.7666
17520TIP3    H273976   4.101   1.518   2.007  0.0423  2.2443  0.8144
17521TIP3   OH273977   1.589   4.309   1.633 -0.1872 -0.0672  0.5932
17521TIP3    H173978   1.498   4.280   1.624 -0.4322  0.7302  0.5126
17521TIP3    H273979   1.629   4.286   1.549 -0.5397  0.3823  0.2987
17522TIP3   OH273980   3.713   3.098   5.352 -0.1650 -0.0985  0.4906
17522TIP3    H173981   3.782   3.082   5.417 -0.2303  0.3927  0.6840
17522TIP3    H273982   3.759   3.101   5.268  0.4332  2.8585  0.8849
17523TIP3   OH273983   5.232   4.183   3.331  0.7562  0.2200  0.2763
17523TIP3    H173984   5.278   4.100   3.347 -0.4200 -0.4819  0.1066
17523TIP3    H273985   5.197   4.174   3.242 -2.4541 -0.6176  1.5465
17524TIP3   OH273986   2.611   0.497   3.131  0.5060 -0.5280  0.0789
17524TIP3    H173987   2.548   0.484   3.202  1.2598 -0.8311  0.6866
17524TIP3    H273988   2.579   0.441   3.060 -0.1505 -0.3519  0.2318
17525TIP3   OH273989   3.653   0.883   2.722 -0.1951  0.3368 -0.2195
17525TIP3    H173990   3.606   0.805   2.752 -0.2635  1.2604  2.1782
17525TIP3    H273991   3.585   0.950   2.715 -0.0649  0.3115 -1.8408
17526TIP3   OH273992   0.149   6.507   3.399  0.2639 -0.1328 -0.4082
17526TIP3    H173993   0.067   6.529   3.443 -0.3595 -0.6960 -1.2750
17526TIP3    H273994   0.188   6.439   3.454 -0.1269 -0.2667 -0.2912
17527TIP3   OH273995   4.082   1.722  13.840 -0.4765 -0.2332  0.8708
17527TIP3    H173996   4.141   1.795  13.819 -2.0217  0.8609  0.1939
17527TIP3    H273997   4.136   1.661  13.890  1.4823  0.2574 -0.5798
17528TIP3   OH273998   0.753   4.192  12.398 -0.0819  0.0787  0.5296
17528TIP3    H173999   0.848   4.189  12.396 -0.1288 -1.0355 -1.0046
17528TIP3    H274000   0.731   4.223  12.486  1.6960  0.8939  0.6969
17529TIP3   OH274001   1.910   4.981   1.180  0.1711 -0.5206  0.3781
17529TIP3    H174002   1.885   4.989   1.272  0.4081  0.4874  0.3582
17529TIP3    H274003   2.005   4.970   1.182  0.4642  1.7396  0.1563
17530TIP3   OH274004   4.443   1.664   2.588  0.2749 -0.2578 -0.0801
17530TIP3    H174005   4.355   1.660   2.626  0.1567 -0.6511 -0.3870
17530TIP3    H274006   4.468   1.756   2.596  0.6928 -0.5396  1.8997
17531TIP3   OH274007   6.730   6.411  11.014  0.4897 -0.3073 -0.0024
17531TIP3    H174008   6.668   6.480  10.988  0.1705 -0.3753  0.5731
17531TIP3    H274009   6.785   6.399  10.937 -0.4517 -0.5069 -0.6622
17532TIP3   OH274010   0.922   3.397   0.427  0.2871  0.2729 -0.0203
17532TIP3    H174011   0.832   3.423   0.405  0.6233  0.8538 -0.7320
17532TIP3    H274012   0.913   3.343   0.505 -0.7666 -0.4041 -0.6012
17533TIP3   OH274013   1.542   5.637  14.331 -0.2245 -0.2396  0.5416
17533TIP3    H174014   1.539   5.582  14.252  0.4645  1.2225 -0.5166
17533TIP3    H274015   1.630   5.624  14.367 -0.3363 -0.4446  0.7431
17534TIP3   OH274016   2.524   5.779   5.873  0.3034  0.0272  0.0503
17534TIP3    H174017   2.451   5.717   5.884 -0.0375  0.6191  1.2924
17534TIP3    H274018   2.602   5.724   5.875 -0.0664 -0.5192 -0.3717
17535TIP3   OH274019   3.574   6.073  11.382  0.1655  0.4731  0.0278
17535TIP3    H174020   3.640   6.085  11.451 -1.4441  0.7220  1.5754
17535TIP3    H274021   3.562   5.978  11.377 -0.3037  0.4911  0.6924
17536TIP3   OH274022   2.764   6.742   2.299 -0.3339 -0.7747  0.7302
17536TIP3    H174023   2.839   6.688   2.319 -0.2035 -0.7683  0.2729
17536TIP3    H274024   2.801   6.825   2.268 -0.5134 -1.2591 -0.8127
17537TIP3   OH274025   4.717   1.484  12.410 -0.3533 -0.7859 -0.0119
17537TIP3    H174026   4.769   1.563  12.421 -2.5989  0.7166  0.1240
17537TIP3    H274027   4.677   1.493  12.324 -1.0961 -1.4891  0.2532
17538TIP3   OH274028   0.672   1.422   2.658  0.1075  0.0926  0.9907
17538TIP3    H174029   0.586   1.393   2.687 -0.1785  0.6883  0.7474
17538TIP3    H274030   0.654   1.485   2.589  0.6751  1.6166  2.1949
17539TIP3   OH274031   3.788   5.045   1.128 -0.1498  0.0994  0.7574
17539TIP3    H174032   3.709   5.051   1.074 -0.7845  0.5948  1.7359
17539TIP3    H274033   3.842   5.118   1.099 -1.5361  1.8423  2.4482
17540TIP3   OH274034   6.477   2.044  13.010  0.1927  0.0188  0.4831
17540TIP3    H174035   6.554   1.992  12.984  0.6955  0.5603  0.8901
17540TIP3    H274036   6.508   2.100  13.081  0.3649  2.7964 -1.7133
17541TIP3   OH274037   0.267   4.496   0.809 -0.1878 -0.1770  0.3011
17541TIP3    H174038   0.310   4.497   0.724 -1.9993 -1.5342 -0.6495
17541TIP3    H274039   0.287   4.410   0.846 -0.2391  0.0372  0.8448
17542TIP3   OH274040   4.454   1.644  17.134 -0.1768 -0.6719  0.4426
17542TIP3    H174041   4.406   1.569  17.169  0.5332 -1.1936  0.2923
17542TIP3    H274042   4.503   1.679  17.209  0.6264 -1.2364  0.1850
17543TIP3   OH274043   0.888   4.947   3.677  0.0819 -0.5503 -0.1492
17543TIP3    H174044   0.820   4.915   3.737  1.0932 -0.7612  0.9144
17543TIP3    H274045   0.951   4.875   3.672 -0.1599 -0.6697 -1.7586
17544TIP3   OH274046   6.670   2.009   0.394 -0.4033  0.1003 -0.4290
17544TIP3    H174047   6.596   1.960   0.358 -0.2003  0.0008 -0.7197
17544TIP3    H274048   6.736   1.941   0.411 -0.9052  0.0104  1.1714
17545TIP3   OH274049   4.764   1.141   1.401 -0.7293  0.1602 -0.3334
17545TIP3    H174050   4.854   1.127   1.429 -0.1719  0.8577 -1.6886
17545TIP3    H274051   4.728   1.203   1.464 -0.1968  0.0225  0.1012
17546TIP3   OH274052   1.785   2.586   5.277  0.6047  0.3007  0.4823
17546TIP3    H174053   1.841   2.518   5.316 -0.2010 -0.4135  0.4253
17546TIP3    H274054   1.733   2.539   5.212 -0.5535  0.8199  1.0270
17547TIP3   OH274055   0.278   5.147   1.568 -0.3588 -0.8474  0.3959
17547TIP3    H174056   0.222   5.146   1.645 -0.3744 -1.8470  0.3766
17547TIP3    H274057   0.232   5.093   1.504 -1.8966  2.4672 -1.4271
17548TIP3   OH274058   4.962   5.827   3.496 -0.9345  0.0646  0.3973
17548TIP3    H174059   4.997   5.794   3.414 -0.2149  1.5541  0.0772
17548TIP3    H274060   5.005   5.775   3.564  0.7160  0.7911 -0.0683
17549TIP3   OH274061   5.380   5.695   3.674  0.2163  0.0814  0.2781
17549TIP3    H174062   5.473   5.682   3.656  0.4739 -1.1982  2.3392
17549TIP3    H274063   5.344   5.606   3.678 -0.5768  0.4677  2.0351
17550TIP3   OH274064   4.028   2.108   6.838 -0.0480 -0.3737  0.5836
17550TIP3    H174065   4.011   2.155   6.756  0.6190  0.8578  1.1385
17550TIP3    H274066   3.980   2.158   6.904  1.6482  0.2497  1.3763
17551TIP3   OH274067   0.805   1.327  12.894 -0.6255  0.3566 -0.1525
17551TIP3    H174068   0.715   1.355  12.881 -0.1858  1.4053 -1.1155
17551TIP3    H274069   0.853   1.365  12.820  0.5899 -0.2321  0.3064
17552TIP3   OH274070   3.858   1.900   3.466 -0.3250  0.3524  0.6644
17552TIP3    H174071   3.790   1.962   3.438  0.6442  2.4895  2.8664
17552TIP3    H274072   3.820   1.856   3.541 -0.8095 -1.4330 -0.5887
17553TIP3   OH274073   1.172   2.846   3.129  0.3080 -0.1198 -0.6951
17553TIP3    H174074   1.181   2.835   3.035 -0.1924 -1.9511 -0.5605
17553TIP3    H274075   1.094   2.794   3.152  1.1063 -0.6731  0.8738
17554TIP3   OH274076   2.585   0.469   1.332 -0.3438 -0.0775 -0.4458
17554TIP3    H174077   2.651   0.535   1.350 -0.6303  0.3459 -0.9182
17554TIP3    H274078   2.546   0.450   1.417  0.0265  0.0520 -0.2471
17555TIP3   OH274079   6.538   5.487   2.999 -0.5018  0.1779 -0.1691
17555TIP3    H174080   6.604   5.554   2.981  2.3029 -1.8894  1.9390
17555TIP3    H274081   6.514   5.502   3.090 -0.5848 -1.0356  0.0138
17556TIP3   OH274082   0.782   1.601   6.315 -0.3956 -0.7374  0.1370
17556TIP3    H174083   0.722   1.594   6.390  2.0451  0.2909  2.2751
17556TIP3    H274084   0.786   1.695   6.297  0.3227 -0.8395 -0.2286
17557TIP3   OH274085   0.592   1.747   2.664 -0.2778  0.2463 -0.1864
17557TIP3    H174086   0.523   1.779   2.723 -0.1537 -0.6120  0.4348
17557TIP3    H274087   0.662   1.719   2.723  0.1752  0.1350 -0.7772
17558TIP3   OH274088   3.916   1.425  13.863  0.0522  0.2703  0.2682
17558TIP3    H174089   3.881   1.508  13.833 -0.4075  0.5223  1.4863
17558TIP3    H274090   4.005   1.445  13.891  0.0682  0.2765  0.2125
17559TIP3   OH274091   1.353   6.095  16.593  0.6606  0.1378  0.1596
17559TIP3    H174092   1.307   6.139  16.664 -1.2171 -0.0142 -0.9529
17559TIP3    H274093   1.285   6.048  16.545  2.1276 -1.0501 -0.8080
17560TIP3   OH274094   3.326   4.616  12.810 -0.0537 -0.0523  0.0860
17560TIP3    H174095   3.254   4.674  12.836 -0.5810  0.1787 -1.7998
17560TIP3    H274096   3.404   4.673  12.811 -0.6555  0.8804 -2.2936
17561TIP3   OH274097   3.784   4.505  11.277  0.1998 -0.0877 -0.0042
17561TIP3    H174098   3.819   4.552  11.201  0.1587  1.6797  1.0305
17561TIP3    H274099   3.703   4.465  11.244  0.7048 -0.1856 -1.1552
17562TIP3   OH274100   4.069   0.117  11.868 -0.0634 -0.1686 -0.0412
17562TIP3    H174101   4.001   0.050  11.873 -0.8072  0.6730  1.8434
17562TIP3    H274102   4.115   0.100  11.786 -0.9244 -2.3146 -0.0882
17563TIP3   OH274103   2.028   3.970  15.623 -0.0706 -0.0397  0.2039
17563TIP3    H174104   2.009   3.890  15.672 -1.3717 -1.1209 -1.9596
17563TIP3    H274105   2.118   3.992  15.645 -0.5095 -0.6507  2.7850
17564TIP3   OH274106   6.508   6.553  13.071 -0.3565  0.2614  0.2547
17564TIP3    H174107   6.553   6.551  12.986  1.1817 -0.2906  1.0790
17564TIP3    H274108   6.425   6.509  13.054 -0.0392  0.0953 -0.9543
17565TIP3   OH274109   5.551   2.073  12.642  0.2481  0.7945  0.5458
17565TIP3    H174110   5.458   2.092  12.630  0.5769  1.1568 -1.4837
17565TIP3    H274111   5.564   1.987  12.603  0.3789 -0.2045  2.6898
17566TIP3   OH274112   0.114   0.106  12.249  0.3937  0.1876 -0.3993
17566TIP3    H174113   0.162   0.130  12.170  0.3330  0.2642 -0.4128
17566TIP3    H274114   0.181   0.073  12.308  0.3695 -0.3793 -0.6809
17567TIP3   OH274115   4.126   4.040  14.985  0.3430  0.5084 -0.4741
17567TIP3    H174116   4.130   4.109  14.918 -1.0051  2.7223  1.6380
17567TIP3    H274117   4.070   4.076  15.053  0.4956 -2.2843  1.2171
17568TIP3   OH274118   1.519   3.200   1.085  0.2120 -0.0268  0.3508
17568TIP3    H174119   1.480   3.231   1.167  0.3366 -0.3706  0.5412
17568TIP3    H274120   1.613   3.192   1.105  0.2678  0.0596  0.1241
17569TIP3   OH274121   4.676   4.661  14.448 -0.0303 -0.5717 -0.2808
17569TIP3    H174122   4.714   4.703  14.525 -3.0825 -0.1678  1.0724
17569TIP3    H274123   4.685   4.567  14.465 -1.5976 -0.4976  1.0825
17570TIP3   OH274124   5.519   0.520  14.521  0.7677 -0.2625 -0.2263
17570TIP3    H174125   5.571   0.600  14.514  0.0987  0.0912 -1.3535
17570TIP3    H274126   5.578   0.456  14.560  0.8942  1.1425  2.0014
17571TIP3   OH274127   3.380   2.964  17.200  0.3944  0.2591  0.1558
17571TIP3    H174128   3.452   2.920  17.244 -1.2363 -1.0905  1.5728
17571TIP3    H274129   3.314   2.975  17.269 -0.6902  1.5705 -1.0787
17572TIP3   OH274130   1.893   2.872  16.876 -0.0880  0.4178  0.2677
17572TIP3    H174131   1.981   2.839  16.860  0.1712  1.9493 -1.7533
17572TIP3    H274132   1.905   2.966  16.890 -1.5379  0.9722 -1.8444
17573TIP3   OH274133   2.575   6.220   5.199 -0.2792 -1.0252  0.1936
17573TIP3    H174134   2.490   6.263   5.184  0.8842  0.6470 -1.8546
17573TIP3    H274135   2.598   6.183   5.114  1.5470 -0.5202  0.4422
17574TIP3   OH274136   3.073   3.292   5.233 -0.1889  0.4398 -0.3391
17574TIP3    H174137   3.065   3.376   5.279  0.7156 -0.3363  1.2807
17574TIP3    H274138   3.028   3.306   5.149  0.8637  2.8465 -0.5327
17575TIP3   OH274139   0.525   3.615   6.381  0.4289  0.2416  0.2963
17575TIP3    H174140   0.435   3.592   6.359  0.5945 -2.1904  2.0063
17575TIP3    H274141   0.544   3.566   6.461  3.4586  0.2459 -0.3554
17576TIP3   OH274142   0.627   2.560  12.913 -0.5471  0.1486 -0.2693
17576TIP3    H174143   0.685   2.607  12.853 -0.8171  0.5013 -0.2584
17576TIP3    H274144   0.662   2.472  12.917 -0.8312 -0.0172 -1.3612
17577TIP3   OH274145   5.449   3.653  12.250 -0.3824  0.6393 -0.0734
17577TIP3    H174146   5.515   3.654  12.181 -0.2667 -0.3780  0.0154
17577TIP3    H274147   5.395   3.577  12.230 -0.8144  0.7923  0.5199
17578TIP3   OH274148   2.166   5.520  16.176 -0.2236 -1.6139  0.2674
17578TIP3    H174149   2.253   5.536  16.212 -0.3282  0.0650 -0.1965
17578TIP3    H274150   2.138   5.438  16.217  1.6192 -2.2366  0.3260
17579TIP3   OH274151   2.890   3.288  15.473 -0.0844 -0.6499 -0.1061
17579TIP3    H174152   2.983   3.275  15.455 -0.3121 -2.0331 -0.3544
17579TIP3    H274153   2.886   3.302  15.568  0.5338  0.9859 -0.3190
17580TIP3   OH274154   3.833   4.483   4.913  0.4800 -0.2331 -0.1282
17580TIP3    H174155   3.792   4.411   4.866 -1.1628 -0.4621  1.5997
17580TIP3    H274156   3.870   4.442   4.992 -0.0206  0.7234  0.6132
17581TIP3   OH274157   5.722   2.339   4.060  0.1857  0.2612  0.1580
17581TIP3    H174158   5.695   2.366   4.148  0.6762  1.6769 -0.1141
17581TIP3    H274159   5.817   2.343   4.062  0.1546  2.6426 -1.1220
17582TIP3   OH274160   2.530   2.988   2.361 -0.7363 -0.6118 -0.4635
17582TIP3    H174161   2.592   2.920   2.334 -0.6779 -0.8114  0.1787
17582TIP3    H274162   2.568   3.070   2.330 -0.2049 -0.7473 -0.1670
17583TIP3   OH274163   0.566   4.091  15.694  0.4040 -0.0028  0.9422
17583TIP3    H174164   0.570   4.073  15.600  0.0705 -0.8393  1.0811
17583TIP3    H274165   0.656   4.081  15.724 -0.1772 -4.1846  1.4904
17584TIP3   OH274166   0.103   2.156   2.288 -0.0776 -0.0185  0.4715
17584TIP3    H174167   0.178   2.138   2.345  0.8582  0.4282 -0.5955
17584TIP3    H274168   0.076   2.070   2.255 -0.0604 -0.1854  0.8974
17585TIP3   OH274169   2.804   0.338   1.667  0.0442 -0.7255  0.2677
17585TIP3    H174170   2.856   0.405   1.624 -0.4172 -0.6868 -0.2411
17585TIP3    H274171   2.797   0.268   1.602 -2.5773  0.2779 -0.6300
17586TIP3   OH274172   6.250   1.125   1.091  0.6328 -0.1352 -0.1948
17586TIP3    H174173   6.286   1.211   1.113  1.8169 -0.9469  1.1585
17586TIP3    H274174   6.157   1.131   1.113  0.7390  0.7492  0.0196
17587TIP3   OH274175   2.649   4.029  15.683 -0.0125 -0.1769 -0.1191
17587TIP3    H174176   2.566   3.982  15.687 -0.0689  0.0384  1.2586
17587TIP3    H274177   2.700   3.981  15.618 -0.8288 -0.9291 -0.2076
17588TIP3   OH274178   1.599   4.633   5.038  0.1983 -0.5372 -0.1918
17588TIP3    H174179   1.616   4.660   4.948  1.8112  0.4166  0.3867
17588TIP3    H274180   1.626   4.541   5.040  2.2140  0.0373 -0.1427
17589TIP3   OH274181   2.667   0.740  13.225  0.6295 -0.1563  0.0704
17589TIP3    H174182   2.602   0.673  13.202  0.5733  0.1142 -0.5731
17589TIP3    H274183   2.621   0.797  13.287 -0.0817  0.5888 -1.1145
17590TIP3   OH274184   0.843   4.712  17.055  0.0121 -0.1016  0.0688
17590TIP3    H174185   0.838   4.795  17.008  0.4741 -0.3469 -0.4184
17590TIP3    H274186   0.877   4.650  16.991 -0.1900 -0.6353  0.4724
17591TIP3   OH274187   2.591   1.066  15.925 -0.9583  0.5278 -0.0175
17591TIP3    H174188   2.575   1.129  15.994 -0.8325  0.8312 -0.2664
17591TIP3    H274189   2.686   1.054  15.923 -1.0138  0.0169  0.3092
17592TIP3   OH274190   2.719   5.236  12.389 -0.0107 -0.2198 -0.0021
17592TIP3    H174191   2.813   5.234  12.409 -0.0723  0.0920  0.3189
17592TIP3    H274192   2.714   5.207  12.298  0.3735 -0.4953  0.0596
17593TIP3   OH274193   6.275   2.609   5.810  0.1999  0.1603  0.5340
17593TIP3    H174194   6.215   2.649   5.873  0.6315  0.4743  0.7555
17593TIP3    H274195   6.227   2.535   5.773 -1.1430  1.7407 -0.9380
17594TIP3   OH274196   4.352   3.848  12.967 -0.1929  0.5776 -0.0838
17594TIP3    H174197   4.294   3.786  12.923  0.4208 -0.1002  0.0364
17594TIP3    H274198   4.312   3.860  13.053 -1.5548  2.1390 -0.9098
17595TIP3   OH274199   1.358   5.814  16.888 -0.3206 -0.5272  0.3840
17595TIP3    H174200   1.414   5.863  16.828 -0.4522 -0.0545  0.6394
17595TIP3    H274201   1.417   5.789  16.960  0.0597 -1.9403 -0.4038
17596TIP3   OH274202   2.726   2.473  11.029 -0.4157 -0.5825  0.7760
17596TIP3    H174203   2.641   2.458  11.069 -1.3853 -0.0654 -1.0473
17596TIP3    H274204   2.729   2.413  10.954 -0.3500  1.3529 -0.8155
17597TIP3   OH274205   5.066   4.813  15.702  0.0270  0.3728 -0.2702
17597TIP3    H174206   5.078   4.765  15.620  0.1958 -0.9415  0.5277
17597TIP3    H274207   5.118   4.765  15.766 -0.3171  1.2514  0.6744
17598TIP3   OH274208   1.437   0.835   5.461 -0.1352  0.5438 -0.1068
17598TIP3    H174209   1.385   0.760   5.431 -0.3466  0.2706  0.9406
17598TIP3    H274210   1.382   0.878   5.526  0.3178  1.1541 -0.1285
17599TIP3   OH274211   4.537   1.177  15.071  0.3222  0.4264  0.4435
17599TIP3    H174212   4.541   1.084  15.094  0.1017  0.1313 -0.7185
17599TIP3    H274213   4.591   1.219  15.138 -1.0590 -0.3144  2.0873
17600TIP3   OH274214   5.493   0.080   1.384 -0.4311  0.7545 -0.0427
17600TIP3    H174215   5.485   0.014   1.315 -2.8540  0.0723  0.8084
17600TIP3    H274216   5.539   0.035   1.455  0.6054  0.9420 -0.5918
17601TIP3   OH274217   4.758   1.503   0.651  0.5811  0.3766 -0.1773
17601TIP3    H174218   4.789   1.433   0.707 -0.6404  0.2677  0.3763
17601TIP3    H274219   4.774   1.472   0.562 -0.0918 -0.6759  0.0626
17602TIP3   OH274220   1.969   3.249  13.415 -0.1084  0.6463 -0.3408
17602TIP3    H174221   2.012   3.294  13.342 -0.3604  1.9528  0.3098
17602TIP3    H274222   1.878   3.280  13.412 -0.2326  0.3390  0.2371
17603TIP3   OH274223   5.026   0.877   0.976 -0.0917 -0.1489  0.2752
17603TIP3    H174224   4.996   0.801   1.026 -0.5876  0.1470  0.4352
17603TIP3    H274225   5.117   0.857   0.953 -0.2372 -0.8078  0.2765
17604TIP3   OH274226   2.615   4.331   0.756 -0.3222 -0.8171  0.1928
17604TIP3    H174227   2.572   4.291   0.831 -2.3076  0.7782 -0.0556
17604TIP3    H274228   2.704   4.349   0.787 -2.1753  3.4985  3.6763
17605TIP3   OH274229   0.063   1.288  16.117  0.2611  0.1407 -0.2851
17605TIP3    H174230  -0.028   1.265  16.134  0.9673 -2.5039  0.0950
17605TIP3    H274231   0.061   1.381  16.097 -2.6110 -0.0259 -0.9051
17606TIP3   OH274232   3.147   4.911  11.233  0.1211  0.2862 -0.0147
17606TIP3    H174233   3.075   4.888  11.293 -1.0930  4.5541  0.2905
17606TIP3    H274234   3.218   4.939  11.291  0.3463  0.6457 -0.4634
17607TIP3   OH274235   0.662   6.518  10.355  0.6882 -0.3565  0.1415
17607TIP3    H174236   0.692   6.606  10.330 -0.4453  0.1093  0.3894
17607TIP3    H274237   0.700   6.504  10.442 -0.7015  0.6822  0.9310
17608TIP3   OH274238   4.781   0.167  13.515  0.1966 -0.0811  0.2145
17608TIP3    H174239   4.723   0.168  13.592  2.1159  1.9609  1.6952
17608TIP3    H274240   4.759   0.248  13.468 -1.1602 -1.4534 -1.5842
17609TIP3   OH274241   3.507   4.285   3.007  0.1988  0.1062  0.4022
17609TIP3    H174242   3.588   4.285   3.057  1.4839  0.5723 -1.6500
17609TIP3    H274243   3.475   4.375   3.013 -0.5823 -0.2462  1.8210
17610TIP3   OH274244   6.621   0.083   6.283  0.3636  0.4826 -0.1872
17610TIP3    H174245   6.599   0.176   6.284 -0.9054  0.1847  0.4269
17610TIP3    H274246   6.637   0.063   6.190 -1.1205  0.9097 -0.5403
17611TIP3   OH274247   3.183   4.909  14.425 -0.0972 -0.0376  0.0783
17611TIP3    H174248   3.229   4.831  14.393  0.9087  1.0126 -1.0737
17611TIP3    H274249   3.253   4.973  14.441 -0.9685  0.8277  0.4905
17612TIP3   OH274250   2.257   4.765   0.952  0.0238 -0.1517  1.0496
17612TIP3    H174251   2.197   4.796   1.019 -2.7477 -0.8617 -1.0100
17612TIP3    H274252   2.291   4.845   0.911 -0.5631  0.2581  1.3587
17613TIP3   OH274253   1.209   6.011  11.064  0.1306  0.2318 -0.0781
17613TIP3    H174254   1.249   6.077  11.008  2.8649  0.9874  2.6585
17613TIP3    H274255   1.243   5.928  11.032  1.6007  0.6480  0.3951
17614TIP3   OH274256   5.030   6.290   1.506  0.2354 -1.4564  0.1161
17614TIP3    H174257   4.980   6.210   1.522 -0.8871 -0.5207  1.4608
17614TIP3    H274258   5.017   6.343   1.585  0.9380  0.0560 -0.7462
17615TIP3   OH274259   1.898   0.248   3.362  0.0584 -0.0087  0.3402
17615TIP3    H174260   1.838   0.214   3.295  1.7689 -0.0536 -1.1861
17615TIP3    H274261   1.980   0.263   3.316  1.2499  0.0538  2.4198
17616TIP3   OH274262   0.310   0.575   2.508 -0.1875  0.3184 -0.4542
17616TIP3    H174263   0.398   0.610   2.522 -0.3901  0.7439 -0.2222
17616TIP3    H274264   0.324   0.491   2.465  0.3181  0.5400 -0.7243
17617TIP3   OH274265   6.008   2.384   3.078  0.6372  0.1038  0.1885
17617TIP3    H174266   6.032   2.314   3.139  0.7097 -0.9676 -1.0576
17617TIP3    H274267   6.070   2.375   3.006  0.0099  0.8309 -0.4446
17618TIP3   OH274268   4.983   3.603   2.202  0.0348 -0.2289  0.1269
17618TIP3    H174269   4.905   3.575   2.153  0.4941 -0.9750 -0.1756
17618TIP3    H274270   4.977   3.556   2.285 -0.3147  0.4177  0.4768
17619TIP3   OH274271   0.224   6.628  16.205  0.1384 -0.5331  0.0101
17619TIP3    H174272   0.174   6.588  16.133  0.6248 -0.1071 -0.5726
17619TIP3    H274273   0.296   6.566  16.221  0.1628 -0.5152 -0.0297
17620TIP3   OH274274   5.993   5.850   4.387  0.3827 -0.0997  0.5298
17620TIP3    H174275   6.048   5.829   4.312  0.3258 -1.0372  0.7542
17620TIP3    H274276   6.054   5.871   4.457  0.4356  0.7814  0.2279
17621TIP3   OH274277   2.350   3.666   1.216 -0.1407  0.6495  0.0719
17621TIP3    H174278   2.272   3.625   1.179  1.0831 -2.0030  0.3564
17621TIP3    H274279   2.404   3.593   1.247  1.5054  2.5332  1.8048
17622TIP3   OH274280   0.800   4.261  17.223 -0.6565  0.2674  0.1109
17622TIP3    H174281   0.885   4.218  17.217  0.2818  1.9726  0.6934
17622TIP3    H274282   0.811   4.326  17.293 -2.3987  0.5928  0.1100
17623TIP3   OH274283   0.572   5.232   1.571 -0.6473 -0.1249  0.1545
17623TIP3    H174284   0.477   5.228   1.562 -0.5461  1.0874 -1.6925
17623TIP3    H274285   0.602   5.144   1.549 -1.1116  0.3992 -2.7970
17624TIP3   OH274286   0.915   3.340  16.839 -0.3477  0.3780  0.3532
17624TIP3    H174287   0.995   3.356  16.788 -1.8814  1.4728 -1.7908
17624TIP3    H274288   0.910   3.245  16.846 -0.2417  0.1822 -1.8252
17625TIP3   OH274289   6.420   2.866  13.997 -0.1096 -0.1291 -0.2509
17625TIP3    H174290   6.362   2.839  14.068 -1.7271  4.2269  0.2111
17625TIP3    H274291   6.361   2.891  13.926  1.3839 -0.2581 -1.5779
17626TIP3   OH274292   6.000   5.650   1.621 -0.0964 -0.2792 -0.5588
17626TIP3    H174293   6.004   5.555   1.625  1.0790 -0.1760  1.0441
17626TIP3    H274294   6.070   5.675   1.560 -0.4261 -0.4360 -1.0038
17627TIP3   OH274295   4.372   0.547  14.643  0.5288 -0.6473 -0.3752
17627TIP3    H174296   4.386   0.541  14.549 -0.3474 -1.1103 -0.4795
17627TIP3    H274297   4.343   0.460  14.669  1.9027 -0.8583  0.5284
17628TIP3   OH274298   4.909   2.364  14.303  0.5287 -0.0673  0.2082
17628TIP3    H174299   4.839   2.421  14.333  1.7346  2.0452 -0.9151
17628TIP3    H274300   4.879   2.332  14.217  0.6324  0.2620  0.0500
17629TIP3   OH274301   1.449   1.383   4.522 -0.5532  0.5754 -0.2767
17629TIP3    H174302   1.461   1.474   4.550 -1.1889  0.0975  1.6513
17629TIP3    H274303   1.375   1.352   4.575 -0.1307 -1.1515 -0.6944
17630TIP3   OH274304   3.310   1.416   1.282  0.0271  0.1086 -0.5282
17630TIP3    H174305   3.260   1.454   1.209 -0.5620  1.4695  0.5512
17630TIP3    H274306   3.330   1.491   1.339 -1.3590 -1.2129  1.7944
17631TIP3   OH274307   0.575   2.481   0.882  0.3230  0.7727 -0.3712
17631TIP3    H174308   0.574   2.395   0.924  0.1921  0.9501 -0.0122
17631TIP3    H274309   0.527   2.538   0.942 -0.5398  0.8525 -1.1382
17632TIP3   OH274310   1.491   5.642  15.498 -0.7682  0.1161 -0.2048
17632TIP3    H174311   1.553   5.596  15.555 -0.6602  0.1372 -0.3053
17632TIP3    H274312   1.471   5.581  15.428 -0.9111  0.0858 -0.1383
17633TIP3   OH274313   1.551   6.421  13.962 -0.1875  0.6524  0.2744
17633TIP3    H174314   1.498   6.428  14.041  0.7540  1.3451  0.8602
17633TIP3    H274315   1.637   6.455  13.988  1.5557 -3.4689  0.3103
17634TIP3   OH274316   5.404   2.283  13.877  0.6549 -0.2239 -0.6079
17634TIP3    H174317   5.390   2.317  13.788  1.1306 -4.2812 -2.3304
17634TIP3    H274318   5.321   2.301  13.922  0.7587  2.8014 -1.5008
17635TIP3   OH274319   4.521   2.265  12.885 -0.4103 -0.4120 -0.6662
17635TIP3    H174320   4.460   2.319  12.835  1.9404  1.3428 -1.7759
17635TIP3    H274321   4.578   2.226  12.818  0.0567 -1.5637  0.3758
17636TIP3   OH274322   6.047   2.570   3.278  1.1075  0.3068 -0.2910
17636TIP3    H174323   6.138   2.544   3.276  0.6138 -1.5401  0.7383
17636TIP3    H274324   6.006   2.524   3.205  0.9365  0.9065 -0.5796
17637TIP3   OH274325   4.957   5.286  11.619  0.0812 -0.1450 -0.0779
17637TIP3    H174326   4.912   5.348  11.562 -0.5510 -1.7812 -1.4150
17637TIP3    H274327   4.920   5.301  11.706  1.4752  2.7965  0.0709
17638TIP3   OH274328   1.880   0.381   1.453  0.1154 -0.4175 -0.0827
17638TIP3    H174329   1.910   0.378   1.544 -0.7572 -1.2576  0.1813
17638TIP3    H274330   1.807   0.443   1.454  0.6547  0.2285 -0.3791
17639TIP3   OH274331   6.074   3.737   4.847  0.6293  0.3233  0.4599
17639TIP3    H174332   6.051   3.806   4.786 -1.8845 -0.8062  0.0851
17639TIP3    H274333   6.128   3.677   4.796 -1.3570 -0.5513 -0.6563
17640TIP3   OH274334   0.432   4.744  15.034  0.4546 -0.1544 -0.3145
17640TIP3    H174335   0.360   4.799  15.003 -0.7604  0.0081  2.6458
17640TIP3    H274336   0.400   4.654  15.024  0.4378 -0.1403 -0.3903
17641TIP3   OH274337   4.365   3.544   3.334  0.1743 -0.2589  0.6060
17641TIP3    H174338   4.446   3.518   3.290  0.6621  0.2797  1.1827
17641TIP3    H274339   4.306   3.570   3.263 -0.0991 -2.3007  0.0607
17642TIP3   OH274340   5.645   1.493  11.889  0.1549 -0.2078  0.4913
17642TIP3    H174341   5.642   1.401  11.862 -1.4283 -0.1143  0.2754
17642TIP3    H274342   5.643   1.490  11.985  2.1215 -0.4421  0.5362
17643TIP3   OH274343   0.145   2.417   4.053 -0.1214 -0.3481 -0.0544
17643TIP3    H174344   0.229   2.373   4.045 -0.0962 -0.8701  2.5812
17643TIP3    H274345   0.166   2.510   4.056  0.3963 -0.4953  0.9289
17644TIP3   OH274346   6.300   5.078  16.122  0.1976 -0.1559  0.6497
17644TIP3    H174347   6.320   5.119  16.206  0.1267 -2.6319  1.9004
17644TIP3    H274348   6.252   5.145  16.074  1.8833  1.9686  1.8330
17645TIP3   OH274349   0.219   2.655   6.224 -1.1125 -0.3881  0.1753
17645TIP3    H174350   0.262   2.674   6.308 -2.1813 -0.1635  0.6876
17645TIP3    H274351   0.264   2.578   6.191  1.5480  1.4459 -0.6688
17646TIP3   OH274352   4.506   3.842  13.277 -0.0742  0.2101 -0.1622
17646TIP3    H174353   4.517   3.752  13.246  0.5440 -0.0825  0.8725
17646TIP3    H274354   4.418   3.867  13.248 -1.9689 -2.2326  3.1876
17647TIP3   OH274355   6.744   3.304   1.339 -0.1248  0.1807  0.5166
17647TIP3    H174356   6.660   3.257   1.335  0.2046 -0.3427 -0.4050
17647TIP3    H274357   6.724   3.390   1.303 -0.5054  0.4114  1.2761
17648TIP3   OH274358   6.226   3.909   4.252 -0.2318  0.0535  0.3892
17648TIP3    H174359   6.198   3.828   4.293  0.1704  0.1420  0.8357
17648TIP3    H274360   6.253   3.965   4.325 -0.9272  0.7513  0.1236
17649TIP3   OH274361   1.874   5.183  15.250  0.2544 -0.6007  0.3073
17649TIP3    H174362   1.904   5.255  15.305 -0.3445 -0.5857  0.6098
17649TIP3    H274363   1.790   5.157  15.287  0.5308 -1.5517  0.2946
17650TIP3   OH274364   4.920   3.872  16.709 -0.3322  0.5745 -0.7487
17650TIP3    H174365   4.948   3.895  16.797  1.8220  3.3481 -2.0669
17650TIP3    H274366   4.880   3.952  16.675 -3.0031 -1.0564 -1.6085
17651TIP3   OH274367   2.771   4.317  15.164  0.2032  0.0378  0.0616
17651TIP3    H174368   2.799   4.378  15.233 -1.6989  0.1800  0.7360
17651TIP3    H274369   2.728   4.372  15.099 -1.8953 -0.6228  0.8714
17652TIP3   OH274370   4.515   1.643   1.820  0.0891 -0.2458 -0.2129
17652TIP3    H174371   4.486   1.640   1.729 -0.0279  0.6609 -0.2077
17652TIP3    H274372   4.574   1.718   1.824 -0.6393  0.2971  0.6677
17653TIP3   OH274373   2.527   4.729  16.337 -0.0208  0.3939  0.2592
17653TIP3    H174374   2.593   4.664  16.362 -2.4863 -1.5249  2.0240
17653TIP3    H274375   2.528   4.793  16.407  0.4473  0.7438 -0.0631
17654TIP3   OH274376   3.284   1.887   6.527  0.1813  0.2428 -0.3983
17654TIP3    H174377   3.272   1.901   6.621 -0.3848 -0.5540 -0.3425
17654TIP3    H274378   3.215   1.939   6.486  1.2066  1.5879 -0.4409
17655TIP3   OH274379   2.289   5.034   4.358  0.4112  0.3998  0.0729
17655TIP3    H174380   2.261   5.063   4.444 -0.1981 -1.6668  0.6179
17655TIP3    H274381   2.214   4.986   4.324  0.7268  1.0119 -1.5214
17656TIP3   OH274382   5.117   6.075  10.525  0.3009 -0.0348 -0.2375
17656TIP3    H174383   5.199   6.044  10.564 -0.1910  0.7974  1.5009
17656TIP3    H274384   5.107   6.164  10.558 -1.9918 -0.6010  0.6993
17657TIP3   OH274385   4.208   5.251  16.109 -0.7091 -0.6806  0.1949
17657TIP3    H174386   4.232   5.324  16.052 -1.7084 -0.5624 -0.0781
17657TIP3    H274387   4.291   5.206  16.126 -0.2659 -0.1853 -0.6105
17658TIP3   OH274388   3.299   1.767   6.234 -0.6106  0.2348  0.1170
17658TIP3    H174389   3.309   1.809   6.320 -0.2954  1.4745 -0.5076
17658TIP3    H274390   3.383   1.782   6.191 -1.0300  0.2746 -0.6859
17659TIP3   OH274391   2.294   6.044  12.628 -0.3335 -0.1750 -0.2541
17659TIP3    H174392   2.272   6.109  12.695  2.4539 -0.2062  0.7429
17659TIP3    H274393   2.387   6.026  12.641 -0.4268 -2.3778 -2.2617
17660TIP3   OH274394   0.359   4.166  10.691  0.0522  0.3940  0.1018
17660TIP3    H174395   0.422   4.148  10.760 -0.4098  1.6097  0.8564
17660TIP3    H274396   0.288   4.214  10.735  0.1343  1.9142 -1.3627
17661TIP3   OH274397   5.818   6.241  16.025 -0.1214  0.6048 -0.3952
17661TIP3    H174398   5.819   6.146  16.011  0.1759  0.5490 -0.0027
17661TIP3    H274399   5.842   6.251  16.117 -1.2085  1.0106 -0.1526
17662TIP3   OH274400   6.573   6.205   5.500 -0.4952  0.0462  0.5892
17662TIP3    H174401   6.583   6.250   5.584 -0.4562 -2.8921  2.2290
17662TIP3    H274402   6.499   6.146   5.513 -0.9168  0.0222 -1.6865
17663TIP3   OH274403   3.308   5.238  14.234 -0.0228 -0.0427  0.2157
17663TIP3    H174404   3.325   5.189  14.315  1.0626 -0.1565 -0.0696
17663TIP3    H274405   3.353   5.321  14.246  0.6338 -0.2845 -0.4923
17664TIP3   OH274406   5.243   5.631  12.491 -0.0012  0.3841 -0.1198
17664TIP3    H174407   5.167   5.573  12.485 -0.4214  0.9366 -0.2747
17664TIP3    H274408   5.307   5.594  12.431 -0.8522  0.9417 -1.3807
17665TIP3   OH274409   5.590   6.128  14.164  0.2620 -0.0212 -0.3616
17665TIP3    H174410   5.583   6.155  14.073 -2.8209 -0.7671 -0.4109
17665TIP3    H274411   5.614   6.207  14.211  2.2302  0.2947 -1.8453
17666TIP3   OH274412   4.854   5.078  11.225  0.1292  0.3881  0.1248
17666TIP3    H174413   4.798   5.079  11.148  1.3329  0.0477 -0.7692
17666TIP3    H274414   4.928   5.134  11.202  0.6050  0.1123  0.9386
17667TIP3   OH274415   1.212   5.224   3.895 -0.3203  0.2453 -0.3196
17667TIP3    H174416   1.203   5.210   3.801  0.9381  1.1230 -0.5746
17667TIP3    H274417   1.209   5.136   3.932  1.1242 -0.2542 -1.3569
17668TIP3   OH274418   6.401   0.834   5.242 -0.1151 -0.2354 -0.1356
17668TIP3    H174419   6.364   0.759   5.287  0.4809 -0.0574  0.6508
17668TIP3    H274420   6.443   0.886   5.311 -0.8444  1.0063 -0.6098
17669TIP3   OH274421   6.617   0.482   5.561  0.6923 -0.6491 -0.1336
17669TIP3    H174422   6.657   0.568   5.575  0.4973 -1.1891  4.7322
17669TIP3    H274423   6.687   0.420   5.582 -1.4486 -1.5758  5.0728
17670TIP3   OH274424   4.976   5.823  12.137 -0.3124  0.0280  0.2640
17670TIP3    H174425   4.990   5.874  12.217  0.0870  0.4372 -0.0617
17670TIP3    H274426   4.953   5.736  12.168  0.9197 -0.1104  0.8425
17671TIP3   OH274427   5.665   2.060  15.087  0.2061 -0.0653  0.4236
17671TIP3    H174428   5.629   2.013  15.013 -0.4007 -1.9752  1.8806
17671TIP3    H274429   5.608   2.136  15.098 -1.0632 -0.9920  0.3367
17672TIP3   OH274430   1.890   6.638  14.349  0.4333 -0.1020  0.7290
17672TIP3    H174431   1.832   6.685  14.289  1.3050 -0.6486 -0.5733
17672TIP3    H274432   1.832   6.579  14.398 -0.1317 -0.5464 -0.4596
17673TIP3   OH274433   4.359   5.382   0.519 -0.4035  0.3836  0.3034
17673TIP3    H174434   4.380   5.307   0.574  0.0742 -0.5677 -1.1540
17673TIP3    H274435   4.417   5.452   0.550 -0.1228 -0.1409  0.9727
17674TIP3   OH274436   5.179   1.530   2.848  0.4727  0.1903 -0.0349
17674TIP3    H174437   5.254   1.575   2.888 -0.5507  1.2495  0.7389
17674TIP3    H274438   5.103   1.567   2.893 -0.5211 -0.7688 -0.9147
17675TIP3   OH274439   4.641   1.183  16.812 -0.0092 -0.2818 -0.0859
17675TIP3    H174440   4.707   1.247  16.838  0.3955 -0.3640 -0.8925
17675TIP3    H274441   4.674   1.146  16.730 -0.7493 -0.7730 -0.1725
17676TIP3   OH274442   1.344   3.888   5.453  0.0196  0.5938  0.4059
17676TIP3    H174443   1.405   3.891   5.380 -0.1614 -1.7115  0.1214
17676TIP3    H274444   1.288   3.965   5.441 -0.0462  0.2135 -1.9106
17677TIP3   OH274445   2.483   6.611  11.663 -0.6929 -0.3209  0.0443
17677TIP3    H174446   2.426   6.687  11.657  0.9860  0.8922 -1.0824
17677TIP3    H274447   2.453   6.553  11.593 -1.1332 -0.1046  0.0523
17678TIP3   OH274448   1.146   2.774   4.969  0.1226  0.2699  1.1511
17678TIP3    H174449   1.089   2.833   5.020  1.1182  2.0411  0.2446
17678TIP3    H274450   1.234   2.794   4.999  0.6505  0.7674 -0.6880
17679TIP3   OH274451   5.967   5.209   1.546 -0.8422  0.1394  1.1865
17679TIP3    H174452   5.905   5.142   1.574  1.3376 -2.2679  0.5449
17679TIP3    H274453   5.989   5.185   1.456  0.1035  1.6420  0.9911
17680TIP3   OH274454   6.467   0.420   2.302  0.6994  0.4736 -0.3060
17680TIP3    H174455   6.426   0.506   2.311 -0.9409 -0.2394 -0.8779
17680TIP3    H274456   6.412   0.373   2.239  2.9106 -0.1700 -1.8645
17681TIP3   OH274457   0.395   1.506  11.878  0.2588 -0.1153 -0.0954
17681TIP3    H174458   0.300   1.500  11.890  0.2274  0.4540 -0.0691
17681TIP3    H274459   0.428   1.534  11.963  0.4526 -0.2864 -0.1138
17682TIP3   OH274460   3.750   3.919  14.747  0.6006 -0.1068 -0.1894
17682TIP3    H174461   3.823   3.865  14.779  1.4765  1.1152 -0.1022
17682TIP3    H274462   3.718   3.964  14.826 -1.0234 -1.5231 -0.0099
17683TIP3   OH274463   3.615   4.185   0.098 -0.1822  0.1541 -0.1900
17683TIP3    H174464   3.673   4.214   0.169 -0.6721 -0.2607  0.3800
17683TIP3    H274465   3.562   4.262   0.077 -0.9292 -0.1021  0.7729
17684TIP3   OH274466   4.666   0.138   2.370 -0.1335 -0.3209  0.1687
17684TIP3    H174467   4.678   0.232   2.356  1.2549 -0.3733  0.8343
17684TIP3    H274468   4.629   0.105   2.288 -1.2889  0.9191  0.1921
17685TIP3   OH274469   4.691   4.856  11.991 -0.0961 -0.3390 -0.3853
17685TIP3    H174470   4.629   4.915  11.948 -1.0676 -0.1216  1.2818
17685TIP3    H274471   4.777   4.895  11.972 -0.7397  1.9969  1.1842
17686TIP3   OH274472   0.758   5.859   0.261 -0.3509  0.3567  0.0787
17686TIP3    H174473   0.701   5.926   0.300 -1.4859 -0.4163 -0.2143
17686TIP3    H274474   0.807   5.906   0.193 -1.9582  0.6652 -0.8884
17687TIP3   OH274475   0.150   6.358   0.668  0.1549 -0.0065  0.5153
17687TIP3    H174476   0.110   6.445   0.666  0.1046 -0.0677 -1.0528
17687TIP3    H274477   0.142   6.331   0.760 -0.1581  1.4834  0.9435
17688TIP3   OH274478   2.868   2.992   2.055  0.4979  0.2746 -1.2239
17688TIP3    H174479   2.837   2.901   2.048  1.4971 -0.1477 -0.1532
17688TIP3    H274480   2.812   3.040   1.993 -2.9658 -0.3016  1.2684
17689TIP3   OH274481   4.243   4.282  12.925  0.0256  0.3942  0.4401
17689TIP3    H174482   4.222   4.291  12.832  1.6369  1.3302  0.1298
17689TIP3    H274483   4.331   4.242  12.925 -0.2320 -0.1746  1.5737
17690TIP3   OH274484   6.328   5.284   3.358 -0.1865 -0.1864 -0.0308
17690TIP3    H174485   6.400   5.235   3.319  1.1473  1.6091  0.0763
17690TIP3    H274486   6.250   5.253   3.312  1.0694  0.2029 -2.5425
17691TIP3   OH274487   5.247   2.528   5.535 -0.0496 -0.6748 -0.2012
17691TIP3    H174488   5.242   2.452   5.477  1.0228 -0.5556 -0.4605
17691TIP3    H274489   5.252   2.490   5.623  2.5386 -0.9917 -0.4437
17692TIP3   OH274490   2.541   3.189   5.153  0.3307  0.4519  0.0111
17692TIP3    H174491   2.547   3.284   5.161 -1.4999  0.5394  0.5045
17692TIP3    H274492   2.508   3.173   5.065 -2.5020  0.4268  1.0352
17693TIP3   OH274493   1.052   0.444   1.848 -0.3341 -0.0640  0.0567
17693TIP3    H174494   1.070   0.351   1.856 -0.2045 -0.0793 -0.4244
17693TIP3    H274495   1.128   0.487   1.887 -1.1013 -0.1699  1.7130
17694TIP3   OH274496   5.485   2.697   0.932 -0.2415  0.7794 -0.3258
17694TIP3    H174497   5.546   2.748   0.878 -2.1969  1.5962 -1.8006
17694TIP3    H274498   5.461   2.622   0.877  0.2383 -0.1176  0.6676
17695TIP3   OH274499   6.020   6.649   3.341 -1.3178 -0.0749  0.0191
17695TIP3    H174500   6.072   6.647   3.421 -2.7301  0.3371  0.9774
17695TIP3    H274501   6.027   6.561   3.305 -0.0454 -0.0460  0.1714
17696TIP3   OH274502   1.682   5.566  13.804 -0.9314 -0.2453 -0.1587
17696TIP3    H174503   1.713   5.476  13.813 -0.7712 -0.0570  1.4122
17696TIP3    H274504   1.654   5.573  13.713  0.4088 -1.4483 -0.6887
17697TIP3   OH274505   3.154   3.238  15.426  0.3467 -0.4554  0.5574
17697TIP3    H174506   3.188   3.236  15.336 -0.0098  0.8845  0.3832
17697TIP3    H274507   3.227   3.208  15.480  1.0038  0.0521 -0.0474
17698TIP3   OH274508   0.580   6.040  11.648  0.0302 -0.5586  0.5935
17698TIP3    H174509   0.640   6.038  11.573  1.0540 -0.5829  1.3940
17698TIP3    H274510   0.549   5.950  11.656  0.3324 -0.6695  0.5221
17699TIP3   OH274511   0.853   6.368  15.613 -0.8724 -0.0957  0.0448
17699TIP3    H174512   0.874   6.461  15.619  1.8498 -0.6013 -1.1845
17699TIP3    H274513   0.926   6.324  15.657  0.4787 -1.8621 -3.7038
17700TIP3   OH274514   2.106   1.890  13.526 -0.5236  0.1910 -0.4143
17700TIP3    H174515   2.152   1.967  13.558 -0.7081  0.9401 -1.9012
17700TIP3    H274516   2.015   1.918  13.516 -0.5416 -0.1396 -1.2306
17701TIP3   OH274517   3.094   5.668  14.114  0.5125 -0.2816  0.3110
17701TIP3    H174518   3.116   5.670  14.208  2.1521 -2.0452  0.0066
17701TIP3    H274519   3.092   5.575  14.092  0.9515  0.1400 -1.5835
17702TIP3   OH274520   4.940   4.613  10.471  0.0028 -0.4040 -0.4213
17702TIP3    H174521   4.892   4.544  10.517  0.6266 -1.7114 -1.6747
17702TIP3    H274522   5.029   4.579  10.463  0.1074  0.1497 -1.8226
17703TIP3   OH274523   5.959   1.133  16.008  0.5827  0.1990  0.1606
17703TIP3    H174524   6.023   1.083  16.059  0.0583  0.1576  0.7954
17703TIP3    H274525   5.926   1.072  15.943  0.8190  0.0722  0.1612
17704TIP3   OH274526   6.161   4.173   5.844  0.6170  0.2094  0.5700
17704TIP3    H174527   6.079   4.162   5.796  1.7669  0.8539 -1.6136
17704TIP3    H274528   6.190   4.084   5.864  0.4276 -0.1055 -0.5086
17705TIP3   OH274529   5.433   4.561  14.506 -0.9891  0.3570 -0.5915
17705TIP3    H174530   5.398   4.645  14.477  0.9921  1.6327  0.6053
17705TIP3    H274531   5.505   4.584  14.564 -2.2222 -2.1434  2.0636
17706TIP3   OH274532   5.839   3.790  13.100  0.6021 -0.5185 -0.2218
17706TIP3    H174533   5.918   3.793  13.154  0.1920 -0.6327  0.3938
17706TIP3    H274534   5.833   3.699  13.071  0.4949 -0.5962  0.0416
17707TIP3   OH274535   0.429   5.528  15.236 -0.1013 -0.0276 -0.5804
17707TIP3    H174536   0.517   5.524  15.200  0.1439  1.9681 -0.2239
17707TIP3    H274537   0.381   5.460  15.189  1.1942  0.0084 -1.9765
17708TIP3   OH274538   5.548   6.430   3.537  0.6112  0.3778  0.2054
17708TIP3    H174539   5.521   6.456   3.449  0.4532 -2.3870 -0.6284
17708TIP3    H274540   5.633   6.470   3.549 -0.0385  2.0266 -0.6087
17709TIP3   OH274541   5.683   4.401  16.460 -0.0715 -0.0328 -0.3386
17709TIP3    H174542   5.738   4.450  16.399 -0.5326  0.3513 -0.4445
17709TIP3    H274543   5.661   4.320  16.413  1.3339 -0.7172  0.1334
17710TIP3   OH274544   2.229   0.820  11.534  0.4237 -0.1682  0.1147
17710TIP3    H174545   2.241   0.851  11.624  0.6920  0.6649 -0.2064
17710TIP3    H274546   2.209   0.899  11.484  0.8624 -0.5526 -0.6714
17711TIP3   OH274547   3.650   5.144   2.348 -0.2613  0.0235  0.4192
17711TIP3    H174548   3.639   5.085   2.422  0.3233  1.0478  1.3491
17711TIP3    H274549   3.596   5.107   2.278 -0.4397 -1.2095  1.2083
17712TIP3   OH274550   3.922   6.769   3.880 -0.5240  0.6796  0.0603
17712TIP3    H174551   3.867   6.834   3.835 -0.2111  0.8191 -0.1201
17712TIP3    H274552   3.906   6.786   3.973 -3.6965 -1.7508  0.0306
17713TIP3   OH274553   4.896   4.538  13.266 -0.3173 -0.3544 -0.8732
17713TIP3    H174554   4.952   4.552  13.189 -2.3179  2.1021 -1.9659
17713TIP3    H274555   4.890   4.625  13.307  0.3718 -1.5519  1.8584
17714TIP3   OH274556   6.476   0.001  12.636  0.2776 -1.0625  0.2115
17714TIP3    H174557   6.428   0.083  12.620 -0.2986 -0.9990  2.0886
17714TIP3    H274558   6.410  -0.067  12.629  0.6718 -1.3335 -0.9167
17715TIP3   OH274559   5.430   1.612  11.729 -0.7161 -0.1360 -0.6187
17715TIP3    H174560   5.497   1.586  11.792 -0.3360 -1.6178 -1.6086
17715TIP3    H274561   5.351   1.565  11.756 -0.6895 -0.3694 -0.9444
17716TIP3   OH274562   0.664   1.888   4.142  0.0525 -0.1121  0.3159
17716TIP3    H174563   0.720   1.908   4.218  1.0640  0.9038 -0.6735
17716TIP3    H274564   0.642   1.796   4.153  1.9555 -0.5493  0.7267
17717TIP3   OH274565   1.218   2.443  13.807  0.6002 -0.2026  0.4198
17717TIP3    H174566   1.198   2.537  13.802  0.9813 -0.0801  1.2014
17717TIP3    H274567   1.186   2.408  13.724  1.3176  0.7784 -0.2765
17718TIP3   OH274568   6.288   0.072  11.184  0.0640 -0.0617  0.2653
17718TIP3    H174569   6.339   0.013  11.128 -1.1895 -0.1058 -0.8367
17718TIP3    H274570   6.211   0.094  11.132  0.7446  2.9469  0.4513
17719TIP3   OH274571   3.159   4.529   0.109  0.2585  0.0025 -0.1598
17719TIP3    H174572   3.107   4.496   0.182  0.5955  1.7666  0.9220
17719TIP3    H274573   3.109   4.603   0.076  1.4637  0.9525  0.1104
17720TIP3   OH274574   4.412   0.107   2.897 -0.4255  0.3568 -0.2658
17720TIP3    H174575   4.429   0.019   2.864  1.1905  0.4217  0.3809
17720TIP3    H274576   4.398   0.159   2.818  0.4905 -0.1015 -0.7386
17721TIP3   OH274577   2.908   2.467  14.995 -0.6472  0.1419 -0.2817
17721TIP3    H174578   2.962   2.390  14.975  0.1307  1.0770 -1.8953
17721TIP3    H274579   2.971   2.533  15.026 -1.0515  0.7505 -0.7428
17722TIP3   OH274580   1.280   4.933   5.116 -0.1088  0.3325  0.1758
17722TIP3    H174581   1.219   4.963   5.183  0.3265 -0.2545  0.8551
17722TIP3    H274582   1.319   4.854   5.154 -0.6062 -0.5957 -1.2061
17723TIP3   OH274583   0.571   4.319  14.066 -0.1744  0.5552 -0.2855
17723TIP3    H174584   0.497   4.335  14.124  0.3160  1.4925  0.0807
17723TIP3    H274585   0.592   4.405  14.029 -0.6131 -0.0557 -1.9998
17724TIP3   OH274586   1.057   2.151  15.049  0.4453 -0.4139 -0.0583
17724TIP3    H174587   1.065   2.141  15.144 -0.4843  1.6334  0.2628
17724TIP3    H274588   1.144   2.129  15.015  1.5911  1.5215  1.5326
17725TIP3   OH274589   6.589   0.312   4.287 -0.3858  0.3993  0.2613
17725TIP3    H174590   6.608   0.363   4.366 -0.7937 -1.2453  1.4480
17725TIP3    H274591   6.533   0.241   4.317  3.6973 -3.3600 -0.4472
17726TIP3   OH274592   5.980   5.876  10.635 -0.0395 -0.2821 -0.5464
17726TIP3    H174593   6.065   5.917  10.645 -0.3309  0.4617 -1.0059
17726TIP3    H274594   5.972   5.861  10.541 -0.9267  0.8112 -0.6652
17727TIP3   OH274595   2.858   2.858  17.003  0.1089 -0.2770  1.2727
17727TIP3    H174596   2.952   2.877  17.003  0.4966 -2.0658  1.2272
17727TIP3    H274597   2.821   2.916  16.936  1.4782 -0.9104 -0.0595
17728TIP3   OH274598   1.509   6.660   5.856 -0.4339 -0.4881  0.2481
17728TIP3    H174599   1.507   6.624   5.767 -2.4361  1.2557 -0.4697
17728TIP3    H274600   1.455   6.600   5.907 -1.4465 -0.0800 -0.3184
17729TIP3   OH274601   3.636   3.097  16.467 -0.5152  0.3248  0.0152
17729TIP3    H174602   3.544   3.123  16.458 -0.7295 -0.3965  0.0683
17729TIP3    H274603   3.685   3.163  16.418 -1.0926  0.5108 -0.3122
17730TIP3   OH274604   5.377   2.721  14.586  0.4178 -0.5789 -0.5821
17730TIP3    H174605   5.387   2.629  14.610  2.5368 -0.5791 -1.4369
17730TIP3    H274606   5.306   2.752  14.642 -0.7951 -2.8992 -0.7757
17731TIP3   OH274607   0.213   5.375  12.686  0.0844  0.4810  0.1143
17731TIP3    H174608   0.143   5.327  12.641 -0.3665  1.2606 -0.0264
17731TIP3    H274609   0.219   5.334  12.772 -0.6483  0.4965  0.1782
17732TIP3   OH274610   4.465   6.733  12.911  0.4464  0.0216  0.7826
17732TIP3    H174611   4.423   6.697  12.833  2.5580  0.2347 -0.4689
17732TIP3    H274612   4.429   6.821  12.919 -0.3081 -0.2523  0.4737
17733TIP3   OH274613   6.461   1.674   4.401 -0.4019  0.2832  0.1975
17733TIP3    H174614   6.550   1.639   4.393  0.1143  1.7199 -0.5083
17733TIP3    H274615   6.420   1.618   4.467  0.4946 -1.4232 -0.6383
17734TIP3   OH274616   0.709   5.028   5.142  0.3373  0.3904 -0.3744
17734TIP3    H174617   0.662   5.077   5.210 -2.1578 -1.4969 -0.6948
17734TIP3    H274618   0.661   5.047   5.062  0.1850 -1.4572 -0.7282
17735TIP3   OH274619   3.317   1.998   6.811 -0.4810  0.2947  0.0929
17735TIP3    H174620   3.403   2.027   6.780 -0.0014  0.5796  1.6151
17735TIP3    H274621   3.336   1.951   6.893 -1.8743  1.4255  1.0922
17736TIP3   OH274622   1.125   4.488   0.324 -0.1955 -0.1038  0.0093
17736TIP3    H174623   1.213   4.489   0.287 -0.4945  0.8228 -0.6723
17736TIP3    H274624   1.105   4.395   0.334  0.4735 -0.3352 -0.7562
17737TIP3   OH274625   1.944   4.765  13.689  0.4343 -0.6318  0.0699
17737TIP3    H174626   1.940   4.860  13.703 -1.5934 -0.6178 -0.5588
17737TIP3    H274627   1.892   4.728  13.761 -1.3910 -1.0899 -1.4534
17738TIP3   OH274628   1.680   2.976  11.600 -0.4749  0.3132 -0.1486
17738TIP3    H174629   1.751   2.933  11.553  0.6897 -0.1744  1.9903
17738TIP3    H274630   1.600   2.942  11.560  0.4691  0.4790 -2.2374
17739TIP3   OH274631   3.347   4.854   2.659  0.3293  0.4105  0.1280
17739TIP3    H174632   3.265   4.830   2.703  0.5534  0.2587  0.4640
17739TIP3    H274633   3.358   4.947   2.677 -0.6268  0.8245 -1.3145
17740TIP3   OH274634   0.416   1.453  11.332 -0.4181  0.0393 -0.7767
17740TIP3    H174635   0.450   1.364  11.326 -0.0949  0.2478 -2.4234
17740TIP3    H274636   0.321   1.443  11.340 -0.2990 -0.4746 -0.0448
17741TIP3   OH274637   4.730   1.054   5.356  0.0444  0.0594  0.3594
17741TIP3    H174638   4.659   1.059   5.420 -0.2142  0.2480  0.0610
17741TIP3    H274639   4.780   1.135   5.370 -0.6119  0.5903 -0.3724
17742TIP3   OH274640   3.598   3.417   1.503  0.3561 -0.3794  0.2707
17742TIP3    H174641   3.627   3.342   1.555 -1.7800 -0.3420  1.5968
17742TIP3    H274642   3.568   3.481   1.568 -1.2687  0.1524 -0.9562
17743TIP3   OH274643   5.492   2.077   0.303 -0.1301 -0.2932 -0.1728
17743TIP3    H174644   5.505   1.998   0.356 -1.6404  0.2963  1.0998
17743TIP3    H274645   5.555   2.140   0.339 -1.2495  0.1515  1.0438
17744TIP3   OH274646   2.346   2.091  16.348 -0.3774 -0.1202  0.1140
17744TIP3    H174647   2.369   1.999  16.340 -0.0125 -0.2678  2.4900
17744TIP3    H274648   2.429   2.138  16.344 -0.5458  0.0984 -0.9115
17745TIP3   OH274649   1.942   0.753  11.792  0.0401 -0.1320 -0.3456
17745TIP3    H174650   1.902   0.838  11.809  1.9398  0.6939  0.1116
17745TIP3    H274651   2.036   0.771  11.790  0.4271 -2.1193 -0.8441
17746TIP3   OH274652   2.290   4.263  10.672 -0.2002  0.0595 -0.0029
17746TIP3    H174653   2.349   4.213  10.615  0.2036 -1.2820  1.5334
17746TIP3    H274654   2.344   4.335  10.705 -0.0262  0.0343 -0.2323
17747TIP3   OH274655   0.679   5.175   1.812  0.4102 -0.3269  0.4147
17747TIP3    H174656   0.668   5.191   1.718  1.4236 -0.9648  0.1877
17747TIP3    H274657   0.609   5.113   1.833 -0.8595  1.0821  0.4338
17748TIP3   OH274658   0.536   3.162   2.607  0.6473 -0.1730  0.4008
17748TIP3    H174659   0.554   3.154   2.701  0.4755  3.7069  0.8325
17748TIP3    H274660   0.572   3.082   2.569  1.1022 -1.6138  3.7175
17749TIP3   OH274661   6.712   3.443   3.448 -0.0626 -0.8522 -0.1542
17749TIP3    H174662   6.663   3.433   3.367 -1.3443 -1.7598  0.7148
17749TIP3    H274663   6.756   3.359   3.460  0.3091 -0.6420 -0.0132
17750TIP3   OH274664   0.765   4.911   0.457 -0.2403  0.2610 -0.2013
17750TIP3    H174665   0.781   4.932   0.365  0.2385 -0.0819 -0.2013
17750TIP3    H274666   0.850   4.880   0.489 -0.0588  1.6466  0.7131
17751TIP3   OH274667   2.771   4.615  14.730  0.0513 -0.2692 -0.3818
17751TIP3    H174668   2.775   4.553  14.658 -0.1771 -0.5667 -0.1367
17751TIP3    H274669   2.688   4.661  14.718 -0.4780 -1.0412  0.2885
17752TIP3   OH274670   5.945   3.325   0.364 -0.1486 -0.1497  0.0621
17752TIP3    H174671   5.878   3.269   0.326 -0.3536  1.7108 -2.4059
17752TIP3    H274672   5.910   3.349   0.450 -1.8083 -0.7214 -0.4342
17753TIP3   OH274673   1.090   4.758   4.905 -0.3450  0.1029  0.1509
17753TIP3    H174674   1.152   4.830   4.899  0.2659 -0.4914 -0.8365
17753TIP3    H274675   1.135   4.690   4.954 -0.6986  0.1607  0.5605
17754TIP3   OH274676   0.424   2.350   4.351  0.4841  0.2040  0.4339
17754TIP3    H174677   0.496   2.413   4.361  0.4474  0.3347 -0.1369
17754TIP3    H274678   0.345   2.403   4.358  0.4096 -0.1551  2.6271
17755TIP3   OH274679   1.320   3.002   1.082 -0.0196 -0.2600 -0.2236
17755TIP3    H174680   1.255   3.067   1.055 -0.6145 -0.1672  1.4219
17755TIP3    H274681   1.401   3.052   1.090  0.2678 -0.3588 -2.1877
17756TIP3   OH274682   0.885   3.651  14.731 -0.0328 -0.1919 -0.0210
17756TIP3    H174683   0.968   3.698  14.729  1.0021 -1.8415  2.0591
17756TIP3    H274684   0.886   3.597  14.652  0.4617  0.4711 -0.4668
17757TIP3   OH274685   2.499   4.930   5.330  0.5914  0.1305 -0.1713
17757TIP3    H174686   2.587   4.918   5.295  0.8476 -0.7164  0.7560
17757TIP3    H274687   2.450   4.971   5.258  1.2255 -1.1984 -1.3779
17758TIP3   OH274688   1.274   6.416  11.973  0.2875 -0.2843 -1.0034
17758TIP3    H174689   1.254   6.323  11.966 -1.3412 -0.0087 -0.2198
17758TIP3    H274690   1.197   6.455  12.015  0.3260  1.6514 -2.5941
17759TIP3   OH274691   3.093   0.528   3.580 -0.2631  0.4396  0.1374
17759TIP3    H174692   3.072   0.462   3.646  0.4769 -0.6903 -0.7476
17759TIP3    H274693   3.188   0.534   3.580 -0.2486  0.3064 -0.9534
17760TIP3   OH274694   2.316   0.484  14.511 -0.1984 -0.0671  0.3327
17760TIP3    H174695   2.405   0.476  14.543 -0.9601 -1.1840  2.2832
17760TIP3    H274696   2.310   0.572  14.475  1.4313  0.2991  0.9387
17761TIP3   OH274697   4.051   4.260   3.250 -0.3182  0.3161 -1.1474
17761TIP3    H174698   4.017   4.281   3.337 -0.0211  0.5733 -1.0924
17761TIP3    H274699   3.980   4.213   3.207 -0.5157  0.3086 -0.8135
17762TIP3   OH274700   3.902   3.142  13.429 -0.6848 -0.0655 -0.0818
17762TIP3    H174701   3.854   3.116  13.508 -0.7553  0.2439 -0.0198
17762TIP3    H274702   3.967   3.205  13.461 -1.6840  1.1943 -0.4738
17763TIP3   OH274703   2.259   2.474  14.684  0.2407 -0.5527  0.0667
17763TIP3    H174704   2.335   2.488  14.627  0.6333  0.8997  0.9347
17763TIP3    H274705   2.200   2.418  14.633  1.4336 -0.8421 -1.0077
17764TIP3   OH274706   2.572   0.288  16.901  0.6467  0.3829 -0.3890
17764TIP3    H174707   2.480   0.294  16.877  0.1096  0.3530  1.5954
17764TIP3    H274708   2.597   0.198  16.881  0.2211  0.3659 -0.8449
17765TIP3   OH274709   0.147   3.103   2.400 -0.0747  0.1401 -0.2708
17765TIP3    H174710   0.086   3.041   2.360 -0.8252  0.2022  0.7572
17765TIP3    H274711   0.231   3.058   2.398 -0.3973 -0.4601 -0.5461
17766TIP3   OH274712   6.500   0.721   4.502  0.3995  0.2343 -0.6671
17766TIP3    H174713   6.412   0.688   4.484  0.9027 -0.5343 -1.7509
17766TIP3    H274714   6.503   0.732   4.597 -0.8140  0.1335 -0.6116
17767TIP3   OH274715   3.235   2.906   4.453 -0.4984  0.3068  0.5687
17767TIP3    H174716   3.322   2.891   4.490 -0.4822 -1.3121 -0.0848
17767TIP3    H274717   3.222   2.833   4.393 -1.3273  1.8433 -1.1727
17768TIP3   OH274718   1.026   4.449   5.446  0.0626 -0.5038 -0.2185
17768TIP3    H174719   0.936   4.433   5.476 -0.6234  0.0004 -1.9105
17768TIP3    H274720   1.048   4.535   5.482  0.8406 -1.7137  2.3255
17769TIP3   OH274721   4.224   2.051   0.236 -0.4497 -0.0122 -0.1615
17769TIP3    H174722   4.256   2.053   0.146  0.7022 -0.5676  0.2224
17769TIP3    H274723   4.269   1.976   0.275 -1.0452  0.1476  0.8376
17770TIP3   OH274724   6.020   1.161  14.284  0.0333  0.6019  0.4876
17770TIP3    H174725   6.109   1.193  14.297 -0.2559  1.8528 -0.4872
17770TIP3    H274726   6.008   1.160  14.189 -1.0776  0.6887  0.6179
17771TIP3   OH274727   4.623   3.239   4.189 -0.5246  0.3679 -0.0743
17771TIP3    H174728   4.671   3.316   4.219 -0.5514  0.3152  0.1072
17771TIP3    H274729   4.531   3.267   4.187 -0.4809  0.4868 -0.4771
17772TIP3   OH274730   3.831   1.474   4.021 -0.7036 -0.0395 -0.4580
17772TIP3    H174731   3.888   1.479   4.098  0.0660  0.5723 -1.0531
17772TIP3    H274732   3.806   1.382   4.016 -0.5787 -0.1256  0.3994
17773TIP3   OH274733   5.103   5.724  13.669 -0.5185 -0.6825 -0.2928
17773TIP3    H174734   5.064   5.642  13.700  1.5035 -1.2177  0.9351
17773TIP3    H274735   5.092   5.785  13.743  3.0290 -1.5446  1.0557
17774TIP3   OH274736   4.616   5.274  12.004  0.4282 -0.1127 -0.4130
17774TIP3    H174737   4.583   5.239  12.086  2.1129 -0.0985  0.2971
17774TIP3    H274738   4.573   5.359  11.995 -0.0041 -0.2577  0.2785
17775TIP3   OH274739   5.896   5.101   6.003  0.1331  0.0472  0.1313
17775TIP3    H174740   5.815   5.149   6.021 -0.2317 -0.0893 -1.0504
17775TIP3    H274741   5.965   5.164   6.020 -0.1468 -0.2255  2.3906
17776TIP3   OH274742   1.833   1.349   5.608 -0.1507  0.2043  0.2577
17776TIP3    H174743   1.796   1.332   5.522  1.0491  0.2755 -0.2898
17776TIP3    H274744   1.917   1.392   5.589  0.2965 -0.1373  1.4449
17777TIP3   OH274745   2.131   6.208  11.497 -0.7562  0.7128 -0.1505
17777TIP3    H174746   2.106   6.253  11.577 -1.0089  1.6025 -0.7262
17777TIP3    H274747   2.103   6.266  11.426  1.0711  0.7668 -0.8530
17778TIP3   OH274748   1.328   3.542  16.967 -0.0321 -0.5445  0.1056
17778TIP3    H174749   1.316   3.521  16.874  0.6067 -1.5767  0.2328
17778TIP3    H274750   1.423   3.549  16.977 -0.1225 -0.0460  0.5960
17779TIP3   OH274751   1.616   6.563   0.050  0.2344  0.2688 -0.0905
17779TIP3    H174752   1.568   6.602  -0.023  1.6484 -2.5469 -2.6469
17779TIP3    H274753   1.678   6.631   0.077 -0.0302  1.2099 -1.7976
17780TIP3   OH274754   4.921   3.228   5.561 -0.3382  0.1758 -0.4112
17780TIP3    H174755   4.881   3.236   5.647  1.9590 -0.3319  0.7316
17780TIP3    H274756   4.957   3.316   5.542  2.0123 -0.5239  0.6244
17781TIP3   OH274757   3.987   1.111  11.581 -0.0295  0.1416 -0.7372
17781TIP3    H174758   3.913   1.125  11.522  1.4586 -0.1479 -2.7094
17781TIP3    H274759   4.062   1.149  11.536  0.8331  1.6203  1.8247
17782TIP3   OH274760   3.273   3.986   6.579 -0.1079 -0.1845  0.3212
17782TIP3    H174761   3.193   3.938   6.602  0.7944 -1.2439  1.3225
17782TIP3    H274762   3.292   3.961   6.489 -0.8610 -0.0030  0.1143
17783TIP3   OH274763   2.138   6.732  15.052  0.8463 -0.1179  0.6957
17783TIP3    H174764   2.170   6.647  15.083 -0.2899 -0.7737  0.0844
17783TIP3    H274765   2.085   6.766  15.124 -0.7828 -1.0829 -0.0393
17784TIP3   OH274766   6.398   2.152   2.963  0.2792  0.2531  0.1960
17784TIP3    H174767   6.308   2.155   2.930 -0.4402 -1.3275  1.9457
17784TIP3    H274768   6.398   2.083   3.029  2.7642  0.3020  0.3184
17785TIP3   OH274769   1.011   2.063  16.375 -0.4239 -0.1389  0.5354
17785TIP3    H174770   1.002   2.041  16.283 -0.9995  0.3734  0.4694
17785TIP3    H274771   0.983   2.154  16.381 -1.7015 -0.5833  1.4449
17786TIP3   OH274772   1.327   5.945   0.846  0.0488 -0.1431  0.4400
17786TIP3    H174773   1.239   5.907   0.851  0.2585 -0.4597  2.0708
17786TIP3    H274774   1.382   5.875   0.812 -0.3809  0.1579 -0.8979
17787TIP3   OH274775   2.864   1.414   1.547 -0.5407  0.3129  0.3015
17787TIP3    H174776   2.900   1.452   1.467  0.7203  0.5774  0.9856
17787TIP3    H274777   2.827   1.330   1.519 -0.6920  0.7006 -0.6738
17788TIP3   OH274778   3.460   5.239   4.359  0.0889  0.5078  0.4614
17788TIP3    H174779   3.516   5.224   4.435 -0.5174  0.0290  0.8236
17788TIP3    H274780   3.516   5.223   4.284 -0.0953 -2.0568  0.8281
17789TIP3   OH274781   4.204   2.752  15.142 -0.8544 -0.5338  0.2873
17789TIP3    H174782   4.237   2.718  15.225 -1.7859  0.3598  1.0415
17789TIP3    H274783   4.275   2.737  15.080 -0.1344 -1.1888  1.2438
17790TIP3   OH274784   1.123   2.854  16.913  0.1601  0.1731  0.1027
17790TIP3    H174785   1.213   2.827  16.925  0.1149 -0.9549 -1.8616
17790TIP3    H274786   1.105   2.911  16.988  1.7529 -1.4018  1.7469
17791TIP3   OH274787   6.155   2.584  12.489  0.0846 -0.1446  0.8900
17791TIP3    H174788   6.232   2.642  12.494 -0.2445  0.3516  0.2527
17791TIP3    H274789   6.191   2.499  12.465  0.1163  0.8511 -2.9185
17792TIP3   OH274790   0.899   4.196   4.486  0.2474  0.1031 -0.0360
17792TIP3    H174791   0.960   4.270   4.478 -0.1352  0.6056  1.5148
17792TIP3    H274792   0.827   4.219   4.426 -0.4587  1.6245  1.3348
17793TIP3   OH274793   2.992   1.845   1.416  0.2253 -0.1343 -0.0034
17793TIP3    H174794   2.962   1.801   1.337  0.6837  1.8823 -1.3514
17793TIP3    H274795   2.964   1.936   1.404 -1.7216 -0.2422  3.2152
17794TIP3   OH274796   4.201   3.089   3.653 -0.2767 -0.0855  0.5490
17794TIP3    H174797   4.234   3.025   3.590 -1.9415  1.1712 -1.6908
17794TIP3    H274798   4.211   3.046   3.738 -0.4385 -2.9324 -0.7883
17795TIP3   OH274799   1.698   6.324   1.316 -0.1182 -0.7044 -0.1565
17795TIP3    H174800   1.702   6.259   1.246 -0.1531 -0.3760 -0.4687
17795TIP3    H274801   1.607   6.319   1.347 -0.1725 -0.6696 -0.3090
17796TIP3   OH274802   3.216   1.337  11.332  0.3215 -0.5694  0.1057
17796TIP3    H174803   3.263   1.332  11.415 -0.0544  0.5285  0.3938
17796TIP3    H274804   3.221   1.249  11.296  4.0871 -0.0860 -0.7078
17797TIP3   OH274805   2.560   3.287   3.816  0.1184  0.4537 -0.3484
17797TIP3    H174806   2.524   3.323   3.735  1.0567  0.7996 -0.6250
17797TIP3    H274807   2.512   3.331   3.886  0.2907  1.2140 -0.7014
17798TIP3   OH274808   2.265   0.207  12.873 -0.0957 -0.6614  0.3845
17798TIP3    H174809   2.202   0.136  12.864 -1.6986  0.5691  1.4704
17798TIP3    H274810   2.328   0.175  12.938 -0.2953 -1.4354  0.1984
17799TIP3   OH274811   5.769   6.460   2.157  0.7240  0.0309 -0.5393
17799TIP3    H174812   5.861   6.435   2.160  0.4768 -0.8482 -0.0204
17799TIP3    H274813   5.742   6.465   2.249  0.2987  0.4226 -0.6841
17800TIP3   OH274814   5.925   3.411  16.801  0.2978  0.1345  0.4422
17800TIP3    H174815   5.830   3.411  16.797  0.3056  0.6183  0.1482
17800TIP3    H274816   5.953   3.359  16.725  0.2779  0.6886  0.0520
17801TIP3   OH274817   4.280   3.183  15.994 -0.3293 -0.3451  0.0191
17801TIP3    H174818   4.358   3.201  15.941  0.9889 -0.3697  1.9025
17801TIP3    H274819   4.257   3.092  15.973  0.5154 -0.5341 -0.0924
17802TIP3   OH274820   5.290   3.587  15.020  0.2528 -0.0651  0.2374
17802TIP3    H174821   5.281   3.679  14.994  0.0688 -0.0400  0.3848
17802TIP3    H274822   5.310   3.590  15.113  1.5906 -0.1354 -0.0450
17803TIP3   OH274823   2.333   2.061   3.501 -0.0451  0.1538 -0.5167
17803TIP3    H174824   2.395   2.110   3.555 -0.8866  2.1719 -1.3022
17803TIP3    H274825   2.278   2.015   3.563  0.1971  0.9336  0.2928
17804TIP3   OH274826   1.835   3.688   4.369 -0.4658 -0.0948  0.1132
17804TIP3    H174827   1.768   3.620   4.377 -0.5223 -0.1090 -0.4398
17804TIP3    H274828   1.789   3.762   4.330  0.2522 -0.7535 -2.1011
17805TIP3   OH274829   2.713   2.575  16.236  0.3147 -0.1038 -0.4815
17805TIP3    H174830   2.617   2.575  16.236  0.2943 -1.4316  1.0250
17805TIP3    H274831   2.736   2.482  16.238  1.6292  0.2551  1.3659
17806TIP3   OH274832   2.151   4.883  10.872  0.4986 -0.4539 -0.0879
17806TIP3    H174833   2.188   4.933  10.945 -0.5251 -0.8699  0.7306
17806TIP3    H274834   2.186   4.795  10.884  1.3116 -0.2286 -0.8121
17807TIP3   OH274835   3.784   0.469   1.641  0.1285 -0.5472  0.0285
17807TIP3    H174836   3.850   0.513   1.695 -0.0802  1.8468 -1.6281
17807TIP3    H274837   3.827   0.454   1.557 -0.2765 -2.3012  0.0993
17808TIP3   OH274838   0.803   2.040  14.143  0.2094  0.0663  0.1383
17808TIP3    H174839   0.874   1.985  14.112  0.4047  0.5699 -0.3154
17808TIP3    H274840   0.839   2.129  14.141 -0.1298  0.2250  0.7700
17809TIP3   OH274841   6.196   3.984   3.709  0.3998  0.2264  0.2044
17809TIP3    H174842   6.180   4.078   3.699 -2.1345 -0.1536  0.3493
17809TIP3    H274843   6.189   3.969   3.804  0.2726 -0.1873  0.1301
17810TIP3   OH274844   0.646   5.478   5.165 -0.4971  0.3223  0.0389
17810TIP3    H174845   0.566   5.481   5.219 -0.2929  1.4537  0.2863
17810TIP3    H274846   0.690   5.560   5.184  0.5979 -0.1820 -0.3211
17811TIP3   OH274847   3.169   6.409   5.611  0.7734  0.5403 -0.7525
17811TIP3    H174848   3.231   6.345   5.578  0.6065 -1.4203  2.4726
17811TIP3    H274849   3.122   6.363   5.681 -0.4047  3.6983  0.6354
17812TIP3   OH274850   4.844   4.271   3.584  0.5482  0.6521  0.1228
17812TIP3    H174851   4.929   4.263   3.541 -0.3441 -1.1796 -1.3786
17812TIP3    H274852   4.781   4.252   3.514 -1.0367  0.5502  1.5697
17813TIP3   OH274853   2.359   5.711  12.402 -0.1592  0.2580  0.0634
17813TIP3    H174854   2.443   5.696  12.445 -0.7407 -2.5378  0.3696
17813TIP3    H274855   2.370   5.674  12.314 -1.5682 -1.7429  0.6912
17814TIP3   OH274856   3.957   1.579  15.858 -0.5510 -0.5601 -0.1652
17814TIP3    H174857   3.872   1.552  15.892 -0.7550 -1.1314 -1.1120
17814TIP3    H274858   3.946   1.577  15.763  0.5336 -0.7055 -0.2912
17815TIP3   OH274859   2.635   3.688  13.760 -0.2277 -0.1861 -0.5343
17815TIP3    H174860   2.566   3.754  13.756  0.1749  0.4577  1.9119
17815TIP3    H274861   2.621   3.633  13.683 -4.0183 -0.5772  0.3185
17816TIP3   OH274862   4.784   5.233   5.935  0.6451  0.5964  0.1578
17816TIP3    H174863   4.741   5.158   5.977  2.3048 -0.5406 -0.1463
17816TIP3    H274864   4.770   5.305   5.996 -1.2705  0.1488  0.3040
17817TIP3   OH274865   2.458   2.207   4.217  0.3755  0.2125 -0.2080
17817TIP3    H174866   2.370   2.207   4.180  0.3553 -1.4608 -0.1743
17817TIP3    H274867   2.510   2.261   4.157 -0.7706  1.6592  0.0632
17818TIP3   OH274868   5.502   2.550  13.604  0.2375  0.4393  0.9644
17818TIP3    H174869   5.463   2.492  13.539 -1.0811 -1.0834  3.0448
17818TIP3    H274870   5.450   2.630  13.601  0.4417  0.5417 -0.1021
17819TIP3   OH274871   0.441   3.307  15.751  1.0433  0.4424  0.4040
17819TIP3    H174872   0.472   3.239  15.690 -0.3625  0.0225  0.1384
17819TIP3    H274873   0.456   3.389  15.704 -0.8756  0.0734 -0.9220
17820TIP3   OH274874   1.435   5.970  14.939 -0.1357  0.0605  0.4715
17820TIP3    H174875   1.420   5.893  14.993 -0.0658 -0.3853 -0.1307
17820TIP3    H274876   1.350   5.989  14.900  0.2947 -0.9630 -0.9995
17821TIP3   OH274877   0.205   1.400   1.454 -0.5505  0.1431 -0.3118
17821TIP3    H174878   0.196   1.401   1.549  0.3253  0.9052 -0.2245
17821TIP3    H274879   0.298   1.387   1.439 -0.5488  0.9481 -1.0503
17822TIP3   OH274880   2.612   1.379   5.339 -0.0370  0.5875  0.1396
17822TIP3    H174881   2.674   1.452   5.340  1.6742 -0.8078 -0.0424
17822TIP3    H274882   2.622   1.339   5.426  2.0393 -1.8012 -1.1149
17823TIP3   OH274883   1.459   6.675  12.231  0.3099  0.1787  0.6684
17823TIP3    H174884   1.417   6.714  12.154 -0.5351 -1.2057  0.4215
17823TIP3    H274885   1.419   6.722  12.305 -0.4415  0.0489  0.3552
17824TIP3   OH274886   5.592   3.491   0.941 -0.2086 -0.4105 -0.0506
17824TIP3    H174887   5.666   3.506   0.882  1.0631 -0.7057  1.4350
17824TIP3    H274888   5.555   3.407   0.911  0.8424 -0.8971 -0.0033
17825TIP3   OH274889   3.997   5.157   5.666 -0.0109  0.5057  0.2691
17825TIP3    H174890   4.067   5.156   5.731  0.6995  0.6959 -0.4913
17825TIP3    H274891   3.920   5.125   5.713  0.5280  0.5252  1.1698
17826TIP3   OH274892   5.093   4.647  16.907 -0.3442 -0.3020 -0.0710
17826TIP3    H174893   5.150   4.665  16.981  0.1883  0.2653 -0.6103
17826TIP3    H274894   5.010   4.618  16.946 -0.0148 -0.1651  0.7310
17827TIP3   OH274895   2.699   3.041   4.343 -0.3982  0.1008 -0.1766
17827TIP3    H174896   2.660   2.965   4.387 -0.3911 -0.4697 -1.1533
17827TIP3    H274897   2.724   3.099   4.415  0.7926 -1.3868  0.6665
17828TIP3   OH274898   3.743   6.484  11.836 -0.1490  0.0973  0.2384
17828TIP3    H174899   3.697   6.532  11.905 -2.2582  1.9367 -2.3355
17828TIP3    H274900   3.676   6.430  11.795  1.2736 -1.6783  0.1694
17829TIP3   OH274901   2.297   2.897  14.224  0.1202 -0.3771 -0.0746
17829TIP3    H174902   2.306   2.879  14.130  2.0808 -0.7423  0.1746
17829TIP3    H274903   2.205   2.923  14.234 -0.2729 -0.9353 -1.9897
17830TIP3   OH274904   4.119   2.215  15.667  0.1012  0.0096 -0.2253
17830TIP3    H174905   4.037   2.212  15.717 -0.4317 -0.8569 -1.1389
17830TIP3    H274906   4.182   2.254  15.728 -0.7528 -0.2022  0.8232
17831TIP3   OH274907   6.136   0.586  14.917 -0.5094 -0.3063  0.8844
17831TIP3    H174908   6.084   0.507  14.906  0.4612 -0.6615 -1.4501
17831TIP3    H274909   6.107   0.644  14.846  0.0554  0.7354  1.4800
17832TIP3   OH274910   6.551   0.367   4.931  0.2795 -0.0424 -0.2464
17832TIP3    H174911   6.608   0.309   4.881 -0.5669 -1.0518 -0.0633
17832TIP3    H274912   6.601   0.390   5.009  0.7947 -0.1671 -0.5440
17833TIP3   OH274913   5.148   6.102  11.015  0.9435 -1.0139  0.6256
17833TIP3    H174914   5.220   6.093  10.953 -0.3549 -0.0622 -1.0590
17833TIP3    H274915   5.158   6.028  11.075  3.1217 -1.0732  0.2244
17834TIP3   OH274916   5.698   5.220  15.882  0.1246 -0.0134  0.1640
17834TIP3    H174917   5.680   5.245  15.791 -0.3716 -1.2525 -0.0948
17834TIP3    H274918   5.792   5.234  15.892  0.3451 -0.6851 -0.8265
17835TIP3   OH274919   0.557   5.874   4.930 -0.2508  0.1216 -0.0934
17835TIP3    H174920   0.522   5.795   4.889 -0.2113  0.5760 -1.0133
17835TIP3    H274921   0.565   5.937   4.858  0.7743  0.5955  0.4210
17836TIP3   OH274922   1.372   4.782   2.307  0.3972 -0.5100 -0.0650
17836TIP3    H174923   1.277   4.772   2.307  0.3621 -0.1842 -1.0330
17836TIP3    H274924   1.406   4.696   2.285  0.3483 -0.7305  0.6876
17837TIP3   OH274925   6.475   6.512  15.201  0.2937  0.1069 -0.1642
17837TIP3    H174926   6.463   6.442  15.265 -1.2914 -0.6157 -1.2391
17837TIP3    H274927   6.401   6.504  15.141  1.0065  1.6398 -1.3024
17838TIP3   OH274928   5.305   0.761  16.278  0.0878 -0.5442 -0.1886
17838TIP3    H174929   5.260   0.821  16.219 -0.5854 -1.5446 -0.7174
17838TIP3    H274930   5.271   0.675  16.255  1.5980 -1.2250  0.0383
17839TIP3   OH274931   5.079   3.403   5.082  0.4578  0.1673  0.1950
17839TIP3    H174932   5.103   3.311   5.068 -1.1641 -0.1815 -0.3923
17839TIP3    H274933   5.146   3.452   5.035  1.5828 -0.7057  0.8721
17840TIP3   OH274934   6.240   6.599   0.312  0.3066  0.1846 -0.1186
17840TIP3    H174935   6.257   6.689   0.284 -0.1367 -0.0185 -1.0627
17840TIP3    H274936   6.152   6.601   0.350 -0.0874 -0.0372 -1.0091
17841TIP3   OH274937   4.328   3.543  12.938 -0.7511  0.0591 -0.1684
17841TIP3    H174938   4.265   3.477  12.968 -1.5467  1.1087  0.5172
17841TIP3    H274939   4.287   3.582  12.861 -0.6049  0.2353 -0.1572
17842TIP3   OH274940   6.641   0.353  11.837 -0.0320  0.1965  0.3672
17842TIP3    H174941   6.714   0.356  11.898 -0.9757 -0.5891  1.5531
17842TIP3    H274942   6.631   0.443  11.807  1.5994  0.2591 -0.0317
17843TIP3   OH274943   1.591   5.202  15.119 -0.0908  0.9318  0.6739
17843TIP3    H174944   1.567   5.117  15.082 -0.0504  0.4571  1.7166
17843TIP3    H274945   1.533   5.211  15.195  1.0546  1.0878  1.5324
17844TIP3   OH274946   5.828   2.732   4.335 -0.0369 -0.2775  0.2644
17844TIP3    H174947   5.749   2.782   4.357 -0.1378 -0.6846  0.8414
17844TIP3    H274948   5.801   2.675   4.263 -0.0053  0.2782 -0.1875
17845TIP3   OH274949   6.359   1.279  11.180  0.8076  0.1801  0.2111
17845TIP3    H174950   6.454   1.286  11.178  0.7175  1.5817  0.4484
17845TIP3    H274951   6.328   1.364  11.149 -0.3729  0.3159  1.7393
17846TIP3   OH274952   2.301   4.377   2.581  0.6202 -0.3483  0.1926
17846TIP3    H174953   2.240   4.438   2.620 -1.2545 -0.8803 -1.7859
17846TIP3    H274954   2.366   4.432   2.538 -2.2752  0.3938 -3.4778
17847TIP3   OH274955   2.393   6.751  17.236  0.0766 -0.6943 -0.0275
17847TIP3    H174956   2.452   6.707  17.296  3.0703  0.7958 -1.7676
17847TIP3    H274957   2.400   6.701  17.154 -1.1184 -0.5324 -0.2414
17848TIP3   OH274958   1.282   1.870   2.728 -0.2147  0.0623  0.5229
17848TIP3    H174959   1.288   1.883   2.633  1.4689 -2.0494  0.2969
17848TIP3    H274960   1.196   1.904   2.752 -0.0986  1.9188 -1.5345
17849TIP3   OH274961   3.523   3.816  15.859  0.5325 -0.0837 -0.0578
17849TIP3    H174962   3.618   3.822  15.863  0.5558 -0.2898 -0.3112
17849TIP3    H274963   3.493   3.907  15.866  0.7925  0.1063 -1.2616
17850TIP3   OH274964   3.034   6.407  11.787  0.3244  0.6780  0.0999
17850TIP3    H174965   3.071   6.348  11.722 -0.8497  1.3467 -1.2133
17850TIP3    H274966   2.939   6.400  11.774  0.0928  1.1845  1.4234
17851TIP3   OH274967   5.977   4.642  15.650 -0.0828  0.3106  0.1712
17851TIP3    H174968   5.974   4.673  15.741  0.0613  0.7556  0.0244
17851TIP3    H274969   5.955   4.548  15.656  1.9068 -0.1336  0.8786
17852TIP3   OH274970   0.701   0.841  17.178  0.2846  0.4360 -0.2437
17852TIP3    H174971   0.705   0.749  17.153 -0.4609  0.2745  0.2489
17852TIP3    H274972   0.768   0.883  17.124  1.6496 -0.6316  0.5982
17853TIP3   OH274973   6.115   5.913   3.434  0.1343 -0.0564 -0.0081
17853TIP3    H174974   6.075   5.913   3.347  1.9455  1.4316 -0.8815
17853TIP3    H274975   6.133   5.820   3.452 -1.9731 -0.5531 -0.3685
17854TIP3   OH274976   6.476   2.494   2.775 -0.1715 -0.0230  0.2119
17854TIP3    H174977   6.544   2.560   2.774  2.2735 -2.4532 -0.0728
17854TIP3    H274978   6.507   2.428   2.837 -1.7883 -1.6632 -0.6605
17855TIP3   OH274979   2.060   4.678   3.092  0.2337  0.2906  0.5169
17855TIP3    H174980   2.142   4.711   3.055  0.7606 -1.2041  0.3382
17855TIP3    H274981   2.000   4.753   3.088  0.8812  0.7157 -1.5204
17856TIP3   OH274982   2.239   2.827  13.955  0.0419  0.4795 -0.6514
17856TIP3    H174983   2.264   2.901  13.899 -0.4651  0.7978 -0.4647
17856TIP3    H274984   2.160   2.792  13.914 -0.7776  1.1962  0.2853
17857TIP3   OH274985   1.045   3.773  16.010  0.6695  0.1020  0.1692
17857TIP3    H174986   1.112   3.813  15.956 -1.7609  0.8679 -2.4247
17857TIP3    H274987   1.002   3.846  16.054 -0.4868 -0.0450 -0.6680
17858TIP3   OH274988   6.670   3.847   4.135 -0.4328  0.2450 -0.2988
17858TIP3    H174989   6.637   3.837   4.046 -0.2773  1.3239 -0.4883
17858TIP3    H274990   6.746   3.906   4.125 -1.8053  2.2522  0.8318
17859TIP3   OH274991   1.925   6.529   2.859 -0.1691  0.6341  0.6020
17859TIP3    H174992   1.967   6.515   2.773 -0.8177 -0.8348  0.5098
17859TIP3    H274993   1.997   6.557   2.916  0.4390  0.7507 -0.2131
17860TIP3   OH274994   5.795   5.974   0.276 -0.0393  0.0407  0.0047
17860TIP3    H174995   5.796   5.880   0.292 -0.4925 -0.2462 -1.5454
17860TIP3    H274996   5.867   5.988   0.214 -1.4841  0.3473 -1.6362
17861TIP3   OH274997   1.774   5.712  15.123  0.2780  0.8399  0.6852
17861TIP3    H174998   1.728   5.628  15.128 -0.4938  1.3119  1.6128
17861TIP3    H274999   1.709   5.773  15.087  1.4500  0.6118 -1.9165
17862TIP3   OH275000   1.369   3.675  11.714 -0.6731 -0.5454 -0.0390
17862TIP3    H175001   1.323   3.757  11.733  1.3514  0.2672  1.5320
17862TIP3    H275002   1.329   3.611  11.772 -0.8449 -0.1958  0.2304
17863TIP3   OH275003   6.285   5.869   2.405  0.0227  0.0136  1.0245
17863TIP3    H175004   6.316   5.933   2.341  0.3107 -1.1546 -0.0198
17863TIP3    H275005   6.196   5.847   2.376  0.2829 -0.7779  0.8245
17864TIP3   OH275006   5.743   6.345   5.038  0.4494 -0.1980 -0.3082
17864TIP3    H175007   5.673   6.280   5.037 -0.8535  1.0998  1.7752
17864TIP3    H275008   5.804   6.313   5.105 -0.7686  1.2305  1.5489
17865TIP3   OH275009   1.137   5.451  12.822  0.7811 -0.2055 -0.0109
17865TIP3    H175010   1.186   5.436  12.741  0.0499 -1.8952 -0.1597
17865TIP3    H275011   1.199   5.431  12.892  1.0719  0.1324 -0.1758
17866TIP3   OH275012   4.191   0.287  13.747  0.6017  0.1314 -0.4243
17866TIP3    H175013   4.280   0.272  13.781 -0.0037 -0.4309  0.9623
17866TIP3    H275014   4.170   0.375  13.776  0.8941  0.4441 -1.1690
17867TIP3   OH275015   6.693   0.853   0.053 -0.2073  0.0105  0.4477
17867TIP3    H175016   6.772   0.804   0.032 -0.6630 -1.0035  1.0671
17867TIP3    H275017   6.624   0.809   0.003 -0.5465  0.2706  0.6859
17868TIP3   OH275018   0.599   1.031  11.998  0.0579  0.5891  0.1564
17868TIP3    H175019   0.519   1.027  12.051  0.1876 -0.7255  0.2771
17868TIP3    H275020   0.642   1.112  12.025  0.9023 -0.7958  3.2103
17869TIP3   OH275021   3.213   2.361   0.808 -0.2362  0.7073 -0.1352
17869TIP3    H175022   3.122   2.341   0.786  0.2119 -1.6571  0.1055
17869TIP3    H275023   3.207   2.425   0.879 -1.6887  1.3948 -0.8569
17870TIP3   OH275024   5.845   3.805   4.135  0.2538 -0.3216  1.1010
17870TIP3    H175025   5.754   3.820   4.110  0.3497 -0.4635  0.6538
17870TIP3    H275026   5.875   3.737   4.075  1.1324  0.8940  0.1154
17871TIP3   OH275027   5.925   4.019  14.083  0.0351  0.3270 -0.2810
17871TIP3    H175028   5.853   4.081  14.091 -1.2208 -1.1990  0.3961
17871TIP3    H275029   5.927   3.995  13.990 -0.8789 -0.2759 -0.1446
17872TIP3   OH275030   6.375   6.494  11.168  0.4438 -0.1565  0.0140
17872TIP3    H175031   6.372   6.399  11.178 -1.3235 -0.1435 -0.2143
17872TIP3    H275032   6.357   6.508  11.075  0.0547  0.4306  0.1775
17873TIP3   OH275033   2.933   1.153  11.536 -0.5328  0.5850 -0.4005
17873TIP3    H175034   2.854   1.151  11.590 -0.3575  0.5512 -0.1430
17873TIP3    H275035   2.958   1.245  11.532 -0.1349  0.5033  0.1773
17874TIP3   OH275036   5.974   1.087   3.432 -0.1824  0.1813  0.5879
17874TIP3    H175037   6.063   1.122   3.428 -0.4253  0.6955 -0.3379
17874TIP3    H275038   5.972   1.018   3.366 -0.3107 -0.2201  1.0043
17875TIP3   OH275039   4.429   0.398   3.237  0.2640  0.2661 -0.1824
17875TIP3    H175040   4.362   0.390   3.169 -1.6204  0.7675  1.5378
17875TIP3    H275041   4.500   0.340   3.208 -1.5335 -1.4263 -1.3479
17876TIP3   OH275042   0.188   5.183   2.646 -0.4274 -0.1312  0.4134
17876TIP3    H175043   0.175   5.118   2.715 -0.8909 -2.6004 -1.9111
17876TIP3    H275044   0.100   5.202   2.614 -0.4062  2.5133  1.7576
17877TIP3   OH275045   0.354   2.828  16.144  0.8821 -0.3626  0.1093
17877TIP3    H175046   0.285   2.770  16.113 -0.5375  0.9164  0.8069
17877TIP3    H275047   0.425   2.770  16.170 -0.4157 -1.7636  0.5713
17878TIP3   OH275048   5.259   3.203  12.122 -0.4162  0.0770  0.0282
17878TIP3    H175049   5.163   3.197  12.128 -0.4049 -0.5343 -0.3278
17878TIP3    H275050   5.279   3.293  12.147 -1.1357  0.3770 -0.4508
17879TIP3   OH275051   0.933   3.239   5.277 -0.2344  0.5501  1.0873
17879TIP3    H175052   0.903   3.231   5.368  0.1675  0.0789  1.1783
17879TIP3    H275053   0.858   3.214   5.225  0.3038 -1.6932  1.3292
17880TIP3   OH275054   0.211   3.790  10.832  0.3688  0.0059 -0.0210
17880TIP3    H175055   0.277   3.736  10.789 -0.3526 -0.3657 -0.6785
17880TIP3    H275056   0.191   3.860  10.769  0.6495  0.5253  0.4630
17881TIP3   OH275057   0.725   5.695  11.975 -0.0788 -0.0991 -0.5457
17881TIP3    H175058   0.633   5.675  11.957 -0.3036  0.5788 -0.2008
17881TIP3    H275059   0.773   5.617  11.948 -0.7376 -0.3819 -0.9126
17882TIP3   OH275060   3.656   4.935  12.967  0.1741  0.0395 -0.1166
17882TIP3    H175061   3.742   4.962  12.936 -0.9743  2.6223 -1.1285
17882TIP3    H275062   3.633   4.860  12.912  1.9411 -0.9683  0.4667
17883TIP3   OH275063   0.300   2.314   3.365 -0.1846  0.4433 -0.1402
17883TIP3    H175064   0.247   2.239   3.338  0.4296  0.0779 -0.3506
17883TIP3    H275065   0.330   2.353   3.283 -1.3459  1.5423 -0.0559
17884TIP3   OH275066   4.098   2.642   4.997  0.1576  0.1332  0.0969
17884TIP3    H175067   4.063   2.578   5.060 -1.0966  2.5999  2.0266
17884TIP3    H275068   4.124   2.716   5.051 -0.0253  1.9428 -2.2238
17885TIP3   OH275069   0.270   4.282  11.739 -0.2828  0.0988 -0.0718
17885TIP3    H175070   0.314   4.260  11.821 -0.6617  0.8565  0.3455
17885TIP3    H275071   0.311   4.364  11.711 -1.2447  0.6804  0.1940
17886TIP3   OH275072   3.210   2.098  12.551  0.3063  0.3504  0.1728
17886TIP3    H175073   3.179   2.187  12.568  0.6293  0.3548  0.7154
17886TIP3    H275074   3.227   2.097  12.456  0.8828  1.0460  0.2647
17887TIP3   OH275075   5.761   2.937   5.831  1.0110 -0.6008  0.0345
17887TIP3    H175076   5.724   3.019   5.800  1.3427 -0.3943  0.1790
17887TIP3    H275077   5.726   2.870   5.772 -0.7975 -0.6052  1.0898
17888TIP3   OH275078   2.958   0.580  17.130 -0.1450 -0.1516  0.4027
17888TIP3    H175079   2.883   0.624  17.089 -0.4602 -2.5295 -1.7364
17888TIP3    H275080   3.031   0.640  17.119 -0.6088 -0.0115 -2.2750
17889TIP3   OH275081   4.663   3.360   4.962  0.1275 -0.2000 -0.4256
17889TIP3    H175082   4.727   3.417   5.005  0.1307 -0.2303 -0.3902
17889TIP3    H275083   4.579   3.383   5.001  0.1154 -0.1530 -0.4789
17890TIP3   OH275084   5.572   2.282   1.065 -0.1444 -0.6292 -0.1185
17890TIP3    H175085   5.595   2.329   1.146 -1.1897 -0.7371  0.2501
17890TIP3    H275086   5.655   2.244   1.035  0.3027 -0.3663  0.7620
17891TIP3   OH275087   6.148   0.199  11.362 -0.7597 -0.0639  0.4340
17891TIP3    H175088   6.119   0.116  11.399  0.4491 -0.2485  0.9850
17891TIP3    H275089   6.207   0.174  11.291  1.6455  0.3183  2.2493
17892TIP3   OH275090   0.893   1.475   3.974  0.2117  0.4306 -0.2996
17892TIP3    H175091   0.839   1.427   3.910 -0.1856 -0.0176  0.3582
17892TIP3    H275092   0.866   1.566   3.965 -0.1972  0.2979 -0.4343
17893TIP3   OH275093   5.372   6.283   4.516  0.3251 -0.7098 -0.3844
17893TIP3    H175094   5.453   6.331   4.531 -0.6983  1.2693 -1.0948
17893TIP3    H275095   5.376   6.257   4.424 -0.2886  0.2477 -0.6858
17894TIP3   OH275096   0.623   3.413   2.533 -0.6181  0.1578 -0.2196
17894TIP3    H175097   0.593   3.327   2.564 -0.1046  0.0624  0.0244
17894TIP3    H275098   0.590   3.475   2.598 -0.4460  0.0753 -0.0534
17895TIP3   OH275099   4.536   5.135   5.138 -0.3639  0.1281  0.1697
17895TIP3    H175100   4.489   5.149   5.056 -1.9808 -0.0755  1.0395
17895TIP3    H275101   4.507   5.206   5.195  0.7775  0.2919  0.5524
17896TIP3   OH275102   2.290   1.050   2.230  0.1441  0.7429 -0.5644
17896TIP3    H175103   2.352   1.092   2.290 -1.2623  0.8232  0.8908
17896TIP3    H275104   2.252   1.123   2.181 -0.0845  0.8853 -0.1840
17897TIP3   OH275105   5.545   0.226  15.040 -0.1424  0.0852 -0.2520
17897TIP3    H175106   5.472   0.204  15.097  0.7281 -1.7481  0.1604
17897TIP3    H275107   5.539   0.165  14.967  1.8020 -1.0483  0.4970
17898TIP3   OH275108   3.036   0.585  13.202 -0.4493 -0.4227 -0.4169
17898TIP3    H175109   3.067   0.495  13.218  0.2947 -0.1088 -0.0681
17898TIP3    H275110   3.074   0.609  13.118  0.5607  0.0906  0.1774
17899TIP3   OH275111   6.568   2.768   2.683  0.7832  0.1435 -0.7255
17899TIP3    H175112   6.630   2.741   2.616  0.2366  0.0665 -1.1971
17899TIP3    H275113   6.525   2.845   2.646  0.1533 -0.1765 -0.6570
17900TIP3   OH275114   6.784   4.822  15.807 -0.2818  0.2558  0.5500
17900TIP3    H175115   6.808   4.855  15.721  1.6591 -0.4006  0.8245
17900TIP3    H275116   6.689   4.807  15.801 -0.2744  0.7826 -1.2601
17901TIP3   OH275117   6.532   3.872  11.393 -0.0116 -0.0214 -0.2548
17901TIP3    H175118   6.493   3.916  11.318 -1.3199 -0.4347  0.1795
17901TIP3    H275119   6.523   3.934  11.465  1.5922  0.5328 -0.5086
17902TIP3   OH275120   2.745   6.160   5.750 -0.3676  0.0044  0.3141
17902TIP3    H175121   2.672   6.108   5.715 -1.1095 -1.0899  3.3279
17902TIP3    H275122   2.706   6.244   5.773 -0.6065 -0.4067  1.4582
17903TIP3   OH275123   4.768   3.870  11.680  0.1632 -0.1291  0.8277
17903TIP3    H175124   4.833   3.839  11.617 -0.6944 -0.8383  0.2719
17903TIP3    H275125   4.803   3.953  11.712  0.0768  0.8292 -1.4351
17904TIP3   OH275126   2.219   1.293  10.646  0.6126  0.3787  0.2512
17904TIP3    H175127   2.199   1.202  10.624 -0.8125  0.2329  2.0591
17904TIP3    H275128   2.288   1.318  10.584 -0.5290 -1.2264 -1.7410
17905TIP3   OH275129   4.098   3.625   4.083  0.2906  0.6285 -0.2080
17905TIP3    H175130   4.080   3.691   4.016  1.9086  1.7899  0.4638
17905TIP3    H275131   4.045   3.550   4.057  1.5728  0.7228 -3.3301
17906TIP3   OH275132   6.774   2.954   0.261 -0.0263 -0.5461  0.7087
17906TIP3    H175133   6.713   2.924   0.328  1.5316 -0.0132  2.4175
17906TIP3    H275134   6.852   2.981   0.310 -0.1316  3.2333 -1.0108
17907TIP3   OH275135   2.756   4.406   3.190  0.0689 -0.0298  0.3876
17907TIP3    H175136   2.680   4.359   3.156  0.8628 -2.0633  1.3677
17907TIP3    H275137   2.727   4.440   3.275 -0.0480  0.0287  0.3247
17908TIP3   OH275138   5.367   1.676   2.353  0.6585  0.1700  0.0371
17908TIP3    H175139   5.307   1.739   2.392 -2.3734 -1.4257 -1.7829
17908TIP3    H275140   5.369   1.603   2.415  1.4289  0.5943  0.5144
17909TIP3   OH275141   4.272   5.692   0.565 -0.1515 -0.0647  0.0859
17909TIP3    H175142   4.293   5.598   0.559  0.1541 -0.0402  0.7016
17909TIP3    H275143   4.267   5.721   0.474 -0.5658 -0.7496 -0.1196
17910TIP3   OH275144   0.997   2.188  15.327 -0.2182 -0.3938  0.1684
17910TIP3    H175145   0.902   2.194  15.338 -0.2372  2.2573 -0.9528
17910TIP3    H275146   1.026   2.279  15.323  1.9938 -1.1395 -2.4275
17911TIP3   OH275147   3.875   5.138  15.929  0.5473 -0.1102 -0.0260
17911TIP3    H175148   3.900   5.206  15.865  0.5121 -0.0814 -0.0086
17911TIP3    H275149   3.805   5.179  15.980  1.2339  0.2197  0.6578
17912TIP3   OH275150   6.102   4.526  15.020 -0.1337  1.0294  0.1394
17912TIP3    H175151   6.043   4.527  14.944  1.3020  0.9672 -1.0183
17912TIP3    H275152   6.185   4.561  14.985  0.6453  0.6677  1.6045
17913TIP3   OH275153   1.149   0.798  14.037 -0.5226 -0.2299 -0.3702
17913TIP3    H175154   1.150   0.729  13.970  2.1177  1.3732 -2.0678
17913TIP3    H275155   1.217   0.771  14.099  0.8438  1.0070 -1.2837
17914TIP3   OH275156   3.918   5.504   4.435 -0.3185 -0.3535 -0.1580
17914TIP3    H175157   3.885   5.415   4.445  0.0731 -0.3672  1.1775
17914TIP3    H275158   4.013   5.495   4.444 -0.3072  0.2404  0.3547
17915TIP3   OH275159   2.633   3.792   2.846  0.0738  0.4228 -0.1851
17915TIP3    H175160   2.651   3.752   2.761 -1.0634  0.6312 -0.5442
17915TIP3    H275161   2.584   3.725   2.894  1.3398  0.0369  0.5802
17916TIP3   OH275162   3.510   6.075   6.257  0.0647  0.3893 -0.3697
17916TIP3    H175163   3.582   6.130   6.290 -0.2218  1.1225 -0.9443
17916TIP3    H275164   3.439   6.089   6.319  0.3072 -0.0850  0.0198
17917TIP3   OH275165   1.949   3.052  13.120 -0.3449  0.1960 -0.3722
17917TIP3    H175166   1.933   2.987  13.188  0.0792  1.0982  0.5960
17917TIP3    H275167   1.875   3.112  13.124 -0.4535  0.1021 -0.8848
17918TIP3   OH275168   2.592   0.919  12.305 -0.3571  0.5599 -0.3557
17918TIP3    H175169   2.538   0.984  12.349  0.3560  0.5288  0.5919
17918TIP3    H275170   2.553   0.835  12.329  0.5239  0.5001  0.9291
17919TIP3   OH275171   3.672   3.731   5.222  0.7298 -0.1589  1.0877
17919TIP3    H175172   3.710   3.731   5.310  1.3477  2.5644  0.8739
17919TIP3    H275173   3.738   3.773   5.167 -0.7663  0.6552 -0.1463
17920TIP3   OH275174   4.426   6.717  11.506  0.0160 -0.0569 -0.3333
17920TIP3    H175175   4.492   6.665  11.460  0.5084  0.6360 -0.4173
17920TIP3    H275176   4.427   6.682  11.595  0.2006 -0.3291 -0.4404
17921TIP3   OH275177   4.031   1.301   4.174  0.0137 -0.6360  0.3884
17921TIP3    H175178   4.106   1.349   4.210 -0.2202 -1.0692  1.4542
17921TIP3    H275179   3.966   1.301   4.244 -1.6756  1.2093 -1.1131
17922TIP3   OH275180   3.627   2.308  16.855  0.7812  0.0972  0.5887
17922TIP3    H175181   3.694   2.251  16.892  0.8189  0.0873  0.5058
17922TIP3    H275182   3.671   2.392  16.844  0.2425  0.6336  2.3286
17923TIP3   OH275183   3.913   5.498   0.663  0.1695 -0.3380  0.5344
17923TIP3    H175184   3.836   5.466   0.617 -0.2790  0.4205  0.7553
17923TIP3    H275185   3.974   5.523   0.594  0.0590 -0.5476  0.3606
17924TIP3   OH275186   3.197   0.954  13.647 -0.2566 -0.4957 -0.1941
17924TIP3    H175187   3.114   0.930  13.608 -0.6568 -1.0951  0.9932
17924TIP3    H275188   3.211   0.888  13.716  2.0203 -1.4364 -1.4881
17925TIP3   OH275189   3.640   6.604  16.805  0.0023 -0.4135 -0.3014
17925TIP3    H175190   3.613   6.661  16.733 -0.1448  0.3327  0.3282
17925TIP3    H275191   3.646   6.663  16.881 -2.4357 -1.6089  0.9062
17926TIP3   OH275192   3.473   6.191  14.988 -0.3633 -0.1621 -0.1414
17926TIP3    H175193   3.385   6.157  14.972 -0.2460 -0.2125 -0.6755
17926TIP3    H275194   3.495   6.156  15.075 -0.7953 -0.3009 -0.0817
17927TIP3   OH275195   4.499   5.296   2.017 -0.3391 -0.3610  0.1866
17927TIP3    H175196   4.576   5.268   1.967 -0.3468 -1.3016  0.6885
17927TIP3    H275197   4.450   5.352   1.956  1.5190  1.5328  0.3793
17928TIP3   OH275198   3.470   5.674   5.779 -0.1202  0.4188 -0.0598
17928TIP3    H175199   3.469   5.756   5.828  0.7441  2.1772 -2.8582
17928TIP3    H275200   3.381   5.640   5.786 -0.4516  1.4860  1.2286
17929TIP3   OH275201   1.240   1.787  17.213  0.3672  0.3766  0.6590
17929TIP3    H175202   1.158   1.744  17.237  0.2015 -0.8824 -2.0138
17929TIP3    H275203   1.307   1.738  17.259 -0.0589 -1.0103 -0.1803
17930TIP3   OH275204   6.207   0.229   0.982 -0.2043 -0.3501  0.0414
17930TIP3    H175205   6.134   0.196   0.930 -1.5187 -0.0247  1.6601
17930TIP3    H275206   6.247   0.296   0.926 -2.7250  1.2993  0.1087
17931TIP3   OH275207   4.166   2.926  14.282 -0.1155 -0.6836 -0.1461
17931TIP3    H175208   4.091   2.878  14.319 -1.4422  0.4032 -1.3970
17931TIP3    H275209   4.168   3.008  14.331 -0.8859  0.0699 -1.3477
17932TIP3   OH275210   4.391   6.782  12.192 -0.1719 -0.2822  0.2298
17932TIP3    H175211   4.435   6.866  12.201  0.7421 -0.4751 -1.9812
17932TIP3    H275212   4.442   6.722  12.247  0.5556  0.1246  0.0111
17933TIP3   OH275213   1.252   4.191  15.132  0.1157 -0.2664 -0.2665
17933TIP3    H175214   1.272   4.101  15.157 -0.4612 -0.0976  0.8528
17933TIP3    H275215   1.156   4.193  15.125 -0.1166  0.9254  2.4675
17934TIP3   OH275216   2.180   1.142   3.123 -0.0428  0.0182 -0.0061
17934TIP3    H175217   2.162   1.226   3.166  0.8136 -1.0048  2.4507
17934TIP3    H275218   2.254   1.161   3.065  0.5573  0.8679  0.9876
17935TIP3   OH275219   1.939   2.553  12.153  0.3775  0.4780  0.0492
17935TIP3    H175220   1.874   2.552  12.082 -0.7368  0.7617  1.0451
17935TIP3    H275221   1.977   2.465  12.152  0.5906  0.5813 -1.1038
17936TIP3   OH275222   5.648   3.909  12.589  0.7425 -0.5644  0.1070
17936TIP3    H175223   5.667   3.924  12.497  2.0267  1.5923  0.6829
17936TIP3    H275224   5.632   3.815  12.595  0.5911 -0.7211 -2.3119
17937TIP3   OH275225   6.281   0.988  15.013 -0.1449  0.3176  0.4578
17937TIP3    H175226   6.292   1.083  15.009  2.9478  0.0182  0.9070
17937TIP3    H275227   6.347   0.959  15.076 -1.4096 -2.0970  0.7383
17938TIP3   OH275228   5.398   6.317   1.933  0.3152 -0.6438 -0.0691
17938TIP3    H175229   5.321   6.330   1.988 -0.2979 -0.5904 -0.9219
17938TIP3    H275230   5.391   6.226   1.902  0.4021 -0.5269 -0.4374
17939TIP3   OH275231   0.363   4.982   3.469  0.5217 -1.2163 -0.2183
17939TIP3    H175232   0.301   5.049   3.439  0.5427 -2.1640 -2.5244
17939TIP3    H275233   0.308   4.913   3.505  0.3918 -0.8081  0.3684
17940TIP3   OH275234   0.894   6.109  15.155  0.1202 -0.0747  0.0232
17940TIP3    H175235   0.848   6.028  15.129 -2.4866  1.0146  1.0384
17940TIP3    H275236   0.943   6.084  15.233  0.2890 -0.9720 -0.3571
17941TIP3   OH275237   5.661   5.521   5.199 -0.1144 -0.3371  0.6847
17941TIP3    H175238   5.630   5.560   5.117  1.5311  0.4782  0.4398
17941TIP3    H275239   5.687   5.432   5.175  0.9481  0.1042  0.1870
17942TIP3   OH275240   6.139   5.285  16.050  0.3544 -0.3627  0.3232
17942TIP3    H175241   6.052   5.266  16.085  0.2004  0.9289  0.6644
17942TIP3    H275242   6.158   5.374  16.079 -0.0080  0.9799 -3.3300
17943TIP3   OH275243   2.834   4.882   2.358  0.2545  0.7467 -0.3097
17943TIP3    H175244   2.865   4.794   2.335  2.0704  0.9688  1.1959
17943TIP3    H275245   2.766   4.867   2.423 -1.5025  0.3482 -2.1870
17944TIP3   OH275246   5.020   4.415  10.744 -0.7875 -0.0143 -0.0751
17944TIP3    H175247   4.961   4.408  10.669 -0.7216 -0.0950 -0.1194
17944TIP3    H275248   5.097   4.460  10.710 -1.5371  1.6738  0.4018
17945TIP3   OH275249   4.831   5.997  14.221  0.0506 -0.0038  0.6271
17945TIP3    H175250   4.865   6.064  14.161 -0.2773  0.8034  1.3234
17945TIP3    H275251   4.909   5.957  14.259  0.2601 -0.8170 -0.6663
17946TIP3   OH275252   6.239   5.681  13.392 -0.3388 -0.0142 -0.1827
17946TIP3    H175253   6.315   5.729  13.425  0.0399 -0.0658 -0.9607
17946TIP3    H275254   6.173   5.690  13.461 -0.2654  1.5978 -0.2989
17947TIP3   OH275255   5.513   2.820   4.733  0.3573 -0.6315 -0.6886
17947TIP3    H175256   5.436   2.877   4.737  0.2669 -0.8504  0.8966
17947TIP3    H275257   5.569   2.860   4.667 -0.1951  0.6975 -0.3696
17948TIP3   OH275258   0.584   5.905   3.850  0.2862  0.3463 -0.0424
17948TIP3    H175259   0.676   5.887   3.870  0.5458  0.4774 -1.0682
17948TIP3    H275260   0.562   5.981   3.903  0.2843 -0.6798  1.4639
17949TIP3   OH275261   3.427   3.604   5.984  0.3339  0.5844 -0.0991
17949TIP3    H175262   3.438   3.699   5.979 -0.4269  0.6808 -0.1473
17949TIP3    H275263   3.349   3.593   6.039 -0.4032  0.0372 -1.2374
17950TIP3   OH275264   1.126   3.699   0.770  0.1518 -0.2455 -0.7793
17950TIP3    H175265   1.054   3.720   0.710  0.5626 -2.4513 -2.1111
17950TIP3    H275266   1.204   3.695   0.714  0.5794 -2.1514 -0.0868
17951TIP3   OH275267   6.308   4.391   1.845  0.2313 -0.1182  0.1144
17951TIP3    H175268   6.337   4.471   1.800 -1.5115 -0.2031 -1.1996
17951TIP3    H275269   6.354   4.320   1.800 -1.2955 -0.1785 -1.4014
17952TIP3   OH275270   2.666   2.191  13.845 -0.0180  0.2874 -0.0933
17952TIP3    H175271   2.711   2.275  13.860  1.5230 -0.8781  2.1296
17952TIP3    H275272   2.732   2.137  13.802 -0.8848  0.0812 -1.1647
17953TIP3   OH275273   1.233   0.459   0.505  0.6702 -0.7552  0.0030
17953TIP3    H175274   1.229   0.547   0.466 -3.0244 -1.3139 -0.9900
17953TIP3    H275275   1.278   0.406   0.439  1.4697  0.0271 -0.0912
17954TIP3   OH275276   3.653   0.234   0.482 -0.0626  0.3397  0.2124
17954TIP3    H175277   3.693   0.175   0.418  0.7588  0.2619  0.7866
17954TIP3    H275278   3.569   0.192   0.504  0.8287 -1.0269  1.1633
17955TIP3   OH275279   2.479   2.013  13.274 -0.3554 -0.2718 -0.6563
17955TIP3    H175280   2.468   2.094  13.325 -1.0505 -1.4081  1.0307
17955TIP3    H275281   2.392   1.974  13.271  0.0777 -1.2400 -1.0191
17956TIP3   OH275282   6.245   0.328  13.713 -0.4014 -0.1677 -0.0779
17956TIP3    H175283   6.263   0.421  13.700 -0.7090 -0.5136 -3.4043
17956TIP3    H275284   6.149   0.322  13.713 -0.3918 -0.3580  1.1797
17957TIP3   OH275285   4.029   2.796  13.160  0.4114  0.1948 -0.1359
17957TIP3    H175286   4.063   2.763  13.243  1.5342 -1.3184 -1.1791
17957TIP3    H275287   3.989   2.720  13.117  0.0682  0.8977 -1.0992
17958TIP3   OH275288   2.225   1.583  12.187  0.3858 -0.7100 -0.3992
17958TIP3    H175289   2.273   1.665  12.180 -1.0355  0.0833 -1.1459
17958TIP3    H275290   2.143   1.599  12.140 -1.0783 -1.6418  1.7351
17959TIP3   OH275291   1.449   1.675  14.861 -0.2007  0.2042  0.1771
17959TIP3    H175292   1.479   1.588  14.835  2.5515  1.3242 -0.5162
17959TIP3    H275293   1.454   1.675  14.957  0.8027 -0.0605  0.1275
17960TIP3   OH275294   0.731   3.466  14.220  0.0299 -0.4243  0.2038
17960TIP3    H175295   0.693   3.379  14.208  0.3186 -0.3870 -1.0116
17960TIP3    H275296   0.738   3.502  14.132  1.0935  0.3256  0.5824
17961TIP3   OH275297   6.002   4.441   0.648  0.2886  0.2126 -0.3681
17961TIP3    H175298   6.076   4.405   0.599  0.6656 -0.4278  0.6464
17961TIP3    H275299   6.004   4.535   0.629  1.6154  0.2662 -0.0328
17962TIP3   OH275300   1.071   3.309   4.884 -0.4780 -0.2951 -0.4660
17962TIP3    H175301   1.070   3.283   4.792  1.2127  1.6883 -1.0883
17962TIP3    H275302   1.157   3.281   4.916  0.5996  2.6799 -0.6370
17963TIP3   OH275303   6.638   5.032   3.685  0.1206 -0.2165  0.3870
17963TIP3    H175304   6.557   5.076   3.711  1.0559  0.1187  2.8331
17963TIP3    H275305   6.702   5.058   3.751  1.9961 -1.2522 -0.9690
17964TIP3   OH275306   3.473   5.861   3.161  0.3311  0.2191 -0.5735
17964TIP3    H175307   3.487   5.944   3.116 -0.9746  0.7147 -0.0733
17964TIP3    H275308   3.541   5.803   3.126  1.0295  1.3908 -1.1737
17965TIP3   OH275309   2.986   1.419   2.353 -0.0053  0.5274 -0.1294
17965TIP3    H175310   3.010   1.345   2.408 -0.9426  1.1225  1.1218
17965TIP3    H275311   3.065   1.440   2.303  0.9981  0.2608  1.3317
17966TIP3   OH275312   0.885   1.493   3.154 -0.0060  0.1558 -0.1470
17966TIP3    H175313   0.867   1.582   3.184  2.7075  0.4900  0.6314
17966TIP3    H275314   0.930   1.451   3.228  1.2310 -0.9583 -1.4861
17967TIP3   OH275315   3.371   6.213  16.153  0.1865  0.1121 -0.3245
17967TIP3    H175316   3.347   6.203  16.061  1.8426  0.8262 -0.8465
17967TIP3    H275317   3.417   6.296  16.157  1.4589 -0.6288  0.8703
17968TIP3   OH275318   5.489   0.961   3.135  0.3031 -0.2667 -0.8893
17968TIP3    H175319   5.500   1.045   3.179 -2.3123  0.0535 -0.7790
17968TIP3    H275320   5.512   0.979   3.044  1.7617  0.0571 -0.4632
17969TIP3   OH275321   6.138   0.032   4.793  0.4786  0.2647 -0.4799
17969TIP3    H175322   6.191  -0.048   4.793 -0.7596 -0.5843  1.2005
17969TIP3    H275323   6.047   0.001   4.799  0.0840  1.8240  2.3185
17970TIP3   OH275324   5.519   3.184   0.123  0.1060 -0.0416 -0.0715
17970TIP3    H175325   5.600   3.188   0.073  0.0658 -1.3824 -0.2594
17970TIP3    H275326   5.477   3.268   0.107 -0.1226 -0.6032 -2.7067
17971TIP3   OH275327   5.411   2.846   3.146 -0.6150  0.5456 -0.0249
17971TIP3    H175328   5.452   2.931   3.128 -0.6989  1.0288  1.9097
17971TIP3    H275329   5.320   2.857   3.121 -1.1464  1.7864  2.2753
17972TIP3   OH275330   0.542   5.430  12.689  0.1751 -0.7331  0.3450
17972TIP3    H175331   0.612   5.390  12.740 -1.1524 -2.2318  1.0563
17972TIP3    H275332   0.491   5.481  12.752  0.4047  0.0229 -0.0841
17973TIP3   OH275333   3.437   5.004   4.700  0.3152 -0.6679  0.2661
17973TIP3    H175334   3.351   5.044   4.688 -0.1564 -1.4652  0.9068
17973TIP3    H275335   3.418   4.915   4.728  1.3568 -1.0398 -0.1828
17974TIP3   OH275336   0.296   5.797   4.833  0.2240 -0.2560  0.6235
17974TIP3    H175337   0.332   5.885   4.842 -0.7750  0.2182  0.0794
17974TIP3    H275338   0.297   5.780   4.739  1.7405 -1.3932  0.8357
17975TIP3   OH275339   3.982   5.103   3.820 -0.2164  0.4203  0.3894
17975TIP3    H175340   3.910   5.167   3.822  0.3380  1.0644 -0.0844
17975TIP3    H275341   4.058   5.153   3.789 -0.0827 -0.7703 -1.2965
17976TIP3   OH275342   1.753   1.342   5.062  0.6030  0.6296  0.0384
17976TIP3    H175343   1.774   1.425   5.020  0.1059  0.8486  0.2172
17976TIP3    H275344   1.813   1.337   5.136  2.6954 -0.5784 -1.6752
17977TIP3   OH275345   1.526   4.567   1.683 -0.0670 -0.0441 -0.4040
17977TIP3    H175346   1.567   4.481   1.690 -0.0368 -0.1890 -2.0725
17977TIP3    H275347   1.439   4.555   1.721  0.5502 -0.3698  0.9046
17978TIP3   OH275348   2.328   2.872   0.609  0.5043 -0.2743  0.1157
17978TIP3    H175349   2.407   2.886   0.557  0.5211 -0.5299  0.0684
17978TIP3    H275350   2.256   2.894   0.550  0.5643  0.8374  0.4481
17979TIP3   OH275351   4.270   0.322   1.916 -0.0545  0.6903  0.6528
17979TIP3    H175352   4.281   0.344   1.824  0.8974  1.5756  0.9700
17979TIP3    H275353   4.310   0.394   1.963 -0.9647  0.4843  1.7771
17980TIP3   OH275354   4.142   2.236  14.297 -0.4098 -0.3886  0.5551
17980TIP3    H175355   4.142   2.322  14.254 -0.5569  0.8151  2.8457
17980TIP3    H275356   4.232   2.226  14.329 -0.8706 -0.2029  1.9472
17981TIP3   OH275357   5.976   1.258  14.915 -0.2254 -0.1732  0.1209
17981TIP3    H175358   5.900   1.218  14.955 -0.1673 -0.3029  0.1006
17981TIP3    H275359   6.000   1.199  14.844  0.6247 -0.7636  0.8843
17982TIP3   OH275360   4.193   2.156  17.048  0.0788 -0.0599 -0.3721
17982TIP3    H175361   4.203   2.065  17.076 -1.4270 -1.2601 -3.4527
17982TIP3    H275362   4.105   2.180  17.078  0.4393  0.3610  0.3558
17983TIP3   OH275363   4.969   4.753   1.397  0.1188  0.3269  0.5455
17983TIP3    H175364   4.941   4.663   1.412  0.1011  0.6531  2.6865
17983TIP3    H275365   4.941   4.772   1.308 -2.5679 -0.8280  1.0840
17984TIP3   OH275366   2.072   2.616   3.905  0.4876  0.0439 -0.0833
17984TIP3    H175367   2.129   2.604   3.829 -0.0118  0.9784 -0.6040
17984TIP3    H275368   2.119   2.677   3.961  0.4906 -0.0309 -0.0037
17985TIP3   OH275369   1.524   1.862  16.910  0.3209 -0.2323  0.1578
17985TIP3    H175370   1.561   1.861  16.822 -0.2660 -1.1836 -0.0776
17985TIP3    H275371   1.576   1.798  16.959  0.1744 -0.2314  0.3140
17986TIP3   OH275372   3.181   3.453  13.938  0.2204 -0.1648 -0.4413
17986TIP3    H175373   3.095   3.432  13.902  1.3252 -2.8800 -1.6354
17986TIP3    H275374   3.206   3.535  13.895 -0.6697 -0.7047 -2.0186
17987TIP3   OH275375   1.147   2.043  15.510  0.0673 -0.0938 -0.2288
17987TIP3    H175376   1.234   2.058  15.473 -0.2719  0.8199 -0.6681
17987TIP3    H275377   1.087   2.088  15.450 -0.6716 -0.3553  0.3018
17988TIP3   OH275378   2.088   4.091  15.256  0.1680  0.2534 -0.2425
17988TIP3    H175379   2.020   4.092  15.324 -0.0831 -0.6169 -0.4784
17988TIP3    H275380   2.047   4.046  15.182  1.1065 -0.5586 -0.2738
17989TIP3   OH275381   5.443   2.689   0.492  0.1077  0.0143  0.8326
17989TIP3    H175382   5.426   2.644   0.409  0.5808 -0.3911  0.9560
17989TIP3    H275383   5.357   2.716   0.523 -0.4085 -2.5466  1.7656
17990TIP3   OH275384   2.466   6.385  12.142  0.3785  0.7898  0.1528
17990TIP3    H175385   2.469   6.322  12.070 -1.4318  1.3787 -0.4659
17990TIP3    H275386   2.445   6.469  12.100 -0.9460  1.0915  1.3817
17991TIP3   OH275387   0.782   3.226  11.387 -0.2759  0.4381  0.3564
17991TIP3    H175388   0.764   3.171  11.464  1.6911 -0.4888  0.1828
17991TIP3    H275389   0.735   3.183  11.316 -0.1745 -0.0387  0.5743
17992TIP3   OH275390   0.853   1.954   4.345  0.2636 -0.2281  0.6391
17992TIP3    H175391   0.926   2.006   4.310  0.8368  0.3150  2.5720
17992TIP3    H275392   0.895   1.890   4.402 -0.8133  0.8835  2.7388
17993TIP3   OH275393   5.596   5.928  11.858 -0.2075  0.4728 -0.3204
17993TIP3    H175394   5.568   5.840  11.832  0.1760  0.1042  0.4958
17993TIP3    H275395   5.532   5.955  11.923  0.1494  0.4671  0.0300
17994TIP3   OH275396   6.357   0.559   0.643  0.6565 -0.4654  0.1435
17994TIP3    H175397   6.307   0.541   0.722  1.4366 -2.5043  0.1930
17994TIP3    H275398   6.401   0.642   0.661  0.0596 -0.4272  1.4710
17995TIP3   OH275399   5.022   1.643  14.328  0.0654 -0.0754 -0.0881
17995TIP3    H175400   5.097   1.594  14.293 -0.2432  0.3417 -1.3481
17995TIP3    H275401   4.995   1.593  14.405  0.6666 -1.0891 -0.5207
17996TIP3   OH275402   3.227   3.563   5.394 -0.0124 -0.4070  0.0280
17996TIP3    H175403   3.158   3.625   5.418 -0.0365 -0.3563 -0.1716
17996TIP3    H275404   3.275   3.606   5.323  0.3265 -0.3735  0.2775
17997TIP3   OH275405   4.191   6.050   1.001  0.0249 -0.4389 -0.1367
17997TIP3    H175406   4.185   6.006   0.916 -1.5784 -0.4612 -0.0354
17997TIP3    H275407   4.178   6.142   0.981  0.6606 -0.3242 -0.0296
17998TIP3   OH275408   4.517   0.225  12.657 -0.1814 -0.0612 -0.2850
17998TIP3    H175409   4.611   0.238  12.670 -0.3817  2.4712 -0.9173
17998TIP3    H275410   4.481   0.220  12.746  0.3037  1.1720 -0.0074
17999TIP3   OH275411   3.081   5.180  17.048  0.0758  0.0525  0.1120
17999TIP3    H175412   3.082   5.134  17.132 -0.5968  0.1045  0.1525
17999TIP3    H275413   3.009   5.243  17.056  1.5149  1.6997  0.3623
18000TIP3   OH275414   3.271   1.652   5.691  0.8398  0.3438 -0.5747
18000TIP3    H175415   3.241   1.741   5.669  0.8249 -0.2055 -2.8006
18000TIP3    H275416   3.203   1.595   5.656 -0.0781 -0.5090  2.4596
18001TIP3   OH275417   5.604   3.876   1.937  0.0889 -0.2381 -0.7019
18001TIP3    H175418   5.688   3.902   1.901 -0.6788  1.0217 -1.6315
18001TIP3    H275419   5.621   3.794   1.983  1.7459 -0.1496 -1.1515
18002TIP3   OH275420   3.142   3.233   2.837 -1.2846  0.0303  0.5837
18002TIP3    H175421   3.179   3.192   2.759  2.5719  0.5454  2.0318
18002TIP3    H275422   3.134   3.326   2.814  0.5684  0.3134  1.0015
18003TIP3   OH275423   6.070   2.681  12.859  0.3240 -0.7100 -0.0261
18003TIP3    H175424   6.010   2.731  12.804  1.9190  0.2080 -0.9600
18003TIP3    H275425   6.023   2.600  12.879 -1.5226  0.3188 -0.0876
18004TIP3   OH275426   5.485   3.868   0.989  0.2477 -0.5262  0.2248
18004TIP3    H175427   5.574   3.892   0.963  0.1812 -1.2128 -0.6877
18004TIP3    H275428   5.496   3.814   1.067  0.6408 -0.7134  0.0431
18005TIP3   OH275429   5.304   4.098  15.439 -0.5789 -0.0615  0.2582
18005TIP3    H175430   5.259   4.153  15.374 -2.1634  0.5724  1.8366
18005TIP3    H275431   5.271   4.010  15.422 -0.5227  0.0009 -0.1885
18006TIP3   OH275432   0.099   5.983   0.391  0.6216 -0.0044 -0.0207
18006TIP3    H175433   0.079   5.989   0.484 -0.4264 -1.8638 -0.1230
18006TIP3    H275434   0.077   6.070   0.357 -0.3478  0.2381  1.1928
18007TIP3   OH275435   2.535   5.385   5.871  0.6731  0.2070 -0.2790
18007TIP3    H175436   2.556   5.294   5.893  0.6563 -0.1382 -1.6149
18007TIP3    H275437   2.496   5.421   5.950  2.6369 -0.3102  0.9546
18008TIP3   OH275438   1.303   5.178  15.590 -0.0831 -0.4572 -0.6531
18008TIP3    H175439   1.241   5.109  15.613 -0.3654  0.0937  0.3092
18008TIP3    H275440   1.386   5.150  15.628  0.2050 -1.0945 -1.7568
18009TIP3   OH275441   5.933   5.282  11.457  0.1302 -0.3090  0.0986
18009TIP3    H175442   5.868   5.286  11.528  1.1463 -2.4663  1.2114
18009TIP3    H275443   6.016   5.304  11.500  0.6639 -1.0703 -0.5373
18010TIP3   OH275444   5.157   2.513   3.738 -0.2817 -0.3275  0.2505
18010TIP3    H175445   5.181   2.421   3.750  0.0874 -0.2507  0.0950
18010TIP3    H275446   5.121   2.540   3.822 -0.7103 -0.7143  0.1943
18011TIP3   OH275447   0.088   6.095  13.308  0.1773  0.0194 -1.0974
18011TIP3    H175448   0.066   6.002  13.309  1.1195 -0.1966  0.1254
18011TIP3    H275449   0.145   6.108  13.383 -1.5280  1.9885 -0.0728
18012TIP3   OH275450   3.842   1.983  14.312  0.1533  0.1863 -0.6642
18012TIP3    H175451   3.908   1.927  14.272 -0.1408 -1.3470  0.9352
18012TIP3    H275452   3.759   1.954  14.274 -0.1700 -1.5393  1.3021
18013TIP3   OH275453   1.962   2.165   3.236 -0.5103 -0.4828 -0.2501
18013TIP3    H175454   1.923   2.077   3.232  0.2649 -0.9341  1.6063
18013TIP3    H275455   1.906   2.213   3.297  0.3787 -0.3875  0.4998
18014TIP3   OH275456   1.439   0.908  13.537 -0.1893 -0.9438 -0.2833
18014TIP3    H175457   1.527   0.877  13.560  0.6090  0.8840 -0.7230
18014TIP3    H275458   1.401   0.936  13.621  0.4685  0.2347 -0.3691
18015TIP3   OH275459   5.846   1.706  16.416  0.1354 -0.0856 -0.5329
18015TIP3    H175460   5.871   1.776  16.355  0.2587 -0.4108 -0.8525
18015TIP3    H275461   5.904   1.633  16.394 -1.0011 -0.8039 -1.1920
18016TIP3   OH275462   2.197   0.421  16.780 -0.4347  0.0907  0.1368
18016TIP3    H175463   2.173   0.512  16.802  2.5443  0.6474  1.3208
18016TIP3    H275464   2.233   0.386  16.862  1.7073 -1.0263 -1.2579
18017TIP3   OH275465   2.179   6.628   5.080  0.9096  0.0195 -0.0293
18017TIP3    H175466   2.156   6.535   5.087  0.6610  0.1678  1.3486
18017TIP3    H275467   2.127   6.660   5.006  0.9433 -0.9187 -0.4691
18018TIP3   OH275468   3.456   4.848  17.026 -0.2870 -0.3660  0.1137
18018TIP3    H175469   3.480   4.940  17.032 -1.3655 -0.0051 -0.9269
18018TIP3    H275470   3.520   4.803  17.082  1.2244  0.8378 -0.5955
18019TIP3   OH275471   0.690   4.815   3.805  0.3903 -0.2146 -0.5533
18019TIP3    H175472   0.740   4.762   3.867 -1.6171 -0.7037  0.7096
18019TIP3    H275473   0.612   4.841   3.853  0.7514  2.9298 -1.5479
18020TIP3   OH275474   1.289   3.614  12.713 -0.2467  0.8604  0.4094
18020TIP3    H175475   1.194   3.611  12.699  0.0507 -1.9009 -1.5106
18020TIP3    H275476   1.301   3.583  12.803 -1.1134  0.1607  0.2950
18021TIP3   OH275477   4.830   5.389   4.198 -0.6775 -0.0368  0.0763
18021TIP3    H175478   4.914   5.392   4.243  0.4614  3.1332 -2.1332
18021TIP3    H275479   4.827   5.301   4.160  1.4161 -0.3321  0.5293
18022TIP3   OH275480   5.770   0.107   4.531  0.0506 -0.9128  0.0859
18022TIP3    H175481   5.837   0.165   4.566 -0.5129 -0.2290  0.0585
18022TIP3    H275482   5.776   0.118   4.436  0.8053 -1.8851  0.0176
18023TIP3   OH275483   6.280   1.266   4.941 -0.4690  0.3681  0.0810
18023TIP3    H175484   6.212   1.249   4.875 -1.4739  1.4688  0.8279
18023TIP3    H275485   6.248   1.223   5.020  1.6611 -2.6564 -0.5895
18024TIP3   OH275486   2.773   5.456   0.378  0.8443  0.2219 -0.3618
18024TIP3    H175487   2.860   5.429   0.349  1.7525  2.7805 -0.1676
18024TIP3    H275488   2.748   5.391   0.443  3.4467  0.5288  1.0100
18025TIP3   OH275489   2.631   5.224  16.106  0.5279 -0.3287 -0.3796
18025TIP3    H175490   2.655   5.294  16.166  1.3630 -1.1943  0.3213
18025TIP3    H275491   2.681   5.241  16.027  1.4624 -0.6604  0.1355
18026TIP3   OH275492   4.536   1.166  15.798 -0.4058 -0.4494  0.0775
18026TIP3    H175493   4.607   1.203  15.851 -0.8897  1.6362 -0.6570
18026TIP3    H275494   4.577   1.095  15.749  1.2720  0.9352 -0.5738
18027TIP3   OH275495   5.313   5.152  15.402  0.6313 -0.2214 -0.0518
18027TIP3    H175496   5.325   5.143  15.307  0.6443  2.2008 -0.2895
18027TIP3    H275497   5.220   5.170  15.413  0.9530  1.3388  0.2356
18028TIP3   OH275498   2.716   2.135  14.160 -0.0658  0.1478 -0.0666
18028TIP3    H175499   2.790   2.132  14.220 -1.0529  1.3464  1.2577
18028TIP3    H275500   2.742   2.198  14.093  0.4145 -0.0137 -0.0355
18029TIP3   OH275501   6.029   4.698  16.252 -0.5437  0.1715  0.2677
18029TIP3    H175502   5.953   4.721  16.198  0.1247 -0.9490 -1.1919
18029TIP3    H275503   6.084   4.777  16.250 -0.0820 -0.1651 -1.5186
18030TIP3   OH275504   6.701   0.421   6.019 -0.2921  0.4590 -0.2986
18030TIP3    H175505   6.632   0.405   6.083  1.0822 -1.0177  0.8515
18030TIP3    H275506   6.687   0.354   5.952 -0.8679  1.1099 -0.8405
18031TIP3   OH275507   5.144   5.084   6.083 -0.0207 -0.4933 -0.1291
18031TIP3    H175508   5.189   5.004   6.108 -0.3547 -0.2573  1.2827
18031TIP3    H275509   5.160   5.144   6.155 -1.9477 -0.1502  0.0451
18032TIP3   OH275510   2.412   1.576   0.340 -0.0705 -0.5592 -0.0360
18032TIP3    H175511   2.318   1.593   0.342 -0.1000 -0.6136 -1.1162
18032TIP3    H275512   2.421   1.490   0.383 -0.4348 -0.2486  0.6765
18033TIP3   OH275513   5.063   0.570  16.217 -0.0595  0.9095  0.6669
18033TIP3    H175514   5.143   0.543  16.172 -1.8527 -0.9158 -1.5140
18033TIP3    H275515   5.073   0.534  16.306  0.5934 -1.2113 -0.2248
18034TIP3   OH275516   5.626   4.352  14.894 -0.3364  0.2866 -0.3380
18034TIP3    H175517   5.620   4.437  14.937  1.0489 -0.1788  0.7832
18034TIP3    H275518   5.717   4.325  14.905 -1.2165 -2.2869  1.1376
18035TIP3   OH275519   6.061   6.292   1.884 -0.1523 -0.9738 -0.6284
18035TIP3    H175520   6.069   6.380   1.849  1.1414 -1.2937 -1.1656
18035TIP3    H275521   6.032   6.239   1.809  2.3263 -1.6035 -1.1761
18036TIP3   OH275522   5.070   3.465   1.469  0.0800  0.1463  0.3500
18036TIP3    H175523   5.154   3.469   1.425  0.8198 -2.1678  1.4357
18036TIP3    H275524   5.005   3.464   1.398  1.1353 -1.2507 -0.6233
18037TIP3   OH275525   2.166   4.778  15.257  0.6715 -0.1365  0.8670
18037TIP3    H175526   2.202   4.707  15.203  0.4512 -0.8429  1.6439
18037TIP3    H275527   2.073   4.758  15.264  0.5484  0.4038  0.8398
18038TIP3   OH275528   0.882   5.725  15.751 -0.1969  0.2010  0.2938
18038TIP3    H175529   0.866   5.645  15.700  0.0338  0.5341 -0.3060
18038TIP3    H275530   0.970   5.753  15.724  1.3836 -1.4727  3.3466
18039TIP3   OH275531   0.675   6.362   1.126  0.5421 -0.0815  0.4453
18039TIP3    H175532   0.725   6.290   1.087  0.7904 -0.3228  1.1953
18039TIP3    H275533   0.664   6.425   1.055  0.0513 -1.0043 -0.3152
18040TIP3   OH275534   0.781   3.455  13.630  0.0562  0.0479 -0.0076
18040TIP3    H175535   0.726   3.527  13.598 -0.1428  0.7269  1.8205
18040TIP3    H275536   0.726   3.410  13.694  1.8574  1.1656  2.3744
18041TIP3   OH275537   2.287   2.134   1.419 -0.4418  0.0379 -0.3174
18041TIP3    H175538   2.373   2.126   1.461 -1.4299 -1.2220  1.5171
18041TIP3    H275539   2.262   2.225   1.434 -0.3015 -0.1154  0.8575
18042TIP3   OH275540   3.311   4.451  15.398 -0.5803  0.5471 -0.1898
18042TIP3    H175541   3.268   4.414  15.475  0.0802  0.4907  0.1604
18042TIP3    H275542   3.405   4.444  15.418 -0.4281  1.3394 -0.6210
18043TIP3   OH275543   2.686   1.070  16.556 -0.1172  0.2216  0.0695
18043TIP3    H175544   2.761   1.062  16.615  0.4975 -1.3723 -0.8785
18043TIP3    H275545   2.615   1.024  16.600 -0.2744  0.9115  0.5380
18044TIP3   OH275546   4.167   2.227  13.512  0.3075 -0.2308 -0.0203
18044TIP3    H175547   4.134   2.223  13.601 -0.3604 -0.6386 -0.2861
18044TIP3    H275548   4.256   2.261  13.521  0.7826 -1.7002  0.9313
18045TIP3   OH275549   5.425   2.451   3.970 -0.1362 -0.2439  0.1190
18045TIP3    H175550   5.436   2.545   3.954  0.6883 -0.4804 -0.7875
18045TIP3    H275551   5.514   2.419   3.984 -0.3186 -1.0449 -0.5091
18046TIP3   OH275552   1.959   1.180   0.137  0.7727 -0.0175  0.0523
18046TIP3    H175553   1.944   1.183   0.043  1.6934  2.1180 -0.0651
18046TIP3    H275554   2.044   1.224   0.149  0.3863  0.2585  1.9195
18047TIP3   OH275555   2.555   6.740   3.414 -0.1229  0.9793 -0.3601
18047TIP3    H175556   2.624   6.712   3.474  0.6970 -1.2017 -2.2478
18047TIP3    H275557   2.598   6.802   3.355 -0.0392  0.5138 -0.7990
18048TIP3   OH275558   3.999   3.763   2.499  0.2405  0.2207  0.1320
18048TIP3    H175559   4.089   3.748   2.471  0.4752 -0.2705  1.1411
18048TIP3    H275560   4.003   3.842   2.552  0.4428 -0.9886  1.9503
18049TIP3   OH275561   6.135   6.044   3.697  0.1486 -0.5693  0.4443
18049TIP3    H175562   6.099   6.132   3.688  1.0170 -0.2455  0.1352
18049TIP3    H275563   6.115   6.001   3.614 -0.7002 -0.8271  0.7745
18050TIP3   OH275564   6.369   2.906  15.037 -0.0700  0.0522 -0.2504
18050TIP3    H175565   6.428   2.923  14.964 -0.1192  2.4761  0.2150
18050TIP3    H275566   6.414   2.945  15.113 -1.2064 -0.1083  0.5086
18051TIP3   OH275567   4.122   3.270  16.237 -0.2129  0.5096  0.6376
18051TIP3    H175568   4.149   3.314  16.318  3.2148  0.6238 -0.4593
18051TIP3    H275569   4.189   3.296  16.173 -2.1059 -0.6613 -1.8726
18052TIP3   OH275570   6.289   0.928   4.432  0.0540 -0.6409  0.4239
18052TIP3    H175571   6.207   0.925   4.482 -1.0059  2.1902 -1.0020
18052TIP3    H275572   6.356   0.898   4.494 -1.8838 -1.8563  1.9978
18053TIP3   OH275573   2.416   2.134   2.999 -0.0796 -0.0298 -0.5270
18053TIP3    H175574   2.398   2.078   3.075 -1.9001 -1.4137 -1.9437
18053TIP3    H275575   2.355   2.104   2.932  0.9413  1.7247 -2.2862
18054TIP3   OH275576   2.889   0.677   5.587  0.1856  0.2015 -0.3092
18054TIP3    H175577   2.815   0.673   5.646  0.8401  0.6263  0.5483
18054TIP3    H275578   2.872   0.608   5.522 -0.1322 -0.8100  0.8408
18055TIP3   OH275579   3.501   0.400  13.803 -0.1749  0.1335  0.5804
18055TIP3    H175580   3.501   0.457  13.726 -0.4459 -0.1492  0.3719
18055TIP3    H275581   3.495   0.311  13.768 -0.5044  0.0149  0.9307
18056TIP3   OH275582   5.891   0.821   2.049  0.4380  0.6657 -0.0907
18056TIP3    H175583   5.815   0.766   2.031  0.2998  1.5211 -2.2011
18056TIP3    H275584   5.963   0.778   2.005  0.1135  2.7088 -2.7918
18057TIP3   OH275585   4.024   4.908  16.031 -0.8506 -0.3749 -0.3414
18057TIP3    H175586   4.035   4.937  16.121 -0.1105 -0.5793 -0.3633
18057TIP3    H275587   3.974   4.979  15.989  1.5456  1.2282 -0.5689
18058TIP3   OH275588   5.721   1.219   2.195  0.4711 -0.4868  0.3707
18058TIP3    H175589   5.759   1.226   2.108 -1.4472 -2.8573 -0.7201
18058TIP3    H275590   5.780   1.159   2.242  2.6031  2.3050  1.4211
18059TIP3   OH275591   5.057   0.790   4.905 -0.1192  0.1091 -0.1359
18059TIP3    H175592   5.073   0.744   4.822 -2.4739 -1.1611  0.0816
18059TIP3    H275593   5.043   0.719   4.968 -1.7894  1.1085  0.6314
18060TIP3   OH275594   6.074   0.619   2.451  0.2023 -0.1204 -0.6329
18060TIP3    H175595   6.022   0.651   2.523  0.2097 -0.7818 -0.3244
18060TIP3    H275596   6.165   0.624   2.482  0.1455 -1.2420 -0.2478
18061TIP3   OH275597   3.084   2.908  11.849 -0.1525 -0.2949  0.1364
18061TIP3    H175598   3.114   2.918  11.759  0.3126 -2.2352  0.0543
18061TIP3    H275599   3.164   2.902  11.901 -0.3998  2.4913  0.9250
18062TIP3   OH275600   6.361   0.402   5.629 -0.5950 -0.1943  0.5054
18062TIP3    H175601   6.309   0.470   5.672 -0.7100 -0.0181  0.0930
18062TIP3    H275602   6.451   0.435   5.634 -0.5563 -0.3738  0.9851
18063TIP3   OH275603   5.484   6.191  14.934  0.0781  0.7946  0.7746
18063TIP3    H175604   5.579   6.180  14.932  0.2350  2.0479  0.8730
18063TIP3    H275605   5.461   6.213  14.844 -0.1857  0.0134  0.6487
18064TIP3   OH275606   0.595   6.672  16.044  0.3636 -0.0590 -0.2800
18064TIP3    H175607   0.578   6.681  15.950  1.0037  0.0152 -0.3947
18064TIP3    H275608   0.673   6.617  16.048  0.3334 -0.0625  0.2104
18065TIP3   OH275609   4.871   3.505   3.825 -0.3963  0.5971 -0.0284
18065TIP3    H175610   4.862   3.468   3.737 -1.7863  1.1356 -0.1232
18065TIP3    H275611   4.800   3.569   3.831  0.4317  1.4291  1.0459
18066TIP3   OH275612   5.341   6.637   4.113 -0.8368  0.1401  0.2300
18066TIP3    H175613   5.246   6.639   4.112 -0.8341  2.5799  0.9229
18066TIP3    H275614   5.364   6.626   4.206 -0.4617  1.0050  0.2489
18067TIP3   OH275615   6.550   1.761  15.987  0.3840  0.0806 -0.2171
18067TIP3    H175616   6.609   1.836  15.976 -0.7918  1.2500  1.2599
18067TIP3    H275617   6.588   1.712  16.060  1.9579 -1.6057 -2.0883
18068TIP3   OH275618   4.197   6.700   0.324 -0.0634  0.6205  0.3960
18068TIP3    H175619   4.122   6.683   0.267  0.3924 -1.6627  0.4348
18068TIP3    H275620   4.187   6.639   0.397  0.0767  2.5983  2.1197
18069TIP3   OH275621   6.418   2.824   4.070  0.0333 -0.5246 -0.2227
18069TIP3    H175622   6.462   2.888   4.014 -0.3896  0.6304  0.7316
18069TIP3    H275623   6.387   2.875   4.145 -3.2489 -1.2507 -1.0469
18070TIP3   OH275624   6.463   5.707   0.448  0.0586  0.0619 -0.0464
18070TIP3    H175625   6.446   5.755   0.529  0.2497  1.8639 -1.0481
18070TIP3    H275626   6.501   5.772   0.389 -0.8934 -0.9945 -1.8771
18071TIP3   OH275627   2.676   3.445   1.937  0.0813 -0.0779 -0.4316
18071TIP3    H175628   2.626   3.364   1.924 -0.0291  0.1846 -1.7487
18071TIP3    H275629   2.612   3.514   1.924 -0.5997  0.2316  4.0292
18072TIP3   OH275630   5.379   4.595   0.127 -0.5268 -0.4335 -0.1031
18072TIP3    H175631   5.472   4.583   0.108  0.5283  3.0244  2.3806
18072TIP3    H275632   5.354   4.517   0.176  1.8500 -0.1498  1.6785
18073TIP3   OH275633   1.728   2.287   3.360  0.5278  0.4168  0.0034
18073TIP3    H175634   1.712   2.209   3.413 -1.5411  1.0931  0.4171
18073TIP3    H275635   1.718   2.257   3.270  1.0047 -0.0772  0.1131
18074TIP3   OH275636   3.490   0.477   2.104  0.1081  1.1079  0.2929
18074TIP3    H175637   3.530   0.561   2.080  0.6304  0.8658  0.3308
18074TIP3    H275638   3.420   0.500   2.165 -1.2541  1.7532 -1.4515
18075TIP3   OH275639   2.271   3.056   4.391  0.3145 -0.2928 -0.2604
18075TIP3    H175640   2.330   2.999   4.441  0.5558  0.4642  0.3128
18075TIP3    H275641   2.239   3.120   4.454  0.7985  0.8141 -1.1219
18076TIP3   OH275642   4.949   1.909   4.856  0.1593 -0.1931  0.1885
18076TIP3    H175643   4.994   1.969   4.797 -1.2751  1.8582  1.1576
18076TIP3    H275644   4.942   1.827   4.806  0.5753  0.9619 -1.7940
18077TIP3   OH275645   3.044   3.618   1.139  0.3717  0.6862 -0.6438
18077TIP3    H175646   3.032   3.693   1.081 -2.8641  1.4600  0.9043
18077TIP3    H275647   3.058   3.656   1.226 -0.3398 -0.4659  0.0031
18078TIP3   OH275648   1.817   3.094  17.143 -0.7204  0.2352 -0.5922
18078TIP3    H175649   1.872   3.099  17.221 -0.4643 -1.7631 -0.6158
18078TIP3    H275650   1.748   3.032  17.165 -2.1097  1.5518 -1.1062
18079TIP3   OH275651   0.424   5.219  14.393  0.3394 -0.0643 -0.6416
18079TIP3    H175652   0.485   5.288  14.369  0.1832  0.2102 -0.2516
18079TIP3    H275653   0.386   5.190  14.310  0.2585  0.4521 -0.7854
18080TIP3   OH275654   1.109   5.652   2.106 -0.2362 -0.2576 -0.2772
18080TIP3    H175655   1.202   5.662   2.123  0.1933  0.3755 -2.6954
18080TIP3    H275656   1.077   5.596   2.176  2.3621 -2.1834 -0.5630
18081TIP3   OH275657   0.284   3.294   0.711 -0.3917 -0.6201  0.2792
18081TIP3    H175658   0.300   3.330   0.624  0.5226 -0.0692  0.6754
18081TIP3    H275659   0.195   3.259   0.706 -1.2322  1.5317 -0.1632
18082TIP3   OH275660   4.717   6.129   0.346  0.0377 -0.4896  0.3040
18082TIP3    H175661   4.727   6.107   0.254  1.3222 -0.6770  0.4775
18082TIP3    H275662   4.749   6.052   0.393 -0.9418 -0.5327  0.9058
18083TIP3   OH275663   6.435   6.045  16.421 -0.4798 -0.7166  0.3366
18083TIP3    H175664   6.409   6.130  16.455 -0.9534 -0.4439 -0.6837
18083TIP3    H275665   6.353   6.005  16.391  0.1265 -0.2577 -2.0191
18084TIP3   OH275666   1.907   6.028   1.212  0.0136 -0.2284  0.2684
18084TIP3    H175667   1.856   6.063   1.140  0.5897  0.1477  0.0427
18084TIP3    H275668   1.995   6.064   1.200  0.0391  0.1005  1.3323
18085TIP3   OH275669   3.530   5.561   3.772 -0.1187 -0.2654  0.0954
18085TIP3    H175670   3.486   5.500   3.830  2.2107 -3.3820 -1.3123
18085TIP3    H275671   3.463   5.585   3.708 -1.3233 -0.5536  1.2234
18086TIP3   OH275672   2.305   2.475   0.166 -0.8814 -0.5229  0.5396
18086TIP3    H175673   2.216   2.471   0.133 -0.5301  0.5911 -0.5632
18086TIP3    H275674   2.352   2.408   0.117 -0.9472 -0.6360  0.6304
18087TIP3   OH275675   0.229   5.816  13.710 -0.2406  0.0730  0.2231
18087TIP3    H175676   0.226   5.894  13.654 -3.0408 -0.4318 -0.4235
18087TIP3    H275677   0.167   5.836  13.781 -0.2606 -1.1958  0.5614
18088TIP3   OH275678   1.152   0.350   3.524  0.5772  0.6505  0.0730
18088TIP3    H175679   1.242   0.331   3.550  0.2235  1.3022  1.8013
18088TIP3    H275680   1.100   0.339   3.604 -1.0829 -0.9685 -1.1836
18089TIP3   OH275681   2.489   1.755   1.975  0.6683 -0.0481  0.4382
18089TIP3    H175682   2.542   1.680   2.000  1.9084  0.0761 -1.6597
18089TIP3    H275683   2.450   1.730   1.891 -1.8108  0.2643  1.4505
18090TIP3   OH275684   6.773   3.363   5.261 -0.0418 -0.2720 -0.6014
18090TIP3    H175685   6.710   3.328   5.325  0.4319 -0.2543 -0.1245
18090TIP3    H275686   6.761   3.458   5.265  2.1233 -0.0297  1.7228
18091TIP3   OH275687   5.519   0.235  12.584 -0.4963 -0.1583  0.0837
18091TIP3    H175688   5.533   0.142  12.562  1.9000  0.1407  0.2755
18091TIP3    H275689   5.587   0.255  12.648 -0.7334  1.8569 -0.2851
18092TIP3   OH275690   4.998   5.534   3.521  0.4803  0.5688 -0.7754
18092TIP3    H175691   4.917   5.526   3.470 -0.3152 -1.2808  0.7067
18092TIP3    H275692   4.977   5.598   3.589 -0.7645 -2.0748  1.4152
18093TIP3   OH275693   2.146   6.411  11.268  0.3000 -0.2263 -0.5443
18093TIP3    H175694   2.115   6.481  11.211  1.3882 -1.2609 -2.4263
18093TIP3    H275695   2.099   6.333  11.238  1.0512 -0.8254 -0.1800
18094TIP3   OH275696   0.138   3.568   1.698  0.3450 -0.1028 -0.2861
18094TIP3    H175697   0.198   3.519   1.754  1.2422  1.5835  0.2463
18094TIP3    H275698   0.193   3.605   1.629  0.0306  1.7827  0.4320
18095TIP3   OH275699   5.193   1.782   2.167 -0.2059  0.5460  0.2165
18095TIP3    H175700   5.267   1.763   2.225 -0.3074 -0.1392  0.1280
18095TIP3    H275701   5.128   1.716   2.189  0.2724 -0.5868 -1.6163
18096TIP3   OH275702   6.160   4.399  13.297 -0.2893  0.1484  0.7318
18096TIP3    H175703   6.229   4.419  13.360  0.4771  0.3247 -0.1518
18096TIP3    H275704   6.200   4.336  13.238 -1.2725 -0.6368  0.9021
18097TIP3   OH275705   3.486   5.570  11.505  0.1198  0.1820 -0.9543
18097TIP3    H175706   3.472   5.480  11.533  0.1827  0.3952 -0.2093
18097TIP3    H275707   3.524   5.563  11.417 -1.1468 -0.4803 -1.4502
18098TIP3   OH275708   5.757   2.099  12.835 -0.2189  0.5315  0.0825
18098TIP3    H175709   5.695   2.031  12.860  0.5512 -0.7105 -1.3291
18098TIP3    H275710   5.715   2.145  12.763 -0.4785  1.1732  0.6379
18099TIP3   OH275711   1.398   5.165   5.712 -0.5256 -0.5550  0.4888
18099TIP3    H175712   1.414   5.258   5.697  0.9829 -0.6185  1.5036
18099TIP3    H275713   1.367   5.160   5.803 -0.7170 -1.0288  0.4027
18100TIP3   OH275714   1.563   0.387  15.542  0.2455 -0.0166 -0.3609
18100TIP3    H175715   1.626   0.355  15.607  0.0613 -0.2094 -0.2755
18100TIP3    H275716   1.483   0.339  15.561  0.3680 -0.5228 -1.1347
18101TIP3   OH275717   0.745   0.177   3.320 -0.4510  0.0798  0.1403
18101TIP3    H175718   0.771   0.267   3.339 -0.3897  0.1952 -0.4863
18101TIP3    H275719   0.665   0.164   3.372 -0.2499  0.3686  0.5242
18102TIP3   OH275720   3.621   1.869   5.464  0.6594 -0.2937  0.0105
18102TIP3    H175721   3.546   1.911   5.423 -0.1080 -0.6467  1.0455
18102TIP3    H275722   3.657   1.812   5.395 -0.9958 -1.3660  0.0222
18103TIP3   OH275723   5.137   6.429  16.277  0.0048  0.3535  0.0968
18103TIP3    H175724   5.120   6.335  16.272 -2.7708  0.7031  2.0192
18103TIP3    H275725   5.062   6.469  16.233  0.8497  1.7199 -0.1252
18104TIP3   OH275726   2.955   3.647  17.135 -0.2527  0.0496  0.1724
18104TIP3    H175727   2.950   3.612  17.224  0.0451  2.8995  1.3979
18104TIP3    H275728   2.863   3.659  17.109 -0.3532  1.2859  1.0237
18105TIP3   OH275729   6.711   5.844   0.124 -0.2988 -0.6695  0.6628
18105TIP3    H175730   6.685   5.756   0.149 -0.8507 -0.6312  0.2335
18105TIP3    H275731   6.630   5.887   0.097  0.3181 -0.8441 -1.5897
18106TIP3   OH275732   4.946   6.066   1.618 -0.3797 -0.3251  0.6396
18106TIP3    H175733   4.891   5.996   1.651  0.1666 -1.0303  0.0593
18106TIP3    H275734   5.002   6.089   1.693  0.5548 -1.6225  0.3516
18107TIP3   OH275735   2.345   3.264  15.646 -0.3595  0.1259 -0.1281
18107TIP3    H175736   2.259   3.273  15.605  0.9314 -0.0638 -2.9845
18107TIP3    H275737   2.405   3.251  15.573  1.9259 -1.1473  1.9106
18108TIP3   OH275738   3.112   5.832  15.281 -0.6117 -0.3088  0.1399
18108TIP3    H175739   3.027   5.851  15.242 -0.3745 -0.4997 -0.4726
18108TIP3    H275740   3.131   5.908  15.336 -0.6634  0.2341 -0.5916
18109TIP3   OH275741   5.020   4.454   5.529 -0.1108 -0.1197  0.2098
18109TIP3    H175742   4.981   4.526   5.578 -0.1915 -0.6351  0.9065
18109TIP3    H275743   4.960   4.381   5.541 -0.8131  0.0907 -1.7227
18110TIP3   OH275744   1.688   0.084   3.610 -0.2679  0.3513  0.4153
18110TIP3    H175745   1.652   0.172   3.606  1.6455  1.0898 -1.8954
18110TIP3    H275746   1.663   0.044   3.526  1.2485 -0.3163  0.2572
18111TIP3   OH275747   3.125   6.531  13.799  0.4862  0.1582  0.0994
18111TIP3    H175748   3.167   6.597  13.855  0.6526  0.2167 -0.0936
18111TIP3    H275749   3.083   6.471  13.860  0.5222  0.3191  0.2837
18112TIP3   OH275750   4.207   5.164  15.581 -0.6059 -0.4216  0.6096
18112TIP3    H175751   4.233   5.072  15.580 -1.9496 -0.8223 -0.3533
18112TIP3    H275752   4.239   5.198  15.497  0.5862  0.1960  1.3172
18113TIP3   OH275753   5.323   3.231  15.734  0.3587 -0.0896 -0.1239
18113TIP3    H175754   5.321   3.320  15.701 -1.7287  0.0953  0.4632
18113TIP3    H275755   5.340   3.240  15.828 -0.0155 -0.3033 -0.0337
18114TIP3   OH275756   2.481   5.283   0.044 -0.9426  0.1480  0.1578
18114TIP3    H175757   2.438   5.206   0.007 -2.4798  0.4780  1.2177
18114TIP3    H275758   2.573   5.274   0.018 -1.0645 -2.1087  0.4242
18115TIP3   OH275759   0.377   2.131  11.499  0.0874 -0.1042  0.2451
18115TIP3    H175760   0.339   2.050  11.465 -0.8172  0.4552 -0.0926
18115TIP3    H275761   0.400   2.111  11.589  1.0545 -1.1234 -0.2145
18116TIP3   OH275762   5.343   3.219  16.801 -0.0633  0.1687  0.2868
18116TIP3    H175763   5.404   3.177  16.862 -1.5748 -0.8856  1.0837
18116TIP3    H275764   5.325   3.305  16.839 -1.1364 -0.5555  1.4199
18117TIP3   OH275765   0.101   2.576   0.080 -0.2745  0.5983  0.2538
18117TIP3    H175766   0.091   2.671   0.071 -0.3927  0.7059  1.5012
18117TIP3    H275767   0.195   2.563   0.091 -0.1673  0.4940 -0.7329
18118TIP3   OH275768   0.133   0.071   6.263 -0.1463  0.9422 -0.5753
18118TIP3    H175769   0.072   0.068   6.336 -1.6625  1.5496 -1.8110
18118TIP3    H275770   0.217   0.042   6.301 -0.9455  1.0952  1.3450
18119TIP3   OH275771   4.435   4.765  10.429  0.3167  0.3488  0.3687
18119TIP3    H175772   4.426   4.803  10.516  0.8927  0.1379  0.5259
18119TIP3    H275773   4.529   4.747  10.420  0.3028  0.6169 -0.4005
18120TIP3   OH275774   3.801   4.231  15.542  0.1040 -0.2743  0.1079
18120TIP3    H175775   3.756   4.231  15.458  1.9106  0.4952 -0.8849
18120TIP3    H275776   3.824   4.323  15.557  0.7800 -0.5669  0.9102
18121TIP3   OH275777   2.687   0.312   5.925 -0.1462  0.1278 -0.1900
18121TIP3    H175778   2.687   0.382   5.861  0.2231  0.4699  0.1803
18121TIP3    H275779   2.728   0.350   6.003  1.2304 -0.8925 -0.4048
18122TIP3   OH275780   5.719   3.543   3.603 -0.2677 -0.4958 -0.6462
18122TIP3    H175781   5.742   3.465   3.553 -1.1937 -0.2657 -1.4451
18122TIP3    H275782   5.782   3.609   3.574  1.0161 -1.1345  0.5970
18123TIP3   OH275783   3.078   4.922  16.545 -0.1902  0.1490 -0.2943
18123TIP3    H175784   3.036   4.852  16.493  2.2255  0.4400 -2.7590
18123TIP3    H275785   3.073   4.999  16.489  0.9549  0.8994  0.6261
18124TIP3   OH275786   2.518   3.800   4.828 -0.2696 -0.4865  0.0467
18124TIP3    H175787   2.512   3.720   4.775 -0.8589 -0.3524 -0.0855
18124TIP3    H275788   2.536   3.869   4.764  0.6267 -0.5657  0.2023
18125TIP3   OH275789   6.738   6.227   5.954 -0.1745  0.8430  0.0594
18125TIP3    H175790   6.763   6.319   5.957 -2.1774  1.4294 -0.2924
18125TIP3    H275791   6.796   6.184   6.016  1.6681  2.1144 -0.7369
18126TIP3   OH275792   2.188   0.442  13.013  0.2203  0.2323 -0.1518
18126TIP3    H175793   2.211   0.374  12.950  0.8056 -0.2063  0.5279
18126TIP3    H275794   2.099   0.421  13.039  0.0004  0.3740 -0.7762
18127TIP3   OH275795   2.225   5.229   0.913  0.0986 -0.3227  0.5865
18127TIP3    H175796   2.130   5.219   0.922 -0.1271 -0.4980 -1.6772
18127TIP3    H275797   2.236   5.315   0.871  0.8339 -1.0665 -0.7719
18128TIP3   OH275798   5.585   0.377  15.741 -0.2121 -0.2710 -0.2185
18128TIP3    H175799   5.639   0.430  15.681  0.9172 -0.3068  0.7359
18128TIP3    H275800   5.584   0.290  15.701  2.1550 -0.7998  0.7435
18129TIP3   OH275801   3.705   2.174  11.945  0.0901  0.0754 -0.0921
18129TIP3    H175802   3.723   2.083  11.922  0.1957  0.5584 -1.9320
18129TIP3    H275803   3.783   2.222  11.918 -0.7062  0.9842 -0.8045
18130TIP3   OH275804   2.097   4.936  16.779 -0.3453  0.7627 -0.4331
18130TIP3    H175805   2.061   5.015  16.820  2.7392  2.7077 -1.3402
18130TIP3    H275806   2.092   4.953  16.685  0.0472 -0.2435 -0.6365
18131TIP3   OH275807   1.338   0.724   2.633  0.0804  0.0905 -0.2730
18131TIP3    H175808   1.260   0.723   2.688  0.8657 -2.2914  0.8945
18131TIP3    H275809   1.320   0.658   2.566  0.0616  1.3525 -1.5179
18132TIP3   OH275810   6.526   1.850   1.000 -0.7639  0.2571 -0.5961
18132TIP3    H175811   6.566   1.936   0.988 -0.7050 -0.0130 -2.6525
18132TIP3    H275812   6.461   1.862   1.069  0.6965  1.4449  0.5802
18133TIP3   OH275813   2.189   4.797  14.810  0.1602  0.0416  0.6247
18133TIP3    H175814   2.257   4.861  14.788 -1.0555  1.0636 -0.2310
18133TIP3    H275815   2.113   4.850  14.833 -0.5424 -1.0937  0.9318
18134TIP3   OH275816   1.486   4.586  11.241 -0.0216 -0.1896 -0.7491
18134TIP3    H175817   1.553   4.621  11.299  0.0058 -0.1860 -0.7822
18134TIP3    H275818   1.530   4.576  11.156 -0.4154  1.0085 -1.0997
18135TIP3   OH275819   3.558   1.932   3.112 -0.0487  0.0942  0.0624
18135TIP3    H175820   3.604   1.961   3.034 -0.1419 -1.7239 -0.7019
18135TIP3    H275821   3.496   1.866   3.080  1.5349 -2.3762  1.9649
18136TIP3   OH275822   1.036   4.363  13.690 -0.1155 -0.0790  0.1278
18136TIP3    H175823   1.069   4.441  13.736 -0.1570  0.1202 -0.1832
18136TIP3    H275824   1.102   4.296  13.708 -0.6648 -0.3103  1.3889
18137TIP3   OH275825   3.053   5.684  15.511 -0.6208 -0.4639  0.4621
18137TIP3    H175826   3.074   5.714  15.422 -0.8916 -1.2411  0.1313
18137TIP3    H275827   3.022   5.763  15.555  1.3772  0.3412  0.4716
18138TIP3   OH275828   1.265   3.902   3.019  0.1142  0.1478 -0.7223
18138TIP3    H175829   1.195   3.839   3.036  0.4234  0.2267  0.9199
18138TIP3    H275830   1.340   3.848   2.992  0.3855 -0.2033  0.6990
18139TIP3   OH275831   0.818   3.244   4.966 -0.0317 -0.2546  0.2407
18139TIP3    H175832   0.769   3.313   5.009  0.6059  0.2020  0.2371
18139TIP3    H275833   0.897   3.286   4.934  0.4038 -1.0029  0.3147
18140TIP3   OH275834   6.410   5.705  15.476 -0.7500 -0.1236  0.0676
18140TIP3    H175835   6.393   5.798  15.459  0.7929  0.1557 -0.0328
18140TIP3    H275836   6.396   5.695  15.570  0.7803  0.6147  0.3975
18141TIP3   OH275837   0.955   0.643   1.631  0.0637  0.2375 -0.0834
18141TIP3    H175838   0.867   0.682   1.635 -0.2746 -0.2599 -1.8822
18141TIP3    H275839   0.951   0.569   1.691 -0.2687  1.0983  0.9845
18142TIP3   OH275840   3.521   6.633   5.214 -0.2602 -0.0967  0.1150
18142TIP3    H175841   3.610   6.604   5.233  0.7131  2.8574  0.3183
18142TIP3    H275842   3.474   6.624   5.297  0.1011 -0.7836  0.2419
18143TIP3   OH275843   4.563   3.151  13.773  0.1777 -0.9492  0.7031
18143TIP3    H175844   4.538   3.076  13.719 -1.5610  0.0991  0.0099
18143TIP3    H275845   4.601   3.112  13.852 -0.1964 -2.5386  0.1154
18144TIP3   OH275846   4.543   2.916   5.709  0.1537  0.0750  0.2962
18144TIP3    H175847   4.563   2.930   5.802  0.7632 -0.3565  0.2335
18144TIP3    H275848   4.617   2.954   5.663  0.3676 -0.6686  0.0254
18145TIP3   OH275849   6.310   0.538  12.901 -0.1090  0.4450 -0.2092
18145TIP3    H175850   6.400   0.511  12.880 -0.4417  1.0789 -2.6108
18145TIP3    H275851   6.279   0.472  12.962  1.7499 -0.1849  0.0968
18146TIP3   OH275852   5.553   1.715  14.967 -0.0766 -0.8531  0.2600
18146TIP3    H175853   5.596   1.633  14.944  0.3513 -0.3381 -0.7954
18146TIP3    H275854   5.495   1.692  15.040  2.8687 -1.3291  2.5574
18147TIP3   OH275855   3.336   4.547   5.899  0.2075 -0.6026  0.5175
18147TIP3    H175856   3.248   4.514   5.878  0.9718 -1.7692 -0.9519
18147TIP3    H275857   3.338   4.549   5.995 -2.3983  2.1781  0.5889
18148TIP3   OH275858   5.906   5.937  17.211 -0.2190  0.2213 -0.1764
18148TIP3    H175859   5.945   6.009  17.161 -0.6383  1.2826  1.0111
18148TIP3    H275860   5.975   5.912  17.273  0.1623 -0.8422 -1.0205
18149TIP3   OH275861   4.199   1.743  16.449  0.2536  0.0355 -0.3571
18149TIP3    H175862   4.198   1.839  16.453 -0.1280  0.0918 -1.4955
18149TIP3    H275863   4.119   1.720  16.401 -0.4712 -0.9422  1.2665
18150TIP3   OH275864   0.610   3.052  13.024  0.3238 -0.0625  0.1865
18150TIP3    H175865   0.521   3.048  12.987  0.3385  0.1138  0.1315
18150TIP3    H275866   0.637   3.143  13.012  0.5917 -0.1633  0.0229
18151TIP3   OH275867   2.730   3.180  13.091  0.5783 -0.1082  0.5476
18151TIP3    H175868   2.759   3.146  13.176 -0.9948 -1.5537  0.5253
18151TIP3    H275869   2.805   3.167  13.033  0.0802 -3.5398  0.5679
18152TIP3   OH275870   5.458   3.416  12.084  0.5527  0.3222  0.3744
18152TIP3    H175871   5.520   3.386  12.151 -0.7007  0.5387  1.6399
18152TIP3    H275872   5.457   3.346  12.019  1.6697  0.0486  0.6424
18153TIP3   OH275873   3.645   5.374   2.617 -0.2812 -0.1095 -0.6614
18153TIP3    H175874   3.646   5.287   2.658 -0.0896  0.0430 -0.3435
18153TIP3    H275875   3.607   5.432   2.684  0.6266  0.2585 -0.4605
18154TIP3   OH275876   5.920   6.145   3.409  0.0529 -0.0575  0.3910
18154TIP3    H175877   5.991   6.128   3.348  0.0114 -0.4451  0.4511
18154TIP3    H275878   5.847   6.173   3.353  0.6904  1.7535  0.4515
18155TIP3   OH275879   1.003   1.207   2.933 -0.3258 -0.1228 -0.5305
18155TIP3    H175880   1.026   1.165   2.850  1.8436  0.3341 -0.1879
18155TIP3    H275881   1.016   1.139   2.998 -0.4354  0.0020 -0.3776
18156TIP3   OH275882   3.170   0.081  17.194  0.0884  0.2521  0.6159
18156TIP3    H175883   3.178  -0.009  17.227 -0.9571  0.0201  0.2518
18156TIP3    H275884   3.077   0.090  17.172  0.1866  1.4382  0.6908
18157TIP3   OH275885   0.816   1.800   5.877 -0.1062  0.2831 -0.0448
18157TIP3    H175886   0.882   1.775   5.942 -0.6769 -1.0691  0.0273
18157TIP3    H275887   0.747   1.734   5.887 -0.4513  0.4034 -1.6362
18158TIP3   OH275888   5.795   0.569  12.733  0.3689 -0.6767 -0.3949
18158TIP3    H175889   5.716   0.516  12.735  1.0603 -1.7037 -0.0525
18158TIP3    H275890   5.836   0.554  12.818 -0.5545  2.1615  0.6270
18159TIP3   OH275891   3.104   2.610   5.520  0.3874 -0.2916  0.1712
18159TIP3    H175892   3.142   2.541   5.574  1.6611 -0.2225 -0.6178
18159TIP3    H275893   3.042   2.565   5.463 -1.2233 -0.3195  1.8921
18160TIP3   OH275894   6.325   6.023  16.087  0.0679  0.4318 -0.0360
18160TIP3    H175895   6.270   6.078  16.143  1.2267  1.8898 -0.3086
18160TIP3    H275896   6.267   5.999  16.014 -0.3597  1.5803 -0.0885
18161TIP3   OH275897   5.292   6.293  12.940 -0.3925  0.0623 -0.0292
18161TIP3    H175898   5.347   6.251  12.874  0.5445 -0.0243  0.7874
18161TIP3    H275899   5.248   6.364  12.893  1.6008  1.1176 -0.3590
18162TIP3   OH275900   0.960   2.900   6.197 -0.0524  0.2752 -0.3334
18162TIP3    H175901   0.908   2.906   6.277  0.2372 -3.4399  0.2060
18162TIP3    H275902   1.028   2.967   6.209 -0.6654  0.5516  2.0176
18163TIP3   OH275903   6.744   5.704   5.757 -0.4834  0.2915  0.8282
18163TIP3    H175904   6.774   5.789   5.725 -1.3224  0.8693  1.5501
18163TIP3    H275905   6.803   5.682   5.828 -0.4398  0.3979  0.8233
18164TIP3   OH275906   1.000   5.270  16.235  0.0727  0.0098 -0.0264
18164TIP3    H175907   1.062   5.199  16.225  0.7690  0.6777 -0.5181
18164TIP3    H275908   1.049   5.349  16.211 -0.9942  0.5299 -0.5749
18165TIP3   OH275909   1.558   4.411  17.007  0.5807  0.2146 -0.3689
18165TIP3    H175910   1.533   4.459  16.928 -0.8544  0.3196  0.1346
18165TIP3    H275911   1.545   4.473  17.079 -1.8025 -1.0517  0.3498
18166TIP3   OH275912   0.239   4.090   3.195  0.4313 -0.2647 -0.0472
18166TIP3    H175913   0.267   4.148   3.125  1.1468 -1.7380 -1.0021
18166TIP3    H275914   0.143   4.085   3.186  0.3529  0.8067  0.0997
18167TIP3   OH275915   1.722   2.767   3.407 -0.1012  0.1599  0.4523
18167TIP3    H175916   1.812   2.734   3.407  0.0404  0.5511 -0.3850
18167TIP3    H275917   1.730   2.858   3.436 -0.1992  0.2615  0.1617
18168TIP3   OH275918   0.838   1.149   6.259 -0.5077  0.0243  0.0365
18168TIP3    H175919   0.924   1.116   6.233 -1.2212 -0.0070 -2.4161
18168TIP3    H275920   0.814   1.097   6.335  0.6201 -1.5857 -0.6902
18169TIP3   OH275921   5.585   5.153  13.386 -0.2758 -1.1553 -0.2783
18169TIP3    H175922   5.675   5.134  13.357 -0.4527 -0.8123 -1.0908
18169TIP3    H275923   5.537   5.165  13.304 -0.1948  2.6080  0.1417
18170TIP3   OH275924   2.090   4.942  13.911  0.0931  0.2135 -0.2866
18170TIP3    H175925   2.064   5.033  13.904  2.2325  0.8780 -0.0016
18170TIP3    H275926   2.044   4.909  13.988 -0.1408  1.2442  0.0145
18171TIP3   OH275927   5.237   4.991   1.728 -0.0200 -0.0191  0.0074
18171TIP3    H175928   5.242   4.898   1.748 -0.8595 -0.2558 -0.8879
18171TIP3    H275929   5.317   5.028   1.766  1.2551 -1.4109 -1.2736
18172TIP3   OH275930   5.131   5.304   2.900 -0.3968  0.3688  0.6141
18172TIP3    H175931   5.056   5.247   2.884  0.0111 -0.1984  0.7255
18172TIP3    H275932   5.203   5.244   2.921  0.1563  0.8932  0.2337
18173TIP3   OH275933   6.437   5.440   4.350 -0.3503  0.0692  0.2672
18173TIP3    H175934   6.400   5.507   4.407 -0.2417  1.7782 -1.6213
18173TIP3    H275935   6.361   5.395   4.313 -0.5368  1.4926 -1.1552
18174TIP3   OH275936   3.976   5.846   2.275 -0.6471  0.0747  0.5616
18174TIP3    H175937   4.057   5.800   2.252 -0.5122  0.9957 -0.8840
18174TIP3    H275938   3.948   5.805   2.357  1.2887 -0.2258  1.1074
18175TIP3   OH275939   6.723   5.479   4.317 -0.2521  0.2275 -0.3178
18175TIP3    H175940   6.631   5.470   4.340 -0.3454 -1.5399 -1.2632
18175TIP3    H275941   6.731   5.568   4.282 -1.9068 -0.0656 -1.5157
18176TIP3   OH275942   0.973   1.296   0.178 -0.6244  0.7189  0.0810
18176TIP3    H175943   0.922   1.365   0.135 -0.6271  0.5456 -0.1924
18176TIP3    H275944   0.957   1.311   0.272 -2.1793 -0.0854 -0.0362
18177TIP3   OH275945   6.085   0.330   1.255 -0.0608 -0.2194  0.0793
18177TIP3    H175946   6.056   0.416   1.226  1.0689  0.2087  0.1734
18177TIP3    H275947   6.126   0.291   1.177 -0.1354 -0.4709  0.1655
18178TIP3   OH275948   1.221   3.349  13.808 -0.4327 -0.2927 -0.2667
18178TIP3    H175949   1.161   3.279  13.783  0.1511 -0.3405 -1.5853
18178TIP3    H275950   1.169   3.429  13.804 -1.2956 -0.7014  1.9398
18179TIP3   OH275951   4.954   3.580   2.473 -0.0567  0.5225 -0.0938
18179TIP3    H175952   4.888   3.526   2.517 -1.6115  2.5146  0.1203
18179TIP3    H275953   5.034   3.567   2.523  0.5043 -4.0545 -1.9353
18180TIP3   OH275954   1.743   0.385  11.344 -0.6582  0.3405 -0.3817
18180TIP3    H175955   1.798   0.382  11.266  0.0367 -1.2570  0.1540
18180TIP3    H275956   1.685   0.460  11.330 -0.8533 -0.2012 -2.6406
18181TIP3   OH275957   4.334   5.775   5.459  0.6618 -0.0621  0.3070
18181TIP3    H175958   4.420   5.742   5.483  0.1987 -1.1498  0.4834
18181TIP3    H275959   4.307   5.829   5.534  0.3562 -1.3000  1.0922
18182TIP3   OH275960   0.470   0.749   3.634  0.4650 -0.3155 -0.2207
18182TIP3    H175961   0.421   0.669   3.612  1.1630 -0.3125 -1.8345
18182TIP3    H275962   0.561   0.720   3.640  0.5265  0.0723  0.6944
18183TIP3   OH275963   2.966   3.064  15.265 -0.8406  0.3421  0.2265
18183TIP3    H175964   2.979   3.111  15.183 -0.0483  0.5111  0.4513
18183TIP3    H275965   2.961   3.132  15.332 -0.6569  0.1622  0.4274
18184TIP3   OH275966   6.730   2.968  14.114 -0.4200 -0.7505  0.3832
18184TIP3    H175967   6.736   3.037  14.180  0.2247 -1.0963  0.6888
18184TIP3    H275968   6.784   3.000  14.041 -0.9598 -0.4633  0.1108
18185TIP3   OH275969   6.447   1.013   2.484  0.1215 -0.0940  0.1562
18185TIP3    H175970   6.412   1.015   2.395  2.5144 -1.1469 -0.8317
18185TIP3    H275971   6.484   1.100   2.498  1.3585 -0.5096 -0.5396
18186TIP3   OH275972   2.629   6.295  14.000  0.2954  0.0400  0.0826
18186TIP3    H175973   2.677   6.373  14.030  0.5134 -0.1448  0.2204
18186TIP3    H275974   2.660   6.282  13.910  1.0065 -0.4668  0.3945
18187TIP3   OH275975   3.572   0.663  14.336  0.1581  0.7370  0.1261
18187TIP3    H175976   3.505   0.643  14.270  1.2941  0.9913 -1.1089
18187TIP3    H275977   3.536   0.627  14.417  0.4594 -2.9821 -1.3080
18188TIP3   OH275978   1.974   4.034   2.901 -0.7547 -0.3035  0.5546
18188TIP3    H175979   1.983   4.100   2.970 -0.0524 -0.0971  0.2655
18188TIP3    H275980   1.961   4.085   2.821  0.3729 -0.5059  0.2458
18189TIP3   OH275981   1.003   6.477   1.275 -0.3741 -0.3601  0.8191
18189TIP3    H175982   1.028   6.497   1.184 -0.3969 -1.9004  0.4683
18189TIP3    H275983   0.928   6.418   1.267  1.8603 -3.4449  1.7651
18190TIP3   OH275984   0.665   2.506  15.130  0.4309  0.0623  0.0339
18190TIP3    H175985   0.630   2.437  15.185 -0.0209 -0.7282 -1.2469
18190TIP3    H275986   0.756   2.479  15.113  0.2135 -0.2949 -0.5781
18191TIP3   OH275987   5.591   3.603   4.062  0.0243 -0.8826  0.1478
18191TIP3    H175988   5.500   3.628   4.071 -0.5321 -2.3123 -1.2031
18191TIP3    H275989   5.619   3.641   3.979  1.4711  1.7608  1.7490
18192TIP3   OH275990   0.522   2.625   4.898 -0.3972 -0.0773  0.0358
18192TIP3    H175991   0.599   2.587   4.940 -1.9404 -0.8051  2.3151
18192TIP3    H275992   0.500   2.564   4.828  0.1834 -0.6668  0.3564
18193TIP3   OH275993   6.052   4.092   0.480 -0.4010  0.6032  0.1343
18193TIP3    H175994   6.069   4.059   0.568 -0.5491 -1.0260 -0.4254
18193TIP3    H275995   6.139   4.101   0.440 -0.4522 -0.9127 -0.3355
18194TIP3   OH275996   5.008   3.883   0.523  0.2315 -0.0552 -0.5623
18194TIP3    H175997   4.992   3.915   0.434 -0.2996 -1.7829 -1.0993
18194TIP3    H275998   4.929   3.906   0.571  1.1559  2.3149 -0.0962
18195TIP3   OH275999   6.713   2.664  15.328  0.3225  0.0064 -0.2870
18195TIP3    H176000   6.707   2.577  15.367  1.3511 -0.0675 -0.2700
18195TIP3    H276001   6.625   2.700  15.335  0.3309 -0.2739  1.4780
18196TIP3   OH276002   1.796   0.628  11.103  0.8323  0.2969 -0.0649
18196TIP3    H176003   1.805   0.683  11.181  0.5113 -1.6508  1.3970
18196TIP3    H276004   1.854   0.553  11.120 -1.6756 -1.7489 -0.2192
18197TIP3   OH276005   6.551   5.396  17.179 -0.2768  0.1840 -0.4260
18197TIP3    H176006   6.522   5.305  17.186 -1.0741  0.4436 -0.3018
18197TIP3    H276007   6.551   5.414  17.085 -2.0785  0.6709 -0.3461
18198TIP3   OH276008   4.067   5.296   6.359  0.2406  0.5691 -0.4679
18198TIP3    H176009   4.081   5.211   6.318 -0.8058  0.3124 -0.3044
18198TIP3    H276010   3.983   5.325   6.326  1.1905  2.1581 -1.5410
18199TIP3   OH276011   5.626   4.568  14.677  0.2639  0.2232  0.0309
18199TIP3    H176012   5.706   4.554  14.627  0.3600  1.9051 -0.3310
18199TIP3    H276013   5.628   4.501  14.745  1.1096 -0.8417 -1.0109
18200TIP3   OH276014   5.370   4.295  11.145  0.2019  0.1002  0.2340
18200TIP3    H176015   5.309   4.327  11.078  0.1741  0.7297  0.5537
18200TIP3    H276016   5.343   4.340  11.225 -0.1509 -1.1237  0.8087
18201TIP3   OH276017   6.329   2.427   4.411  0.3184  0.1866  0.3206
18201TIP3    H176018   6.345   2.473   4.329  0.2107  2.5501  1.5882
18201TIP3    H276019   6.376   2.477   4.477 -2.0180  0.0555  2.1714
18202TIP3   OH276020   0.636   1.370   3.035 -0.2335  0.1100 -0.5267
18202TIP3    H176021   0.717   1.406   3.071 -0.7300  1.1154 -0.4074
18202TIP3    H276022   0.605   1.309   3.102  1.2326 -1.4590 -1.2424
18203TIP3   OH276023   5.654   2.640  12.102 -0.6269 -0.5492  0.3832
18203TIP3    H176024   5.575   2.598  12.066 -0.4911 -1.6405  1.3375
18203TIP3    H276025   5.622   2.721  12.142 -1.2680 -0.9710  0.7354
18204TIP3   OH276026   6.043   6.018  13.734 -0.0294 -0.0009  0.2024
18204TIP3    H176027   6.097   6.093  13.759 -1.1999  0.3993  1.5936
18204TIP3    H276028   6.106   5.950  13.708  1.1151  0.6644  1.1860
18205TIP3   OH276029   4.082   3.722   3.671 -0.1178 -0.5340 -0.0573
18205TIP3    H176030   4.096   3.642   3.722  0.4927 -0.5801 -0.2912
18205TIP3    H276031   4.163   3.733   3.622 -0.5258 -0.2298 -0.6650
18206TIP3   OH276032   6.507   1.340   2.777  0.0692  0.1028  0.2988
18206TIP3    H176033   6.425   1.292   2.788  0.9356 -1.5154 -0.2042
18206TIP3    H276034   6.548   1.301   2.700  1.8584  0.1017  1.2256
18207TIP3   OH276035   0.598   0.750  12.715  0.0039 -0.0002 -0.1356
18207TIP3    H176036   0.652   0.824  12.743  2.4451 -1.4075 -0.8928
18207TIP3    H276037   0.617   0.742  12.621  0.2859 -1.9765  0.0779
18208TIP3   OH276038   0.616   5.631  14.574 -0.8480  0.5754 -0.0927
18208TIP3    H176039   0.674   5.681  14.517 -0.9422  0.1556 -0.5687
18208TIP3    H276040   0.607   5.684  14.653  2.0874 -0.4816  0.9811
18209TIP3   OH276041   3.530   5.413  16.095 -0.1867  0.3131 -0.7614
18209TIP3    H176042   3.606   5.452  16.138  1.1477 -1.6691 -1.2546
18209TIP3    H276043   3.512   5.333  16.145 -0.8468 -0.1480 -1.7079
18210TIP3   OH276044   5.760   1.348  16.033  0.5052 -0.2749  0.5631
18210TIP3    H176045   5.827   1.282  16.053 -0.8797 -1.6268  0.7799
18210TIP3    H276046   5.775   1.369  15.940 -0.0798 -2.1203  0.0249
18211TIP3   OH276047   3.117   3.130   3.296  0.2203 -0.4218 -0.3845
18211TIP3    H176048   3.159   3.177   3.224 -0.5850 -1.8493 -1.8110
18211TIP3    H276049   3.189   3.088   3.342  1.0940  3.0043  1.5882
18212TIP3   OH276050   2.874   6.363   2.893  0.3533  0.3051  0.9524
18212TIP3    H176051   2.884   6.446   2.847  1.0645 -0.6047 -0.5987
18212TIP3    H276052   2.783   6.361   2.922 -0.6203  0.1427 -1.9822
18213TIP3   OH276053   0.441   4.869  15.597  0.2859  0.0027  0.5349
18213TIP3    H176054   0.389   4.838  15.523  1.4337 -0.7249  0.0303
18213TIP3    H276055   0.453   4.792  15.652  1.3418  0.0204  0.3387
18214TIP3   OH276056   3.325   1.052   5.962 -0.1183  0.0601 -0.3729
18214TIP3    H176057   3.360   0.977   6.009  0.5443  0.9689  0.6010
18214TIP3    H276058   3.248   1.079   6.012 -0.6191 -0.2225 -0.9689
18215TIP3   OH276059   0.075   6.205   4.149  0.3434 -0.0300 -0.2289
18215TIP3    H176060  -0.004   6.162   4.181  0.1465  0.3652 -0.1749
18215TIP3    H276061   0.129   6.215   4.227 -0.0110  0.6658 -0.0676
18216TIP3   OH276062   5.867   1.326   5.402  0.1773  0.0807  0.1738
18216TIP3    H176063   5.881   1.232   5.409 -0.8063  0.1330  3.9790
18216TIP3    H276064   5.954   1.363   5.393  0.7459 -1.0560  0.9133
18217TIP3   OH276065   0.170   6.355  13.745 -0.4986 -0.1592 -0.2363
18217TIP3    H176066   0.221   6.426  13.707 -0.2429 -0.5963 -0.7125
18217TIP3    H276067   0.079   6.379  13.727 -0.5903  1.7823  2.6603
18218TIP3   OH276068   2.989   2.313   4.197  0.7519 -0.7358 -0.3368
18218TIP3    H176069   3.066   2.310   4.140 -0.8329  1.3930 -2.6587
18218TIP3    H276070   2.925   2.257   4.154 -0.1968  0.2620 -0.2375
18219TIP3   OH276071   1.774   3.669   1.823  0.6147 -0.2284 -0.0066
18219TIP3    H176072   1.776   3.716   1.907  0.6826 -0.9385  0.3943
18219TIP3    H276073   1.736   3.584   1.844  1.3459 -0.6979 -0.5451
18220TIP3   OH276074   5.278   6.596   5.305 -0.3596  0.4186  0.4717
18220TIP3    H176075   5.281   6.681   5.262 -1.9965  0.4523  0.4030
18220TIP3    H276076   5.242   6.615   5.392  1.4420  0.1189  1.3154
18221TIP3   OH276077   1.988   2.075   4.772  0.1649 -0.1558 -0.9701
18221TIP3    H176078   2.011   1.983   4.759  0.6146 -0.0747 -0.7483
18221TIP3    H276079   1.960   2.104   4.685 -0.5775 -0.6647 -0.9129
18222TIP3   OH276080   0.164   3.676   1.150  0.1190 -0.5633 -0.3909
18222TIP3    H176081   0.139   3.744   1.088 -1.7504  0.5226  1.4977
18222TIP3    H276082   0.258   3.666   1.139 -0.0140  0.4520 -2.5432
18223TIP3   OH276083   1.634   6.718  11.537 -0.0868 -0.2571 -0.1026
18223TIP3    H176084   1.561   6.705  11.598 -0.0629 -2.8245 -0.5861
18223TIP3    H276085   1.618   6.805  11.499 -2.3413 -0.3700  0.5263
18224TIP3   OH276086   5.270   4.503  15.746 -0.7613  0.0927 -0.0283
18224TIP3    H176087   5.285   4.534  15.835 -2.1685 -0.3438  0.3724
18224TIP3    H276088   5.243   4.581  15.698  0.1521  0.3587 -0.1135
18225TIP3   OH276089   4.268   4.681  13.365  0.2230 -0.0067  0.3663
18225TIP3    H176090   4.267   4.729  13.283  0.0971  0.3040  0.5469
18225TIP3    H276091   4.282   4.590  13.340 -3.1991 -0.4259 -0.2754
18226TIP3   OH276092   1.447   2.382  15.778 -0.4029  0.1992  0.1257
18226TIP3    H176093   1.489   2.311  15.731 -0.8707 -0.2290  0.3497
18226TIP3    H276094   1.513   2.412  15.841 -0.8824 -1.3812  1.4226
18227TIP3   OH276095   1.264   0.439  14.934 -0.1984 -0.8278 -0.2698
18227TIP3    H176096   1.272   0.351  14.972 -0.7107 -0.9596 -0.4740
18227TIP3    H276097   1.294   0.429  14.844  0.4685 -0.6327 -0.0741
18228TIP3   OH276098   1.743   0.193  15.927  0.2143  0.0894 -0.5881
18228TIP3    H176099   1.716   0.244  16.003  1.9981  0.9891 -0.5463
18228TIP3    H276100   1.763   0.258  15.860 -1.4293 -0.6985 -1.8860
18229TIP3   OH276101   0.983   2.199   2.110  0.1173  0.1606  0.5567
18229TIP3    H176102   0.949   2.161   2.029 -3.0507  1.3190  1.2729
18229TIP3    H276103   1.007   2.123   2.164 -0.9602 -0.6954 -0.1506
18230TIP3   OH276104   5.304   2.389  14.967 -0.0893  0.1401  0.6210
18230TIP3    H176105   5.241   2.338  14.915 -0.4752  0.6059  0.6303
18230TIP3    H276106   5.264   2.475  14.974  1.2718  0.8863 -0.6453
18231TIP3   OH276107   3.682   0.152   5.018 -0.7125 -0.0628  0.3546
18231TIP3    H176108   3.693   0.111   4.932 -1.4455 -0.1626  0.3025
18231TIP3    H276109   3.724   0.238   5.009  0.3625 -0.5796  0.3042
18232TIP3   OH276110   2.104   6.374  13.846  0.0494  0.8057 -0.5579
18232TIP3    H176111   2.038   6.430  13.804  0.8746  0.5484 -2.2641
18232TIP3    H276112   2.053   6.312  13.898 -0.9859  1.6347 -0.5601
18233TIP3   OH276113   1.338   0.590   3.373  0.0321  0.6867  0.3410
18233TIP3    H176114   1.424   0.567   3.338 -0.3927  0.4067 -0.5324
18233TIP3    H276115   1.311   0.514   3.423 -0.1753  0.3413 -0.2856
18234TIP3   OH276116   4.708   4.705  14.744  0.1525 -0.7687  0.1239
18234TIP3    H176117   4.708   4.686  14.838  0.2119 -0.1156  0.2594
18234TIP3    H276118   4.622   4.678  14.714 -0.1953 -0.1240  0.5434
18235TIP3   OH276119   1.015   3.418  13.338 -0.1342 -0.2540  0.0208
18235TIP3    H176120   1.032   3.450  13.427 -0.7246  0.4576 -0.1142
18235TIP3    H276121   0.961   3.340  13.351 -1.0652  0.4159  0.2627
18236TIP3   OH276122   3.911   5.674  16.956  0.1919 -0.7153 -0.1566
18236TIP3    H176123   4.004   5.655  16.967  0.2467 -1.0750 -1.2475
18236TIP3    H276124   3.909   5.746  16.893 -0.1560  0.9448  1.6995
18237TIP3   OH276125   4.855   0.658  11.661  0.0320 -0.2615  0.3856
18237TIP3    H176126   4.913   0.595  11.618  2.8396  2.0548  0.6312
18237TIP3    H276127   4.814   0.706  11.588  1.7338  0.9747  0.2184
18238TIP3   OH276128   6.156   5.231   3.136  0.0704 -0.1763  0.1547
18238TIP3    H176129   6.150   5.136   3.146 -0.2684 -0.3877 -1.8415
18238TIP3    H276130   6.224   5.244   3.070 -2.0026  0.8207 -1.8339
18239TIP3   OH276131   5.951   3.341  16.468 -0.4211 -0.7242 -0.0654
18239TIP3    H176132   5.991   3.336  16.382  1.5035  0.0233  0.7601
18239TIP3    H276133   5.954   3.251  16.502 -0.5360 -0.8839 -0.4825
18240TIP3   OH276134   1.748   3.066  12.247 -0.1215 -0.1398 -0.1462
18240TIP3    H176135   1.717   3.150  12.281  2.2679  0.0410  1.7460
18240TIP3    H276136   1.721   3.002  12.313  1.3654 -0.3104  0.3108
18241TIP3   OH276137   6.411   0.772   0.326  0.1537  0.0990 -0.4323
18241TIP3    H176138   6.487   0.716   0.340 -0.2114  0.0690  1.5686
18241TIP3    H276139   6.447   0.856   0.296  0.9482  0.0096  0.2758
18242TIP3   OH276140   6.678   3.242   5.044 -0.9566 -0.2927 -0.1961
18242TIP3    H176141   6.719   3.281   5.121  0.4728  0.2880 -1.2334
18242TIP3    H276142   6.649   3.317   4.992  0.3052 -0.6209 -1.3981
18243TIP3   OH276143   4.862   5.308  10.882  0.0466 -0.6989 -0.2735
18243TIP3    H176144   4.936   5.285  10.826  1.8813  0.5630  1.5606
18243TIP3    H276145   4.822   5.384  10.839  1.5082  0.3314  0.1588
18244TIP3   OH276146   2.827   5.901   2.993 -0.3534  0.2075 -0.0130
18244TIP3    H176147   2.880   5.830   2.957  0.2959  0.3029  0.7199
18244TIP3    H276148   2.837   5.973   2.931  1.8740  0.8358  1.0055
18245TIP3   OH276149   4.098   5.438   2.355  0.1067 -0.3262  0.4893
18245TIP3    H176150   4.034   5.456   2.423  0.1885 -1.0773  0.7698
18245TIP3    H276151   4.135   5.524   2.333 -0.9075  0.0935  0.4036
18246TIP3   OH276152   1.334   3.241  14.254 -0.6128  0.4860  0.0116
18246TIP3    H176153   1.414   3.244  14.307 -0.3108 -2.3966 -0.2063
18246TIP3    H276154   1.365   3.232  14.164 -1.1764 -1.1522 -0.0283
18247TIP3   OH276155   4.982   2.691  14.147  0.3050 -0.0655 -0.6479
18247TIP3    H176156   4.899   2.718  14.107 -0.8159 -0.6706  1.1991
18247TIP3    H276157   5.026   2.773  14.169 -0.1962  0.2574 -0.8406
18248TIP3   OH276158   2.258   1.664  11.424 -0.5212  0.2732  0.1050
18248TIP3    H176159   2.247   1.570  11.437 -2.0156  0.3237 -0.7291
18248TIP3    H276160   2.271   1.674  11.329  0.9469  0.7985  0.3363
18249TIP3   OH276161   3.645   2.004   3.346 -0.2415  0.5280  0.3598
18249TIP3    H176162   3.653   1.948   3.269  0.9195  1.6238 -0.3405
18249TIP3    H276163   3.565   2.055   3.331 -1.8002 -1.5355  1.4246
18250TIP3   OH276164   2.308   1.815  15.029  0.0513  0.8630  0.2033
18250TIP3    H176165   2.353   1.748  14.978 -0.9429 -0.4421  1.0061
18250TIP3    H276166   2.378   1.873  15.059  1.1532 -0.7580  0.8860
18251TIP3   OH276167   5.162   0.631  13.680  0.2893  0.0486  0.2548
18251TIP3    H176168   5.213   0.586  13.747  0.2569  0.0689  0.2927
18251TIP3    H276169   5.191   0.722  13.685  1.2639 -0.2047 -0.6626
18252TIP3   OH276170   2.643   6.617  12.277  0.5688  0.1559 -0.0993
18252TIP3    H176171   2.551   6.592  12.290  0.0303  2.0078 -0.2402
18252TIP3    H276172   2.643   6.666  12.195  1.8722 -0.7701 -0.6652
18253TIP3   OH276173   5.574   3.320  14.143  0.6034  0.4256 -0.3483
18253TIP3    H176174   5.633   3.380  14.188  0.5996 -1.4326  2.2181
18253TIP3    H276175   5.486   3.343  14.175  0.1041  1.7991 -2.5714
18254TIP3   OH276176   2.566   0.737   4.121 -0.2310 -0.2193  0.6224
18254TIP3    H176177   2.652   0.698   4.109 -0.3699 -0.3414 -0.0089
18254TIP3    H276178   2.508   0.662   4.137 -0.2841 -0.1678  0.6724
18255TIP3   OH276179   0.976   6.127   5.721 -0.0291 -0.1150 -0.4648
18255TIP3    H176180   1.029   6.088   5.790 -0.2655  1.5686  0.6718
18255TIP3    H276181   1.039   6.153   5.654  0.2945 -0.8178 -0.4353
18256TIP3   OH276182   5.907   3.554   5.236  0.0902 -0.4050 -0.7364
18256TIP3    H176183   5.932   3.561   5.143 -1.1534 -1.1094 -1.1270
18256TIP3    H276184   5.838   3.489   5.238  1.0586 -1.4167  0.8937
18257TIP3   OH276185   3.207   5.529   3.854  0.6786  0.4104 -0.8077
18257TIP3    H176186   3.169   5.528   3.942  0.4207  1.1139 -0.9154
18257TIP3    H276187   3.252   5.444   3.848 -1.1635 -0.5997 -0.8274
18258TIP3   OH276188   3.257   1.093   4.990  0.2413  0.5031  0.3753
18258TIP3    H176189   3.205   1.117   5.067 -1.8394 -0.2753 -0.7517
18258TIP3    H276190   3.309   1.171   4.971  0.9064  0.6529  2.6395
18259TIP3   OH276191   2.064   1.404   4.860 -0.3876 -0.0826  0.1578
18259TIP3    H176192   1.989   1.421   4.917 -0.6861  0.5364 -0.4226
18259TIP3    H276193   2.118   1.482   4.868  0.9352 -1.1150  1.7134
18260TIP3   OH276194   2.414   6.449  11.437  0.5085 -0.3353 -0.1943
18260TIP3    H176195   2.459   6.376  11.395 -1.0298 -0.1379 -2.2727
18260TIP3    H276196   2.325   6.446  11.402  0.6390  3.0734 -1.0757
18261TIP3   OH276197   4.745   4.088  12.504 -0.0197  0.2341 -0.0870
18261TIP3    H176198   4.797   4.044  12.571  0.0858  1.9744  1.0117
18261TIP3    H276199   4.701   4.017  12.458  1.2702 -1.1051  0.6780
18262TIP3   OH276200   1.574   5.078   1.870 -0.4158 -0.5356  0.1280
18262TIP3    H176201   1.605   5.085   1.960 -1.4387  1.4447  0.3590
18262TIP3    H276202   1.620   5.001   1.834  0.4007 -1.0200  2.1502
18263TIP3   OH276203   0.105   5.352   3.733 -0.5953  0.3984 -0.2828
18263TIP3    H176204   0.051   5.404   3.791 -0.2718  0.4339 -0.0120
18263TIP3    H276205   0.195   5.378   3.754 -0.4258 -0.3262 -0.0823
18264TIP3   OH276206   6.213   4.500  17.159 -0.3576 -0.3553 -0.6709
18264TIP3    H176207   6.193   4.486  17.067 -1.5742  0.3087 -0.5221
18264TIP3    H276208   6.148   4.448  17.206  0.7604 -1.3425 -0.1779
18265TIP3   OH276209   1.505   2.390   3.680  0.2080 -0.3558 -0.8289
18265TIP3    H176210   1.544   2.367   3.765 -0.4536  1.5590  0.0173
18265TIP3    H276211   1.521   2.484   3.670 -1.6667 -0.1054 -1.7788
18266TIP3   OH276212   0.769   0.144   2.415  0.7927  0.3872 -0.4258
18266TIP3    H176213   0.793   0.172   2.327 -1.9888  0.0275 -1.3163
18266TIP3    H276214   0.833   0.075   2.437  1.4716  0.4585 -2.1457
18267TIP3   OH276215   6.784   3.188  17.141 -0.6643 -0.0712 -0.1492
18267TIP3    H176216   6.758   3.201  17.233 -1.4120 -1.2065 -0.1884
18267TIP3    H276217   6.810   3.275  17.111  0.1628  0.2021  1.3216
18268TIP3   OH276218   0.495   2.916  12.003 -0.1081  0.3384  0.4256
18268TIP3    H176219   0.459   3.004  12.012  1.4926  1.5480 -3.6959
18268TIP3    H276220   0.570   2.914  12.063 -0.7902  1.3797  1.3358
18269TIP3   OH276221   5.722   4.888  11.295  0.1428  0.4052 -0.0550
18269TIP3    H176222   5.679   4.963  11.255 -1.6966 -1.9019 -2.5944
18269TIP3    H276223   5.651   4.839  11.337  1.0454 -0.8587  0.0270
18270TIP3   OH276224   2.704   2.646   1.607  0.0217 -0.5341 -0.9021
18270TIP3    H176225   2.624   2.594   1.616  0.5991 -1.2646  0.0960
18270TIP3    H276226   2.771   2.583   1.582  0.9343 -0.4733  1.2616
18271TIP3   OH276227   1.408   6.773   0.808 -0.1063 -0.6849  0.3723
18271TIP3    H176228   1.420   6.852   0.756  0.3342  0.1082  1.6400
18271TIP3    H276229   1.404   6.702   0.744  0.1976  0.2836 -0.7412
18272TIP3   OH276230   3.573   4.298  13.833  0.1195 -0.7842 -0.6079
18272TIP3    H176231   3.625   4.227  13.871  0.8688  0.3208  0.4849
18272TIP3    H276232   3.491   4.296  13.882  0.8488  0.2474  0.6980
18273TIP3   OH276233   3.572   4.741  15.670 -0.3458  0.3412 -0.0167
18273TIP3    H176234   3.606   4.756  15.759 -0.8641 -3.1367  0.8564
18273TIP3    H276235   3.649   4.746  15.614  0.5794 -0.9357  1.1108
18274TIP3   OH276236   5.120   6.215  13.600 -0.2680 -0.1958  0.4263
18274TIP3    H176237   5.036   6.176  13.577 -0.3889 -0.0794  0.6728
18274TIP3    H276238   5.097   6.298  13.642 -0.0518 -0.4930  1.1392
18275TIP3   OH276239   1.450   5.293   6.243  0.0259  0.1669 -0.1692
18275TIP3    H176240   1.381   5.345   6.284 -1.3579  0.2066 -2.4498
18275TIP3    H276241   1.527   5.349   6.243 -0.4435  0.8071  0.7779
18276TIP3   OH276242   4.354   0.246   5.905  0.1148  0.1445 -0.6382
18276TIP3    H176243   4.283   0.263   5.844  0.3151 -1.9060 -1.4826
18276TIP3    H276244   4.319   0.181   5.966  0.8514  0.0508 -0.3065
18277TIP3   OH276245   6.586   3.980  15.883  0.1477  0.5414  0.3650
18277TIP3    H176246   6.583   3.885  15.869  0.0835  0.5141  0.5649
18277TIP3    H276247   6.539   4.017  15.808 -0.6300  0.3711  0.7643
18278TIP3   OH276248   4.832   0.546  12.362 -0.5087  0.0331  0.4493
18278TIP3    H176249   4.816   0.536  12.456 -0.5720  1.9915  0.6690
18278TIP3    H276250   4.921   0.582  12.356  0.7506 -3.1106 -0.4087
18279TIP3   OH276251   3.956   1.682  16.343 -0.1957  0.2871 -0.0880
18279TIP3    H176252   3.947   1.697  16.249 -0.0972  1.8362  0.1498
18279TIP3    H276253   3.879   1.724  16.382 -0.7882 -1.2300  0.4492
18280TIP3   OH276254   5.937   4.334   2.536 -0.2689 -1.1059  0.2767
18280TIP3    H176255   5.955   4.413   2.486 -0.1907 -1.3721 -0.1154
18280TIP3    H276256   5.987   4.345   2.617 -1.0900 -0.2781  0.6863
18281TIP3   OH276257   2.011   6.108  10.967  0.0110 -0.2266 -0.1324
18281TIP3    H176258   2.050   6.045  10.906 -1.7868 -0.5915 -0.9336
18281TIP3    H276259   2.013   6.191  10.920  2.8386  0.4627  1.1145
18282TIP3   OH276260   5.168   5.129  15.717 -0.6326  0.5749  0.4735
18282TIP3    H176261   5.161   5.039  15.750 -0.6036  0.5779  0.4874
18282TIP3    H276262   5.116   5.128  15.636 -0.5062  0.5066  0.3928
18283TIP3   OH276263   1.618   6.078   0.842  0.0162 -0.6809 -0.3167
18283TIP3    H176264   1.560   6.005   0.818  0.8101 -1.0927 -1.0334
18283TIP3    H276265   1.626   6.129   0.761  0.9378 -0.8283 -0.3235
18284TIP3   OH276266   4.000   6.562   3.435 -0.1883  0.4298  0.4784
18284TIP3    H176267   3.973   6.644   3.477  0.7035  0.8296  0.2824
18284TIP3    H276268   3.944   6.555   3.358 -1.0989  0.2402  1.1499
18285TIP3   OH276269   1.761   4.625  14.410  0.3680 -0.3449  0.1025
18285TIP3    H176270   1.828   4.687  14.439  0.3570 -1.1568  1.9955
18285TIP3    H276271   1.809   4.545  14.390  0.2950  0.0194 -1.5607
18286TIP3   OH276272   1.198   1.545  14.693  0.1355  0.4575  0.2018
18286TIP3    H176273   1.264   1.485  14.658 -0.0336  0.3486  0.0669
18286TIP3    H276274   1.120   1.491  14.705 -0.3147  0.8680 -0.8588
18287TIP3   OH276275   5.013   3.847   2.429 -0.1292  0.0741 -0.2953
18287TIP3    H176276   4.956   3.877   2.359  0.8140  0.5715 -0.8531
18287TIP3    H276277   4.986   3.756   2.444  0.7009 -0.5522 -2.3741
18288TIP3   OH276278   5.843   5.169   1.303 -0.3676 -0.3935 -0.2897
18288TIP3    H176279   5.897   5.099   1.265  2.0915  0.3830  1.6645
18288TIP3    H276280   5.876   5.249   1.263 -2.1874 -0.1547 -1.3929
18289TIP3   OH276281   3.966   5.886  13.152  0.0059  0.0552  0.1650
18289TIP3    H176282   4.054   5.916  13.129  0.3596 -2.1449 -1.5724
18289TIP3    H276283   3.979   5.800  13.190 -1.4380 -0.5676 -0.6959
18290TIP3   OH276284   4.450   1.637  13.546  0.1502  0.0286  0.0351
18290TIP3    H176285   4.359   1.635  13.576 -0.0568 -1.0892 -0.6571
18290TIP3    H276286   4.469   1.547  13.519  1.5075  0.2207  0.2915
18291TIP3   OH276287   5.263   1.562  16.231 -0.2443 -0.5246  0.3261
18291TIP3    H176288   5.197   1.607  16.284 -0.2515 -1.0427  0.7623
18291TIP3    H276289   5.213   1.505  16.173 -0.1841 -0.9082  0.6463
18292TIP3   OH276290   0.620   5.899  17.208 -0.1978  0.4642 -0.1283
18292TIP3    H176291   0.550   5.859  17.260 -0.7962 -0.6190 -1.7480
18292TIP3    H276292   0.659   5.826  17.160  0.8876  1.3312 -0.5733
18293TIP3   OH276293   5.087   4.182   5.290 -0.2431  0.4373  0.7032
18293TIP3    H176294   5.059   4.152   5.203  1.2159 -0.5628  0.5598
18293TIP3    H276295   5.038   4.263   5.304 -1.5213 -0.0991 -0.4709
18294TIP3   OH276296   4.811   3.475  13.330  0.6596  0.3194  0.4772
18294TIP3    H176297   4.833   3.487  13.422 -1.1867 -0.1506  0.9999
18294TIP3    H276298   4.794   3.564  13.297 -0.7716  0.3022  1.1453
18295TIP3   OH276299   0.401   3.329  13.187 -0.1159  0.1440 -0.0533
18295TIP3    H176300   0.441   3.365  13.108  0.2052  0.5443  0.2903
18295TIP3    H276301   0.310   3.312  13.163 -0.0545  0.4091 -0.4620
18296TIP3   OH276302   3.767   2.965   4.886 -0.0364  0.4194  0.9668
18296TIP3    H176303   3.825   2.952   4.961 -1.3637 -0.4056  1.8761
18296TIP3    H276304   3.679   2.967   4.924 -0.7620 -0.4405 -0.6142
18297TIP3   OH276305   3.953   0.576   0.740 -0.0513  0.7779 -0.1451
18297TIP3    H176306   3.953   0.486   0.707 -2.0937  0.6957  0.0335
18297TIP3    H276307   4.009   0.624   0.679  0.8263 -0.5363 -0.4108
18298TIP3   OH276308   1.679   5.932  15.355  0.6779  0.3957  0.6164
18298TIP3    H176309   1.644   5.945  15.267  2.7229 -0.0608 -0.2908
18298TIP3    H276310   1.704   6.019  15.384  0.8243  0.4382  0.3691
18299TIP3   OH276311   5.149   2.090  16.576 -0.1134  0.2480  0.3349
18299TIP3    H176312   5.068   2.060  16.535 -0.6174 -0.4424  1.7883
18299TIP3    H276313   5.218   2.050  16.524 -0.7205  0.2437 -0.4781
18300TIP3   OH276314   4.917   3.833  12.995  0.5697  0.2966 -0.2602
18300TIP3    H176315   4.830   3.793  13.006  0.5895  0.5829  1.0582
18300TIP3    H276316   4.900   3.914  12.947  0.2728 -0.2747 -1.1358
18301TIP3   OH276317   3.767   5.228  12.615  0.4066  0.3175  0.0421
18301TIP3    H176318   3.811   5.271  12.542 -1.3523  1.2358 -0.4962
18301TIP3    H276319   3.745   5.299  12.676 -0.8280 -0.0435  0.0352
18302TIP3   OH276320   0.925   3.680   2.875  0.2076  0.0125  0.2178
18302TIP3    H176321   0.875   3.673   2.794 -0.3763 -2.3821  0.7376
18302TIP3    H276322   0.992   3.745   2.857 -0.3700  0.0399 -1.9426
18303TIP3   OH276323   2.656   6.171   1.109 -0.1375 -0.1577 -0.1855
18303TIP3    H176324   2.742   6.147   1.075  0.3229  2.3136 -0.8390
18303TIP3    H276325   2.629   6.095   1.161  1.8741 -1.4655 -0.9945
18304TIP3   OH276326   1.877   1.756   1.188 -0.4508 -0.4905  0.3428
18304TIP3    H176327   1.952   1.815   1.182  0.9444 -2.0752  1.6323
18304TIP3    H276328   1.827   1.787   1.263 -0.7197  0.1357 -0.0882
18305TIP3   OH276329   4.558   0.446  11.244  0.4323 -0.1508 -0.0465
18305TIP3    H176330   4.635   0.389  11.248  0.4261 -0.1480  0.1197
18305TIP3    H276331   4.538   0.452  11.151 -0.5735 -1.7631  0.0488
18306TIP3   OH276332   3.110   4.748   2.708  0.5992 -0.0774  0.1764
18306TIP3    H176333   3.131   4.731   2.617  0.9992  0.9878  0.0566
18306TIP3    H276334   3.017   4.727   2.717  0.4547  0.2449 -0.5839
18307TIP3   OH276335   3.495   2.705  16.402 -0.2551 -0.7764 -0.2313
18307TIP3    H176336   3.564   2.738  16.460 -0.1804  0.6013 -1.0789
18307TIP3    H276337   3.541   2.646  16.341 -0.0255 -0.8108 -0.0244
18308TIP3   OH276338   6.406   0.233   1.207  0.7587  0.1150 -0.6254
18308TIP3    H176339   6.409   0.328   1.221  0.1187 -0.0653  0.8322
18308TIP3    H276340   6.348   0.222   1.132 -0.5099  0.7861  0.2415
18309TIP3   OH276341   4.764   6.677  12.741 -0.0936  0.5289  0.0236
18309TIP3    H176342   4.792   6.702  12.653 -1.4585  1.0798 -0.2639
18309TIP3    H276343   4.761   6.759  12.790 -2.6451  0.7166 -0.3767
18310TIP3   OH276344   6.481   1.245   0.080  0.3798 -0.2353 -0.2608
18310TIP3    H176345   6.473   1.290  -0.004  0.2246 -0.1789 -0.2169
18310TIP3    H276346   6.502   1.315   0.142 -1.7657  0.0857  0.1409
18311TIP3   OH276347   5.573   2.218  14.393  0.2108  0.3983  0.3666
18311TIP3    H176348   5.510   2.269  14.443 -0.9193  0.6928 -1.3433
18311TIP3    H276349   5.574   2.257  14.306  1.0211 -1.0538 -0.3083
18312TIP3   OH276350   4.581   6.655   3.693 -0.8696  0.5275  0.5914
18312TIP3    H176351   4.575   6.712   3.770 -1.4881  1.4173 -0.1087
18312TIP3    H276352   4.675   6.636   3.685 -0.1500  4.3203 -1.2161
18313TIP3   OH276353   1.399   0.902  15.023 -0.3392 -0.5970  0.3373
18313TIP3    H176354   1.344   0.829  14.997  0.9420 -1.3571 -0.3075
18313TIP3    H276355   1.437   0.933  14.940 -3.0871  2.6657  0.1850
18314TIP3   OH276356   0.990   3.014  11.877 -0.5078 -0.3647 -0.0132
18314TIP3    H176357   1.003   3.089  11.818 -1.9143 -0.2006 -0.1349
18314TIP3    H276358   1.079   2.984  11.897  0.0578  1.0324 -0.3456
18315TIP3   OH276359   6.091   2.163  15.735  0.4210 -0.4104 -0.2521
18315TIP3    H176360   6.089   2.136  15.643  0.6161 -1.4190  0.0391
18315TIP3    H276361   6.137   2.093  15.780  0.0529 -0.0653  0.6729
18316TIP3   OH276362   0.374   0.736  16.911  0.3880 -0.0139 -0.3846
18316TIP3    H176363   0.388   0.757  16.818  0.0392  0.5757 -0.3094
18316TIP3    H276364   0.283   0.760  16.927  1.1427  2.2494  0.7399
18317TIP3   OH276365   3.882   0.433   5.686 -0.4079 -0.0730  0.2183
18317TIP3    H176366   3.890   0.376   5.611  0.2358  0.1332  0.1292
18317TIP3    H276367   3.908   0.519   5.654 -1.9366  0.4036  0.1944
18318TIP3   OH276368   5.992   3.599   2.860 -0.3215  0.6220  0.2404
18318TIP3    H176369   6.069   3.645   2.892  1.0810 -1.5572  0.1331
18318TIP3    H276370   5.953   3.561   2.938 -0.0566 -0.0575  0.0461
18319TIP3   OH276371   2.660   6.139  12.939 -0.3242  0.0944  0.0888
18319TIP3    H176372   2.709   6.147  12.858  0.0334 -0.9433  0.1971
18319TIP3    H276373   2.623   6.226  12.953  0.5037  0.5663 -0.6104
18320TIP3   OH276374   2.882   3.636   0.399 -0.1049 -0.2594 -0.1107
18320TIP3    H176375   2.931   3.608   0.477  0.8893 -0.2804 -0.7232
18320TIP3    H276376   2.807   3.577   0.395 -1.8073  1.6336  2.4912
18321TIP3   OH276377   1.935   1.771   0.077  0.4207  0.4949  0.6653
18321TIP3    H176378   1.994   1.843   0.101  0.5232  0.4630  0.5121
18321TIP3    H276379   1.864   1.813   0.028 -0.4326  0.7277  2.0787
18322TIP3   OH276380   3.424   1.243   1.871  0.1630 -0.1113  0.3039
18322TIP3    H176381   3.405   1.288   1.954 -1.4307 -0.2917  0.0613
18322TIP3    H276382   3.344   1.255   1.819 -0.1318 -2.9016  0.0820
18323TIP3   OH276383   0.836   5.906  15.536 -0.2653 -0.1960 -0.2617
18323TIP3    H176384   0.904   5.938  15.477  0.4984 -1.3256 -0.0169
18323TIP3    H276385   0.880   5.840  15.590 -1.3393 -0.3011  0.5049
18324TIP3   OH276386   5.042   2.992  16.357 -0.6947  0.3391 -0.0339
18324TIP3    H176387   4.998   3.077  16.356  1.1534  1.3249  0.3171
18324TIP3    H276388   5.100   2.994  16.281 -2.1322 -1.4505 -1.2349
18325TIP3   OH276389   1.144   6.590  14.261 -0.3321 -0.3581 -0.7360
18325TIP3    H176390   1.101   6.516  14.304  1.4634 -2.1228 -1.9225
18325TIP3    H276391   1.115   6.585  14.170  0.7860 -0.3516 -1.0965
18326TIP3   OH276392   6.541   2.287  15.994 -0.3138  0.6605 -0.3187
18326TIP3    H176393   6.469   2.248  16.044 -0.9085  0.6604 -1.1509
18326TIP3    H276394   6.620   2.263  16.042 -0.7297 -0.9438 -0.4067
18327TIP3   OH276395   0.016   0.828  16.089  0.2922 -0.3576  0.7954
18327TIP3    H176396  -0.064   0.864  16.128  0.8333  1.1584  0.5570
18327TIP3    H276397  -0.008   0.807  15.999 -0.3466 -1.7268  1.2755
18328TIP3   OH276398   0.879   6.151   2.526 -0.6136 -0.1652 -0.0896
18328TIP3    H176399   0.914   6.104   2.602 -1.9194  1.1964  1.3996
18328TIP3    H276400   0.833   6.083   2.475  0.7343 -1.1931  0.0337
18329TIP3   OH276401   0.058   6.224  14.057 -0.3426 -0.3937  0.3886
18329TIP3    H176402   0.111   6.146  14.075  1.6162  0.5101 -1.2406
18329TIP3    H276403  -0.013   6.192  14.002 -0.2083 -1.2204  0.6829
18330TIP3   OH276404   4.507   4.470  13.197 -0.1991  0.3225 -0.0942
18330TIP3    H176405   4.548   4.444  13.279 -1.6694 -1.3783  0.1329
18330TIP3    H276406   4.414   4.453  13.210 -0.8016  2.5946 -1.1731
18331TIP3   OH276407   5.354   0.827   0.513 -0.1767  0.0803 -0.0514
18331TIP3    H176408   5.416   0.789   0.575 -0.2089 -0.3564 -0.2847
18331TIP3    H276409   5.341   0.759   0.447  0.7580  0.9802 -1.1899
18332TIP3   OH276410   3.556   6.218   5.232 -0.4951  0.5083  0.3429
18332TIP3    H176411   3.620   6.152   5.206 -1.3668 -0.1917 -0.0432
18332TIP3    H276412   3.556   6.281   5.160 -1.5318 -0.4330 -0.4985
18333TIP3   OH276413   0.096   2.138   1.449 -0.3812  0.2646 -0.1339
18333TIP3    H176414   0.012   2.110   1.414  0.0906 -0.7977 -0.4232
18333TIP3    H276415   0.096   2.233   1.437 -0.2970 -0.0634 -2.8755
18334TIP3   OH276416   3.030   2.449  14.082  0.0703  0.1369 -0.1437
18334TIP3    H176417   2.969   2.485  14.019 -0.8449 -0.7508  0.2184
18334TIP3    H276418   3.024   2.508  14.158 -0.1603  0.1811 -0.1966
18335TIP3   OH276419   6.473   3.948   1.525 -0.0300 -0.7104 -0.2670
18335TIP3    H176420   6.444   3.906   1.606 -1.6372 -0.9269 -0.9350
18335TIP3    H276421   6.520   3.880   1.478 -0.5976 -1.0908 -0.2893
18336TIP3   OH276422   5.251   5.515   3.402 -0.3439 -0.1226  0.3109
18336TIP3    H176423   5.172   5.540   3.449 -1.4559 -1.7924 -0.6216
18336TIP3    H276424   5.277   5.430   3.440  0.3309 -0.1438 -0.1694
18337TIP3   OH276425   2.869   1.884  15.052 -0.1714 -0.0743 -0.0161
18337TIP3    H176426   2.965   1.882  15.056 -0.2020 -0.3675  0.8331
18337TIP3    H276427   2.846   1.808  15.000  0.0344 -0.4818  0.4782
18338TIP3   OH276428   0.622   2.910   2.526  0.2639 -0.1030  0.6278
18338TIP3    H176429   0.703   2.896   2.576  0.9738 -0.4168 -0.5810
18338TIP3    H276430   0.634   2.857   2.447  0.5515  2.8612 -1.3914
18339TIP3   OH276431   5.559   1.992  16.073  0.1516  0.5541 -0.1188
18339TIP3    H176432   5.507   1.948  16.140 -2.7517  0.3727 -2.4072
18339TIP3    H276433   5.541   1.944  15.992  0.7758  2.9135 -1.7352
18340TIP3   OH276434   3.518   0.960   1.073 -0.2188  0.1395  0.0662
18340TIP3    H176435   3.586   0.994   1.015 -0.7679 -0.0937 -0.7265
18340TIP3    H276436   3.507   0.869   1.046  1.2819 -0.7020  2.2267
18341TIP3   OH276437   1.823   4.748  13.052 -0.3757  0.1073 -0.6793
18341TIP3    H176438   1.883   4.713  12.987 -1.0374  1.2645 -1.9432
18341TIP3    H276439   1.820   4.842  13.034 -2.1778  0.1421 -0.3475
18342TIP3   OH276440   1.717   3.183  11.785 -0.1180 -0.5950  0.3287
18342TIP3    H176441   1.671   3.239  11.722 -1.6319  0.7867  2.5892
18342TIP3    H276442   1.710   3.095  11.749 -0.5541  0.2271 -1.6618
18343TIP3   OH276443   4.593   5.611   1.084 -0.3807  0.2609 -0.3076
18343TIP3    H176444   4.514   5.598   1.137 -0.3192  1.8338  0.1909
18343TIP3    H276445   4.567   5.675   1.017  0.8310  1.8043  0.6735
18344TIP3   OH276446   6.284   0.906  13.069 -0.0603 -0.0799 -0.5162
18344TIP3    H176447   6.268   0.862  12.986  1.2968  0.4741 -1.0792
18344TIP3    H276448   6.284   0.836  13.134 -1.2456 -0.5028 -0.9495
18345TIP3   OH276449   0.226   5.894  14.290 -0.2361  0.1359 -0.6191
18345TIP3    H176450   0.253   5.806  14.316 -2.1252 -0.1832  0.3396
18345TIP3    H276451   0.150   5.913  14.345 -0.4101  2.0008 -1.4692
18346TIP3   OH276452   3.260   2.753   0.490 -0.3904  0.3944 -0.1746
18346TIP3    H176453   3.324   2.699   0.443 -0.7054  0.6839 -0.9426
18346TIP3    H276454   3.207   2.690   0.538 -1.2087 -0.0484 -1.6262
18347TIP3   OH276455   3.438   4.211  12.802 -1.1960 -0.0814  0.3490
18347TIP3    H176456   3.413   4.258  12.881  3.4808  0.2171  1.8027
18347TIP3    H276457   3.413   4.120  12.819 -1.0271  0.1402  1.8134
18348TIP3   OH276458   1.411   0.396   5.412  0.6793  0.6391  0.4158
18348TIP3    H176459   1.404   0.464   5.345 -1.3370 -0.4398 -0.5369
18348TIP3    H276460   1.372   0.435   5.490 -3.3762 -0.4050 -0.9751
18349TIP3   OH276461   3.884   0.579   2.075  0.3271  0.1401  0.6713
18349TIP3    H176462   3.963   0.566   2.126  0.7610  1.0620  0.2593
18349TIP3    H276463   3.907   0.552   1.986 -0.1339 -0.5659  0.7658
18350TIP3   OH276464   1.762   1.329   1.713 -0.4084  0.2776  0.7441
18350TIP3    H176465   1.733   1.342   1.622  2.1416  0.6062 -0.0615
18350TIP3    H276466   1.754   1.234   1.727 -1.1639  0.2709  0.3037
18351TIP3   OH276467   4.783   6.281   1.189 -0.6120 -0.7095  0.0983
18351TIP3    H176468   4.780   6.254   1.097 -2.2769 -2.3617  0.5836
18351TIP3    H276469   4.768   6.200   1.238 -0.5775  0.2829  1.8067
18352TIP3   OH276470   0.845   5.361  11.818 -0.3415  0.4795  0.4924
18352TIP3    H176471   0.919   5.319  11.774 -1.0082  1.5116 -1.6884
18352TIP3    H276472   0.836   5.314  11.900  1.5501 -0.8971 -0.0592
18353TIP3   OH276473   2.121   4.443   1.054 -0.1627 -0.2932  0.3857
18353TIP3    H176474   2.067   4.505   1.103  0.5935  1.8302 -1.3903
18353TIP3    H276475   2.187   4.414   1.118 -0.6206  0.6284  1.3052
18354TIP3   OH276476   3.987   2.483   3.924 -0.1642 -0.3207 -0.0192
18354TIP3    H176477   3.921   2.424   3.960  0.7748 -0.5601  1.3432
18354TIP3    H276478   4.017   2.440   3.844 -0.7187 -0.8402  0.0468
18355TIP3   OH276479   2.153   3.273  16.049 -0.0790  0.0728 -0.3121
18355TIP3    H176480   2.091   3.200  16.059  0.5906 -0.2928  1.3856
18355TIP3    H276481   2.232   3.232  16.014  0.2405 -0.0027  0.4810
18356TIP3   OH276482   4.255   0.421   3.723 -0.5632  0.1022 -0.2212
18356TIP3    H176483   4.289   0.469   3.647 -0.6074  1.1338  0.3914
18356TIP3    H276484   4.244   0.489   3.790 -0.3726 -0.8292  0.7547
18357TIP3   OH276485   5.478   0.228  14.522  0.0149  0.2777  0.1650
18357TIP3    H176486   5.560   0.180  14.505  2.6880  4.5078  0.3046
18357TIP3    H276487   5.447   0.254  14.435 -0.2630  0.1201  0.2175
18358TIP3   OH276488   5.439   5.055   1.140  0.2566 -0.4719 -0.5615
18358TIP3    H176489   5.371   5.118   1.166  0.5657 -0.2237 -0.3451
18358TIP3    H276490   5.411   5.023   1.054 -0.0450 -0.2386 -0.5500
18359TIP3   OH276491   1.420   3.467  13.457 -0.5413  0.5400  0.3214
18359TIP3    H176492   1.352   3.478  13.390 -0.2485  1.7734  0.2274
18359TIP3    H276493   1.478   3.542  13.445  1.2295 -0.8606 -0.0388
18360TIP3   OH276494   6.345   4.817   1.304 -0.3363  0.6362 -0.0884
18360TIP3    H176495   6.292   4.753   1.255  2.1449 -2.0713  0.6066
18360TIP3    H276496   6.312   4.811   1.394  0.4693 -0.3555  0.1532
18361TIP3   OH276497   2.218   5.492   5.697  0.7566  0.4950 -0.6374
18361TIP3    H176498   2.297   5.498   5.643  1.5270 -1.7551  0.1759
18361TIP3    H276499   2.238   5.543   5.776  0.7611  1.2860 -1.1431
18362TIP3   OH276500   0.885   1.061   4.586 -0.6782  0.2777 -0.3377
18362TIP3    H176501   0.970   1.098   4.608 -0.9497  1.2273 -0.8305
18362TIP3    H276502   0.900   1.010   4.507 -0.6268  0.7414 -0.6321
18363TIP3   OH276503   6.295   1.168  14.178 -0.2016  0.2388  1.2315
18363TIP3    H176504   6.338   1.093  14.137 -1.5161 -0.3392  0.8670
18363TIP3    H276505   6.302   1.239  14.113 -1.3193 -0.3593  0.4382
18364TIP3   OH276506   6.184   5.076   5.467  0.1495 -1.0785 -0.1654
18364TIP3    H176507   6.276   5.100   5.459 -0.4139  2.1447  2.1720
18364TIP3    H276508   6.184   4.995   5.517  1.7728 -1.8606 -1.4079
18365TIP3   OH276509   6.701   4.090   1.313  0.9841  0.1458  0.1221
18365TIP3    H176510   6.741   4.153   1.372  1.6164  0.0500 -0.2046
18365TIP3    H276511   6.628   4.137   1.273  1.0072  0.4373  0.4206
18366TIP3   OH276512   3.974   5.588  13.742  0.0340  0.1670  0.8433
18366TIP3    H176513   4.017   5.587  13.656  0.1846 -2.0869  0.8999
18366TIP3    H276514   3.910   5.659  13.737 -0.7990 -0.7045 -1.5624
18367TIP3   OH276515   1.860   6.776  12.104 -0.9030  0.2145 -0.5178
18367TIP3    H176516   1.766   6.763  12.093 -1.2212 -0.1845  2.3308
18367TIP3    H276517   1.878   6.750  12.195  1.5503  2.4961 -0.2804
18368TIP3   OH276518   3.037   1.493   2.049 -0.1517 -0.0996 -0.7684
18368TIP3    H176519   3.126   1.514   2.078 -0.9551  1.9378  0.3319
18368TIP3    H276520   3.034   1.524   1.958 -0.2112  1.2865 -0.3032
18369TIP3   OH276521   2.300   3.449  12.118  0.0769 -0.3018 -0.0514
18369TIP3    H176522   2.209   3.458  12.091 -0.2805  1.6195  1.6085
18369TIP3    H276523   2.350   3.491  12.048 -0.5491  1.2071  0.3850
18370TIP3   OH276524   3.305   6.411  10.587  0.3321 -0.1166 -0.0569
18370TIP3    H176525   3.394   6.395  10.621 -0.0536 -1.1256  0.4939
18370TIP3    H276526   3.318   6.475  10.517  1.7398 -1.6903 -1.2948
18371TIP3   OH276527   0.873   5.367  15.769 -0.4642 -0.1937 -0.3644
18371TIP3    H176528   0.781   5.340  15.767  0.2648 -2.9380  0.6213
18371TIP3    H276529   0.879   5.428  15.842 -1.5585  0.2874 -0.6612
18372TIP3   OH276530   1.163   4.241   6.052  0.4250 -0.4749  0.2995
18372TIP3    H176531   1.072   4.236   6.083  0.4558 -0.6698  0.3566
18372TIP3    H276532   1.215   4.237   6.133  0.3945  2.6116  0.5337
18373TIP3   OH276533   4.976   3.927  12.617 -0.1333 -0.2077 -0.6765
18373TIP3    H176534   4.987   3.841  12.658 -0.7453  0.1980  0.3508
18373TIP3    H276535   4.918   3.911  12.543 -0.1913 -0.6917 -0.5303
18374TIP3   OH276536   1.902   0.292   0.719 -0.5891 -0.0555  0.5419
18374TIP3    H176537   1.863   0.300   0.806 -0.7721  0.1033  0.4457
18374TIP3    H276538   1.928   0.200   0.712  0.5040  0.1911  1.2247
18375TIP3   OH276539   1.264   0.148  15.012  0.7699 -0.2543 -0.4004
18375TIP3    H176540   1.334   0.156  15.077 -0.0156 -0.6987  0.5096
18375TIP3    H276541   1.269   0.057  14.983 -1.1246 -1.0512  1.6303
18376TIP3   OH276542   3.873   4.319  16.283  0.1036 -0.2569  0.0471
18376TIP3    H176543   3.823   4.399  16.301 -1.0189 -0.3777 -2.4149
18376TIP3    H276544   3.856   4.263  16.359  0.1679  1.4576  1.3690
18377TIP3   OH276545   3.214   6.242   3.169  0.1125  0.1939  0.3533
18377TIP3    H176546   3.262   6.322   3.188 -0.7025  0.3787  1.6550
18377TIP3    H276547   3.199   6.245   3.074  1.0544  1.0198  0.2286
18378TIP3   OH276548   4.867   4.507  12.939 -0.0317 -0.1203 -0.4576
18378TIP3    H176549   4.891   4.459  13.019 -0.5135  0.7714  0.2353
18378TIP3    H276550   4.841   4.439  12.878 -0.9346 -0.7513  0.5980
18379TIP3   OH276551   3.930   6.393   5.748 -0.0099  0.1682 -0.2508
18379TIP3    H176552   4.022   6.369   5.758 -0.1748 -0.3099  0.1296
18379TIP3    H276553   3.918   6.404   5.653  0.9492  2.2787 -0.1553
18380TIP3   OH276554   3.061   2.569   2.326  0.0912  0.6308 -0.3007
18380TIP3    H176555   3.133   2.590   2.385  0.8134 -0.4080 -0.8083
18380TIP3    H276556   3.092   2.595   2.239  0.1010 -0.3834 -0.6066
18381TIP3   OH276557   4.262   6.739   2.446  0.1786  0.2733 -0.0144
18381TIP3    H176558   4.192   6.767   2.387 -1.1322 -0.6739  1.0690
18381TIP3    H276559   4.277   6.647   2.424  1.2900  0.5494 -0.4358
18382TIP3   OH276560   2.558   6.702   5.155  0.2250  0.2698  0.0996
18382TIP3    H176561   2.645   6.739   5.140 -0.2309  1.4601  0.3499
18382TIP3    H276562   2.540   6.718   5.247 -0.4936  0.5246 -0.0827
18383TIP3   OH276563   1.893   2.067  12.996  0.0724  0.3675 -0.3491
18383TIP3    H176564   1.917   2.137  13.056 -3.4247  0.0235  1.5864
18383TIP3    H276565   1.854   2.000  13.052  0.5316 -1.7998 -2.5383
18384TIP3   OH276566   2.723   4.319  15.501  0.0553  0.3073  0.3115
18384TIP3    H176567   2.764   4.298  15.585  0.3905  0.7552  0.2587
18384TIP3    H276568   2.785   4.287  15.435  0.0404  0.4403  0.2320
18385TIP3   OH276569   3.441   5.455   3.417 -0.0005  0.2262 -0.2607
18385TIP3    H176570   3.530   5.466   3.383 -0.7718  2.3287 -1.7192
18385TIP3    H276571   3.415   5.543   3.444 -1.7706 -0.2994 -0.1867
18386TIP3   OH276572   0.252   5.659  12.587 -0.1436  0.0865  0.5318
18386TIP3    H176573   0.251   5.579  12.535  0.1857  0.0070  0.6503
18386TIP3    H276574   0.343   5.688  12.586 -0.1647  0.1722  0.9352
18387TIP3   OH276575   4.645   2.844  14.618 -0.3211  0.6076 -0.2864
18387TIP3    H176576   4.563   2.893  14.613  0.4918  1.9809 -0.5367
18387TIP3    H276577   4.694   2.871  14.540 -0.1794 -1.2329 -0.8710
18388TIP3   OH276578   4.258   2.508  17.046 -0.0554  0.7678  0.2668
18388TIP3    H176579   4.290   2.561  16.972 -0.1296  1.2402  0.5725
18388TIP3    H276580   4.247   2.421  17.009  1.2323  0.6776  0.0665
18389TIP3   OH276581   3.133   1.641   3.426 -0.5692 -0.2655 -0.1380
18389TIP3    H176582   3.225   1.633   3.398 -0.0233 -0.5302  1.6902
18389TIP3    H276583   3.137   1.689   3.508 -1.9457 -1.6178  0.7465
18390TIP3   OH276584   4.177   0.863   2.925  0.1838  0.3946  0.3631
18390TIP3    H176585   4.121   0.842   2.851  1.4784  0.8687 -0.7586
18390TIP3    H276586   4.154   0.798   2.992 -0.1995 -0.7149 -0.8344
18391TIP3   OH276587   6.451   5.319   5.196 -0.7705 -0.2366 -0.1953
18391TIP3    H176588   6.421   5.410   5.193  1.1456  0.4058 -1.0464
18391TIP3    H276589   6.475   5.299   5.105  1.5607 -0.5936  0.4511
18392TIP3   OH276590   3.848   3.415  14.440 -0.5584  0.2834 -0.5418
18392TIP3    H176591   3.772   3.443  14.390 -2.0022 -1.5242  0.5758
18392TIP3    H276592   3.910   3.385  14.374 -1.5796 -0.0454 -1.3686
18393TIP3   OH276593   4.761   1.403  11.846 -0.0950  0.2887 -0.2937
18393TIP3    H176594   4.808   1.334  11.799  0.1926 -0.8436  1.5707
18393TIP3    H276595   4.672   1.369  11.856  0.3976 -0.4729  1.8299
18394TIP3   OH276596   1.309   0.115  16.212  0.2317  0.2263  0.3285
18394TIP3    H176597   1.235   0.068  16.251  1.0494 -0.8480  0.5861
18394TIP3    H276598   1.268   0.177  16.151 -0.8673 -0.5004  0.3142
18395TIP3   OH276599   1.576   0.424  13.921 -1.1508  0.0109 -0.1166
18395TIP3    H176600   1.661   0.420  13.966 -1.5555 -0.1103  0.6487
18395TIP3    H276601   1.598   0.417  13.828 -0.4427 -1.7334  0.1598
18396TIP3   OH276602   1.610   1.418   0.816 -0.8550  0.2148 -0.3458
18396TIP3    H176603   1.693   1.402   0.771 -1.2247  1.7510 -1.6113
18396TIP3    H276604   1.543   1.391   0.754 -1.3159 -0.8167  0.5916
18397TIP3   OH276605   2.661   0.806  15.065  0.1575  0.0923 -0.1926
18397TIP3    H176606   2.663   0.753  15.145  0.3021 -0.1023 -0.3219
18397TIP3    H276607   2.716   0.757  15.003  1.5684  1.1993  0.1771
18398TIP3   OH276608   5.522   3.710  15.544 -0.0869 -0.7309 -0.0177
18398TIP3    H176609   5.460   3.774  15.508 -0.6494 -2.0634 -1.4812
18398TIP3    H276610   5.596   3.712  15.483  0.6266 -0.2967  0.8507
18399TIP3   OH276611   5.856   1.359  16.678  0.3070  0.0620  0.8062
18399TIP3    H176612   5.893   1.438  16.717  1.8070 -0.9220  1.3987
18399TIP3    H276613   5.844   1.299  16.752 -1.5307 -0.0170  0.4736
18400TIP3   OH276614   0.498   6.547   5.010 -0.2465  0.1589 -0.1272
18400TIP3    H176615   0.453   6.480   5.062 -1.3944  1.1066  0.1079
18400TIP3    H276616   0.428   6.588   4.958  0.8906 -0.9444 -2.6579
18401TIP3   OH276617   5.686   5.364  13.135  0.0338  0.1545 -0.3554
18401TIP3    H176618   5.645   5.308  13.070  0.9256  0.0941 -0.8694
18401TIP3    H276619   5.614   5.417  13.169 -1.0954 -2.2928  1.1904
18402TIP3   OH276620   1.402   4.149  14.903 -0.0188  0.2802  0.3380
18402TIP3    H176621   1.387   4.212  14.833  0.2767  0.1021  0.1122
18402TIP3    H276622   1.353   4.183  14.978  0.5035  1.0054  0.3518
18403TIP3   OH276623   2.664   2.520   0.170 -0.2233  0.2267 -0.1511
18403TIP3    H176624   2.736   2.553   0.116  0.5761 -0.6685  0.3523
18403TIP3    H276625   2.590   2.514   0.109  0.4721 -0.0625 -0.9915
18404TIP3   OH276626   3.353   2.715  15.654  0.3188  0.0672  0.2213
18404TIP3    H176627   3.374   2.783  15.718 -2.1814  1.0787  0.0366
18404TIP3    H276628   3.314   2.644  15.705 -1.3358  0.7205 -0.1098
18405TIP3   OH276629   0.340   1.296  12.826 -0.3403 -0.2498  0.4350
18405TIP3    H176630   0.353   1.223  12.765 -1.5802  1.3542 -1.8167
18405TIP3    H276631   0.259   1.273  12.872  0.3121 -1.2138  1.1211
18406TIP3   OH276632   5.388   2.349  13.429  0.0144  0.0259 -0.3048
18406TIP3    H176633   5.328   2.301  13.487  0.8825  0.1972  0.7572
18406TIP3    H276634   5.336   2.421  13.394  0.6143  2.5026  3.6497
18407TIP3   OH276635   2.748   3.121   1.836  0.0183 -0.5497  0.7727
18407TIP3    H176636   2.831   3.168   1.827 -1.5391  2.0572 -0.4459
18407TIP3    H276637   2.733   3.082   1.750  0.1039 -1.3022  1.0889
18408TIP3   OH276638   5.759   5.958   0.544  0.1285 -0.1067  0.2181
18408TIP3    H176639   5.805   5.982   0.464 -0.0131 -0.7701 -0.0654
18408TIP3    H276640   5.674   5.926   0.515  0.0862 -0.3774  0.6267
18409TIP3   OH276641   6.479   0.439   3.537  0.5061 -0.2550 -0.2147
18409TIP3    H176642   6.535   0.517   3.538  0.7617 -0.4473  0.4583
18409TIP3    H276643   6.394   0.472   3.508  0.5977  0.2857  0.1135
18410TIP3   OH276644   0.551   4.047   2.615 -0.1828 -0.2694  0.5755
18410TIP3    H176645   0.552   4.134   2.575 -0.0285 -0.6489 -0.2741
18410TIP3    H276646   0.641   4.035   2.646 -0.0247 -0.3966  0.0776
18411TIP3   OH276647   5.691   2.931   5.303  0.4775  0.0045 -0.7274
18411TIP3    H176648   5.650   2.956   5.387 -0.7893  0.7004 -1.5331
18411TIP3    H276649   5.768   2.881   5.328  1.4185  2.1763  0.9321
18412TIP3   OH276650   0.054   1.117  13.969 -0.5066 -0.0977 -0.0098
18412TIP3    H176651  -0.008   1.072  14.025 -0.8844 -0.4105 -0.6747
18412TIP3    H276652   0.006   1.193  13.936 -0.0921  0.4182  0.5678
18413TIP3   OH276653   3.262   4.121   4.584 -0.1748  0.4904  0.1424
18413TIP3    H176654   3.230   4.193   4.530  1.0029 -0.4459 -1.8958
18413TIP3    H276655   3.303   4.162   4.659  1.5997  1.9982 -1.6207
18414TIP3   OH276656   6.471   4.106   6.598  0.7593 -0.5072  0.2340
18414TIP3    H176657   6.499   4.190   6.635  1.1403 -0.5829  0.1175
18414TIP3    H276658   6.396   4.127   6.543  0.0612 -0.4188  1.2170
18415TIP3   OH276659   0.524   2.234  16.826 -0.1787  0.0302 -0.2473
18415TIP3    H176660   0.541   2.184  16.906 -0.3049  1.0177  0.4004
18415TIP3    H276661   0.585   2.198  16.762  1.5017  0.7501  0.9066
18416TIP3   OH276662   2.622   2.925   4.089  0.4550  0.1761  0.6543
18416TIP3    H176663   2.579   3.000   4.050  0.6625  0.1561  0.3803
18416TIP3    H276664   2.643   2.952   4.179 -0.0311  0.2197  0.7510
18417TIP3   OH276665   4.523   4.834   0.562 -0.1248 -0.1439  0.6744
18417TIP3    H176666   4.550   4.909   0.509 -0.8617  1.4947  2.5016
18417TIP3    H276667   4.485   4.773   0.500 -0.4221  1.4488 -0.7594
18418TIP3   OH276668   2.779   3.208   2.667 -0.1182  0.5155 -0.0462
18418TIP3    H176669   2.814   3.149   2.734  1.3188  1.3487 -0.0537
18418TIP3    H276670   2.745   3.283   2.715 -2.5445 -0.5630  0.0141
18419TIP3   OH276671   3.876   3.720   6.396 -0.2623 -0.2013  0.1960
18419TIP3    H176672   3.898   3.747   6.307 -1.5009  2.5755  0.6718
18419TIP3    H276673   3.797   3.770   6.417 -1.0687 -2.2281  2.1811
18420TIP3   OH276674   2.405   6.255   4.181  0.7776  0.0022  0.3610
18420TIP3    H176675   2.323   6.299   4.159  0.6211  0.8508  2.4768
18420TIP3    H276676   2.473   6.319   4.160  0.7845 -0.0830  0.1265
18421TIP3   OH276677   2.868   0.387   3.083  0.4453  0.2566  0.1069
18421TIP3    H176678   2.877   0.419   2.993  0.3215 -1.9519 -0.7315
18421TIP3    H276679   2.779   0.411   3.109  1.1271  2.6405  0.3949
18422TIP3   OH276680   1.894   6.079   4.356 -0.3943  0.0465 -0.7735
18422TIP3    H176681   1.971   6.136   4.356 -1.3384  1.3433 -0.1465
18422TIP3    H276682   1.921   6.002   4.406  0.4354  0.5983 -0.3643
18423TIP3   OH276683   3.060   6.262  12.893 -0.2055 -0.1292 -0.1754
18423TIP3    H176684   3.057   6.358  12.883 -2.2264 -0.2109 -0.5228
18423TIP3    H276685   2.972   6.238  12.922  0.1627 -1.9292 -0.4942
18424TIP3   OH276686   0.338   6.427   1.749 -0.4197 -0.1391 -0.2278
18424TIP3    H176687   0.337   6.522   1.754  0.4308 -0.1380  0.1822
18424TIP3    H276688   0.268   6.398   1.808  0.7260  0.1969  1.3431
18425TIP3   OH276689   2.433   1.608   1.024  0.6199 -0.5203  0.3779
18425TIP3    H176690   2.402   1.569   0.942  0.7694 -2.9472  1.4510
18425TIP3    H276691   2.489   1.681   0.995  1.8586 -2.2293 -1.7108
18426TIP3   OH276692   1.165   0.020  11.721 -0.4733 -0.0742  0.0172
18426TIP3    H176693   1.236  -0.044  11.718 -0.6546 -0.2252 -3.3056
18426TIP3    H276694   1.209   0.105  11.717 -0.3897 -0.0902  0.5562
18427TIP3   OH276695   3.474   1.620  13.083  0.2926  0.1524 -0.6613
18427TIP3    H176696   3.566   1.625  13.111  0.3266  0.3781 -0.8094
18427TIP3    H276697   3.433   1.559  13.145  0.2977  0.8876  0.0678
18428TIP3   OH276698   2.078   5.900   5.197 -0.4045 -0.0099  0.4358
18428TIP3    H176699   2.156   5.943   5.234 -0.3558  0.3231 -0.0486
18428TIP3    H276700   2.007   5.963   5.212 -0.5659 -0.2799  0.8057
18429TIP3   OH276701   1.037   2.639   0.640 -0.7883 -0.3612  0.0453
18429TIP3    H176702   1.118   2.601   0.607 -0.5356 -0.4821  0.7890
18429TIP3    H276703   0.973   2.568   0.634 -0.6551 -0.4910  0.1494
18430TIP3   OH276704   1.018   4.562   2.402 -0.2983  0.2101  0.5996
18430TIP3    H176705   1.034   4.645   2.357  0.2587 -0.7049 -0.9456
18430TIP3    H276706   0.959   4.514   2.344 -0.5448 -0.5107  1.4317
18431TIP3   OH276707   0.667   0.013  12.978 -0.3897 -0.0712 -0.4566
18431TIP3    H176708   0.626  -0.061  12.932  2.0611 -0.6417 -1.8482
18431TIP3    H276709   0.629   0.090  12.937 -0.6242 -0.5787 -1.2189
18432TIP3   OH276710   2.314   6.442   3.679 -0.2734 -0.2442 -0.4216
18432TIP3    H176711   2.286   6.451   3.770  2.5998 -1.1587  0.6326
18432TIP3    H276712   2.324   6.347   3.666 -2.0617 -0.2329 -2.1791
18433TIP3   OH276713   5.138   3.427  11.127 -0.0660  0.2766  0.1036
18433TIP3    H176714   5.137   3.384  11.213 -1.4421 -0.5647 -0.3090
18433TIP3    H276715   5.170   3.359  11.067 -0.2042  0.4995 -0.2223
18434TIP3   OH276716   4.280   1.637   2.226  0.8091 -0.5067 -0.0641
18434TIP3    H176717   4.242   1.582   2.295  1.3479 -1.5231 -0.5705
18434TIP3    H276718   4.240   1.605   2.145  1.4418 -0.4374 -0.4052
18435TIP3   OH276719   3.847   0.594   3.999 -0.1119 -0.3348 -0.6350
18435TIP3    H176720   3.752   0.600   3.990 -0.0885  0.7032 -0.1568
18435TIP3    H276721   3.879   0.683   3.985  0.5237 -0.0396  2.4206
18436TIP3   OH276722   4.071   5.587   0.140  0.5458  0.2301 -0.0995
18436TIP3    H176723   4.074   5.638   0.059  0.5759  1.8806  0.9045
18436TIP3    H276724   4.100   5.500   0.115 -1.7142  0.0612 -2.3395
18437TIP3   OH276725   4.863   3.849  13.538 -0.2001  0.3997 -0.3678
18437TIP3    H176726   4.783   3.848  13.486 -0.7017 -1.0823  0.4069
18437TIP3    H276727   4.933   3.828  13.476 -0.9980 -3.2201 -0.1679
18438TIP3   OH276728   6.254   2.970   1.898 -0.2009 -0.0639  0.4409
18438TIP3    H176729   6.292   3.014   1.973  0.2089  0.5561 -0.1285
18438TIP3    H276730   6.221   2.887   1.933  0.0824  0.1748  1.2777
18439TIP3   OH276731   6.656   4.523  10.434 -0.3528 -0.0537  0.2350
18439TIP3    H176732   6.562   4.540  10.438 -0.2862  0.3595  0.1043
18439TIP3    H276733   6.664   4.429  10.449 -0.9249 -0.4132 -1.6082
18440TIP3   OH276734   5.530   3.518   1.198 -0.0529 -0.2081  0.2607
18440TIP3    H176735   5.542   3.609   1.226  1.9896 -0.5453  0.5823
18440TIP3    H276736   5.563   3.515   1.109  0.2294 -0.7076  0.3777
18441TIP3   OH276737   0.897   3.137  14.328 -0.2966 -0.3268 -0.1477
18441TIP3    H176738   0.843   3.166  14.401 -0.4290 -0.1057 -0.3330
18441TIP3    H276739   0.962   3.079  14.368  0.4760  0.8463  0.3493
18442TIP3   OH276740   2.078   3.780  15.821 -0.5268  1.1197  0.0619
18442TIP3    H176741   1.984   3.769  15.834 -0.0433 -0.6043  2.6134
18442TIP3    H276742   2.116   3.759  15.907  2.0975  3.0505 -0.5538
18443TIP3   OH276743   2.406   6.592   1.219  0.5944  0.0965 -0.3775
18443TIP3    H176744   2.381   6.542   1.296  2.0569 -1.4143 -0.8531
18443TIP3    H276745   2.326   6.639   1.194  0.0731  0.5125  1.9560
18444TIP3   OH276746   6.017   4.914   4.815 -0.3288 -0.1386 -0.1445
18444TIP3    H176747   5.930   4.910   4.856 -0.4044  0.0098 -0.2870
18444TIP3    H276748   6.072   4.856   4.868 -0.2575  0.5810  0.5721
18445TIP3   OH276749   4.518   4.574  12.950 -0.1970  0.1788 -0.4014
18445TIP3    H176750   4.486   4.524  13.026  0.3341  1.9046  0.9966
18445TIP3    H276751   4.590   4.626  12.985 -1.2060  2.4886 -1.6310
18446TIP3   OH276752   3.414   0.863  15.618  0.9635  0.0863 -0.4253
18446TIP3    H176753   3.475   0.933  15.639  1.9827 -1.2330  1.1368
18446TIP3    H276754   3.470   0.788  15.596 -0.0960 -0.6655 -0.6130
18447TIP3   OH276755   4.004   1.214  14.476  0.0590  0.5869 -0.3542
18447TIP3    H176756   3.915   1.193  14.505 -0.2619  1.1214 -0.9528
18447TIP3    H276757   3.999   1.216  14.381  0.9267 -0.2921 -0.4293
18448TIP3   OH276758   4.800   0.053   5.150 -0.3017  0.0756 -0.2408
18448TIP3    H176759   4.875   0.003   5.182 -1.3763 -0.9329  0.7325
18448TIP3    H276760   4.805   0.045   5.055  0.2671 -0.8230 -0.1410
18449TIP3   OH276761   6.281   4.698  13.710  0.0932 -0.1721  0.0358
18449TIP3    H176762   6.262   4.767  13.774  0.1418  1.1666 -1.3545
18449TIP3    H276763   6.363   4.726  13.668  1.5957 -2.4758  1.3141
18450TIP3   OH276764   3.437   0.013   4.349  0.5239 -0.2788 -0.0866
18450TIP3    H176765   3.387  -0.028   4.419  1.6120  0.5145  1.1912
18450TIP3    H276766   3.377   0.077   4.311 -0.6412 -1.8985 -1.0295
18451TIP3   OH276767   5.718   4.257   1.676  0.2755 -0.4589  0.2652
18451TIP3    H176768   5.726   4.345   1.639 -1.4798 -0.4080 -0.0328
18451TIP3    H276769   5.800   4.214   1.652  2.2707  1.8650  2.5805
18452TIP3   OH276770   6.742   6.337   1.780  0.0116  0.8354 -0.3753
18452TIP3    H176771   6.807   6.374   1.840  0.0490  0.9159 -0.4650
18452TIP3    H276772   6.778   6.250   1.758  0.1890  0.9594 -0.5814
18453TIP3   OH276773   0.220   0.416   2.278  0.2597 -0.4080 -0.5786
18453TIP3    H176774   0.158   0.347   2.256 -0.2870  0.0705 -0.5488
18453TIP3    H276775   0.221   0.472   2.201  0.3433 -0.1865 -0.4156
18454TIP3   OH276776   2.046   3.940  12.565 -0.3802 -0.1811  0.0923
18454TIP3    H176777   2.047   3.902  12.477 -0.2921  1.9454 -0.8504
18454TIP3    H276778   1.954   3.945  12.589 -0.7491  3.3573 -1.7555
18455TIP3   OH276779   6.156   6.604  13.368  0.5385  0.6187 -0.4934
18455TIP3    H176780   6.156   6.690  13.410  1.0932 -0.1761  1.1601
18455TIP3    H276781   6.212   6.550  13.423  1.8232 -0.2906 -2.6136
18456TIP3   OH276782   4.236   3.992   1.159  0.2522 -0.5336  0.7352
18456TIP3    H176783   4.193   4.018   1.240  0.3912  0.2865  0.5488
18456TIP3    H276784   4.313   3.942   1.187  0.1404 -0.5068  1.0934
18457TIP3   OH276785   3.586   4.718  12.771  0.4386  0.3405  1.0302
18457TIP3    H176786   3.608   4.715  12.678  0.2435  0.8505  0.9685
18457TIP3    H276787   3.634   4.644  12.809  1.9112  1.1863  0.8306
18458TIP3   OH276788   4.892   1.748   0.531 -0.0089  0.5697 -0.5515
18458TIP3    H176789   4.837   1.804   0.586 -3.1054 -1.2583 -1.6392
18458TIP3    H276790   4.959   1.715   0.591 -0.0620  2.8617  0.8367
18459TIP3   OH276791   2.854   4.734   3.448 -0.0659 -0.0115 -0.2583
18459TIP3    H176792   2.907   4.655   3.458 -0.6929 -0.2381  1.5681
18459TIP3    H276793   2.830   4.736   3.355  0.2717 -1.7525 -0.3918
18460TIP3   OH276794   6.440   4.959   2.257  0.2530  0.2715 -0.0598
18460TIP3    H176795   6.354   4.996   2.234 -0.2516 -1.2246 -0.6419
18460TIP3    H276796   6.493   4.972   2.178  0.1383 -0.0502 -0.1910
18461TIP3   OH276797   3.661   2.625   0.515 -0.0238 -0.7675  0.4048
18461TIP3    H176798   3.604   2.628   0.438  0.4047 -0.0598  0.1075
18461TIP3    H276799   3.714   2.547   0.502  0.9404  0.0417 -0.6720
18462TIP3   OH276800   3.921   6.046   1.062  0.4460 -0.6108  0.0436
18462TIP3    H176801   3.918   5.957   1.026  0.0553 -1.8583  3.0062
18462TIP3    H276802   4.012   6.073   1.051  0.9685 -2.0690  0.6330
18463TIP3   OH276803   2.012   4.405   3.814  0.0233 -0.0968  0.0837
18463TIP3    H176804   1.969   4.490   3.823  0.9768  0.3377  0.4959
18463TIP3    H276805   1.940   4.342   3.822 -1.1570  0.7132 -3.1232
18464TIP3   OH276806   0.902   0.878  12.101 -0.2348  0.5028  0.3774
18464TIP3    H176807   0.865   0.827  12.028 -0.2607  0.6790  0.2671
18464TIP3    H276808   0.987   0.837  12.119 -1.2461 -1.0655  1.8134
18465TIP3   OH276809   3.500   2.270   3.581 -0.5595  0.9991  0.3156
18465TIP3    H176810   3.548   2.240   3.504  0.1547  0.0215  1.1267
18465TIP3    H276811   3.547   2.349   3.609 -0.5301  1.0823  0.0354
18466TIP3   OH276812   3.733   3.629  10.836  0.6428  0.4000 -0.5509
18466TIP3    H176813   3.828   3.636  10.830  0.8788  0.2574  2.3048
18466TIP3    H276814   3.702   3.719  10.835  0.8733  0.4802 -0.5381
18467TIP3   OH276815   2.848   0.557  13.644 -0.0696 -0.7583  0.1144
18467TIP3    H176816   2.834   0.631  13.703 -0.4586  0.9338 -2.0388
18467TIP3    H276817   2.926   0.581  13.594  0.8611 -2.6395  0.6069
18468TIP3   OH276818   6.238   4.395   2.103 -0.0045  0.1592 -0.1059
18468TIP3    H176819   6.318   4.414   2.152 -0.1055  0.0306  0.1094
18468TIP3    H276820   6.261   4.413   2.012  0.4121 -0.3389 -0.1008
18469TIP3   OH276821   1.129   1.569  12.534  0.1184 -0.0165  0.4572
18469TIP3    H176822   1.096   1.643  12.484 -1.7113 -0.1995  1.3244
18469TIP3    H276823   1.166   1.608  12.613 -0.6472 -0.0040  0.8131
18470TIP3   OH276824   3.920   4.930  12.901 -0.1636  0.1298 -0.2196
18470TIP3    H176825   3.973   4.916  12.822 -1.2140  1.5022 -1.2000
18470TIP3    H276826   3.981   4.917  12.973  0.9893 -0.4483 -1.2742
18471TIP3   OH276827   6.666   2.594  15.617  0.1551 -0.2409 -1.3169
18471TIP3    H176828   6.666   2.594  15.713  0.4260  2.0143 -1.2962
18471TIP3    H276829   6.715   2.515  15.593 -1.9330 -2.0813  0.3673
18472TIP3   OH276830   4.565   4.863  12.505  0.0144 -0.0838 -0.0679
18472TIP3    H176831   4.513   4.878  12.426 -0.1593 -1.7615 -0.2868
18472TIP3    H276832   4.580   4.769  12.507  3.6107  0.3861 -0.3802
18473TIP3   OH276833   0.322   2.325  16.015  0.1949 -0.2544  0.5066
18473TIP3    H176834   0.418   2.315  16.013  0.0442 -1.9890  1.1072
18473TIP3    H276835   0.303   2.354  16.104 -0.0325 -2.1529  1.0793
18474TIP3   OH276836   4.717   1.918  12.282 -0.3470 -0.8198 -0.1474
18474TIP3    H176837   4.773   1.992  12.260  0.9803 -1.4458  1.0468
18474TIP3    H276838   4.701   1.928  12.376 -2.0178 -0.8207 -0.4101
18475TIP3   OH276839   5.520   4.967   4.686  0.3376  0.3546 -0.2035
18475TIP3    H176840   5.588   4.939   4.625  1.7310  2.5921  0.2829
18475TIP3    H276841   5.516   5.062   4.676 -2.1582  0.3382  0.3709
18476TIP3   OH276842   5.490   2.859  17.232 -0.2045 -0.0171  0.3930
18476TIP3    H176843   5.563   2.886  17.288 -0.1689  1.3087 -0.2515
18476TIP3    H276844   5.427   2.818  17.291  0.6478 -0.2990  1.1036
18477TIP3   OH276845   2.154   3.390  16.529  0.0062 -0.5420  0.5612
18477TIP3    H176846   2.239   3.352  16.554  1.2978  1.8399  0.0024
18477TIP3    H276847   2.177   3.464  16.473 -2.4980 -0.3090 -0.2124
18478TIP3   OH276848   0.428   4.566   2.208  0.6348  0.4790 -0.7625
18478TIP3    H176849   0.509   4.515   2.216 -0.1480 -0.3053  3.9385
18478TIP3    H276850   0.447   4.649   2.252 -0.3749  1.3210 -1.8590
18479TIP3   OH276851   4.403   0.553   3.512  0.0996  0.2952  0.7374
18479TIP3    H176852   4.499   0.544   3.518  0.1374  0.9017  1.0916
18479TIP3    H276853   4.380   0.509   3.431  0.4996 -1.2094  1.4362
18480TIP3   OH276854   3.105   0.852  16.348  0.1213  0.3298 -0.2481
18480TIP3    H176855   3.163   0.788  16.389 -0.7751 -0.6429 -0.4707
18480TIP3    H276856   3.158   0.891  16.278  0.4080 -0.8074 -0.6827
18481TIP3   OH276857   2.663   5.632   2.253 -0.6960 -0.1631 -0.2044
18481TIP3    H176858   2.603   5.667   2.188 -0.6747  2.0618  0.9523
18481TIP3    H276859   2.747   5.626   2.207 -1.2228 -0.9500 -1.0923
18482TIP3   OH276860   1.919   0.635   5.600 -0.3460  0.1048  0.6539
18482TIP3    H176861   1.977   0.593   5.537  0.1908 -0.4092  1.4970
18482TIP3    H276862   1.837   0.586   5.594 -0.4315  0.3155  0.0606
18483TIP3   OH276863   2.311   3.372   5.479 -0.3489  0.3259 -0.0820
18483TIP3    H176864   2.250   3.397   5.548 -1.0682  1.7469 -1.2019
18483TIP3    H276865   2.395   3.363   5.523 -0.7784  1.3448  0.9534
18484TIP3   OH276866   1.505   5.968   4.157 -0.1382  0.5206  0.2888
18484TIP3    H176867   1.525   6.008   4.242  0.4728  0.1813  0.3008
18484TIP3    H276868   1.487   6.043   4.100  1.6291  0.8672  0.1472
18485TIP3   OH276869   4.714   5.222   3.147  0.1591  0.2154  0.3648
18485TIP3    H176870   4.789   5.188   3.195 -0.5684  0.4047  1.6490
18485TIP3    H276871   4.679   5.292   3.202 -1.1042 -0.0216 -0.1021
18486TIP3   OH276872   4.027   3.159   1.490 -0.0311 -0.4423  0.6227
18486TIP3    H176873   4.004   3.246   1.457 -2.8213 -1.4020 -0.0687
18486TIP3    H276874   4.115   3.143   1.455 -0.1813  1.3795 -0.6576
18487TIP3   OH276875   4.518   4.495   0.818 -0.5152  0.5969  0.0068
18487TIP3    H176876   4.492   4.422   0.875  2.0389 -1.4771 -1.3516
18487TIP3    H276877   4.505   4.461   0.730 -0.1947  2.1391 -0.6354
18488TIP3   OH276878   5.306   1.788  16.552 -0.3613  0.1764 -0.1447
18488TIP3    H176879   5.382   1.746  16.511 -0.6735 -2.3487  1.7295
18488TIP3    H276880   5.335   1.806  16.642 -1.3723  0.9773  0.0325
18489TIP3   OH276881   5.300   2.052   5.003  0.2334  0.4044  0.2694
18489TIP3    H176882   5.236   2.042   5.074 -0.3086 -0.3753 -0.3231
18489TIP3    H276883   5.382   2.020   5.040 -0.3168 -1.1943  0.1607
18490TIP3   OH276884   5.350   1.172   1.371 -0.3202  0.1899  0.3170
18490TIP3    H176885   5.423   1.146   1.427  0.3306 -0.4462 -0.8200
18490TIP3    H276886   5.345   1.267   1.382  0.7610  0.2544  0.2911
18491TIP3   OH276887   5.539   5.280  14.197 -0.4494  0.1964 -0.2323
18491TIP3    H176888   5.520   5.319  14.282  0.5785 -0.3802  0.2612
18491TIP3    H276889   5.555   5.355  14.139 -1.2676  0.5891  0.0391
18492TIP3   OH276890   0.904   2.629  12.031  0.5956 -0.1333 -0.2734
18492TIP3    H176891   0.996   2.652  12.045  0.7855 -1.5196  0.9029
18492TIP3    H276892   0.901   2.533  12.041 -0.7755 -0.2283 -1.4414
18493TIP3   OH276893   6.334   6.482  13.593  0.1189 -0.3850 -0.0112
18493TIP3    H176894   6.376   6.551  13.541 -0.1883  0.0973  0.3763
18493TIP3    H276895   6.382   6.483  13.676  0.6741 -1.2183 -0.3156
18494TIP3   OH276896   0.767   0.372  11.284  0.1025 -0.2432  0.1037
18494TIP3    H176897   0.783   0.429  11.359 -1.1444  1.2129 -0.7078
18494TIP3    H276898   0.751   0.286  11.323 -1.5748  0.6998  1.6101
18495TIP3   OH276899   3.813   6.366   1.389 -0.5066 -0.3555  0.4071
18495TIP3    H176900   3.824   6.278   1.353 -2.7375  0.0133 -1.2764
18495TIP3    H276901   3.893   6.381   1.440  1.4616 -2.0498 -2.0405
18496TIP3   OH276902   2.116   6.269   1.243 -0.0862  0.4589  0.1324
18496TIP3    H176903   2.071   6.333   1.188 -1.7817  1.8328  2.9561
18496TIP3    H276904   2.205   6.304   1.254 -0.6517  1.7571  0.6883
18497TIP3   OH276905   0.741   3.479   1.937 -0.5617  0.4242 -0.0668
18497TIP3    H176906   0.697   3.407   1.891 -0.1673 -1.2088  2.0205
18497TIP3    H276907   0.672   3.517   1.991 -0.2309  0.1043  0.5818
18498TIP3   OH276908   4.795   3.019   4.101 -0.1618  0.1304 -0.0517
18498TIP3    H176909   4.757   3.091   4.150 -2.2667 -0.9272 -0.0609
18498TIP3    H276910   4.783   3.044   4.009 -1.3500 -0.4488 -0.0593
18499TIP3   OH276911   6.374   4.551   4.877  0.0411  1.0907  0.0054
18499TIP3    H176912   6.336   4.470   4.844 -0.2744  2.0610 -2.0649
18499TIP3    H276913   6.465   4.548   4.848  0.4059  0.8360  1.1455
18500TIP3   OH276914   1.981   4.350  16.686  0.4178  0.1333 -0.0712
18500TIP3    H176915   1.994   4.312  16.773 -1.4366 -0.6921 -0.1293
18500TIP3    H276916   1.987   4.275  16.627  0.0713  0.4556 -0.5143
18501TIP3   OH276917   2.092   0.468   3.543  0.5622 -0.0387 -0.3546
18501TIP3    H176918   2.138   0.548   3.570 -0.2477  0.3569 -0.1466
18501TIP3    H276919   2.071   0.424   3.626  0.4598 -0.1574 -0.4438
18502TIP3   OH276920   6.711   3.575  13.617  0.0388 -0.0590 -0.2868
18502TIP3    H176921   6.675   3.550  13.532 -2.4248 -0.9341  0.9597
18502TIP3    H276922   6.719   3.671  13.611 -0.1493 -0.1024 -1.4850
18503TIP3   OH276923   5.121   6.547  14.671 -0.2225  0.1560  0.2564
18503TIP3    H176924   5.044   6.594  14.704 -0.3439 -0.4894  0.8977
18503TIP3    H276925   5.182   6.617  14.647 -0.8044  0.6641  0.2287
18504TIP3   OH276926   1.823   3.972  16.533 -0.0960 -0.3418  0.0564
18504TIP3    H176927   1.894   4.036  16.534  1.1057 -1.6582 -0.8673
18504TIP3    H276928   1.807   3.955  16.440 -0.5276 -1.2519  0.2910
18505TIP3   OH276929   3.685   5.190  13.606  0.2044  0.3776 -0.1867
18505TIP3    H176930   3.678   5.234  13.522  0.8247  0.2905 -0.2895
18505TIP3    H276931   3.599   5.151  13.621  0.3341 -0.2921 -1.1620
18506TIP3   OH276932   3.174   1.117   6.170 -0.0565  0.2175  0.3121
18506TIP3    H176933   3.105   1.157   6.222 -0.5860 -2.9084  2.1622
18506TIP3    H276934   3.245   1.100   6.232  0.7956 -0.1942 -0.7557
18507TIP3   OH276935   6.213   4.039   5.331  0.0941 -0.2144  0.2234
18507TIP3    H176936   6.119   4.056   5.339  0.0623 -0.6649  0.9266
18507TIP3    H276937   6.248   4.113   5.283 -0.7074 -0.2911 -0.4832
18508TIP3   OH276938   6.490   5.802   5.686  0.3636  0.3246 -0.0748
18508TIP3    H176939   6.411   5.753   5.664  0.6910  0.5674 -1.8849
18508TIP3    H276940   6.554   5.735   5.709  0.2442 -0.0054 -0.6857
18509TIP3   OH276941   2.473   1.005  14.507  0.3080 -0.3851 -0.3720
18509TIP3    H176942   2.428   1.089  14.511  0.9750 -0.0427 -0.1189
18509TIP3    H276943   2.555   1.023  14.460  1.3460 -0.5000  1.3787
18510TIP3   OH276944   0.521   3.303  11.031  0.1411 -0.3990 -0.5242
18510TIP3    H176945   0.602   3.331  10.987  1.2532  0.7557  2.1369
18510TIP3    H276946   0.469   3.382  11.038  0.5948 -0.2520  1.4627
18511TIP3   OH276947   2.093   6.022   2.297  0.4738 -0.2728  0.0625
18511TIP3    H176948   2.062   6.091   2.357 -0.3252  0.0004 -0.6629
18511TIP3    H276949   2.145   5.964   2.353  0.8570  0.7192  0.7553
18512TIP3   OH276950   4.875   4.406  16.530  0.1313  0.0915  0.5063
18512TIP3    H176951   4.917   4.385  16.446 -0.3243  0.8241  0.0930
18512TIP3    H276952   4.899   4.334  16.587  1.1304 -0.0098 -0.0223
18513TIP3   OH276953   2.856   0.597   3.351  0.0839  0.3930 -0.5858
18513TIP3    H176954   2.800   0.543   3.407  1.1126  1.3070  1.3691
18513TIP3    H276955   2.796   0.632   3.284 -0.6630 -2.8362 -1.7245
18514TIP3   OH276956   0.403   5.127  12.380 -0.0923  0.2733  0.3233
18514TIP3    H176957   0.444   5.041  12.371 -0.3049 -0.0008  1.7264
18514TIP3    H276958   0.322   5.121  12.330  0.5533  0.1091 -0.7088
18515TIP3   OH276959   2.037   1.279  12.338  0.4729  0.1104 -0.1005
18515TIP3    H176960   1.966   1.341  12.358 -1.8839 -2.8189  1.0099
18515TIP3    H276961   2.084   1.269  12.420 -0.0552 -0.6689  0.1108
18516TIP3   OH276962   1.459   5.835  13.672 -0.6093  0.2318  0.2462
18516TIP3    H176963   1.386   5.775  13.686  1.0313 -2.0788 -0.8562
18516TIP3    H276964   1.500   5.842  13.759 -0.9864 -0.0078  0.4469
18517TIP3   OH276965   6.725   3.959  15.329  0.0667 -0.1084  0.4830
18517TIP3    H176966   6.779   3.883  15.307 -0.0597  0.3257 -1.4504
18517TIP3    H276967   6.718   4.008  15.247 -1.6623  0.8477  1.1680
18518TIP3   OH276968   2.470   2.835  12.267  0.1082 -0.1974 -0.3241
18518TIP3    H176969   2.399   2.888  12.230 -0.4906 -0.4317  0.4672
18518TIP3    H276970   2.547   2.861  12.218 -0.3784  0.6482 -0.6583
18519TIP3   OH276971   0.278   4.544   5.120  0.1995 -0.1816  0.3188
18519TIP3    H176972   0.342   4.614   5.104  1.0884 -1.0576 -0.0229
18519TIP3    H276973   0.306   4.506   5.203 -1.7382  1.4461  1.7421
18520TIP3   OH276974   3.523   3.809  14.033 -0.0607 -0.1235 -0.1646
18520TIP3    H176975   3.461   3.860  13.981  0.6518  2.0334  1.0112
18520TIP3    H276976   3.468   3.765  14.098 -0.5596  0.2782 -0.3058
18521TIP3   OH276977   2.421   2.706  15.816  0.3922 -0.5085  0.0560
18521TIP3    H176978   2.326   2.703  15.827  0.2339  1.5973 -0.5928
18521TIP3    H276979   2.436   2.685  15.724  0.4865  0.0553 -0.0602
18522TIP3   OH276980   5.425   4.810  14.395  0.1429  0.5283  0.1536
18522TIP3    H176981   5.352   4.843  14.343  0.2278 -1.0602 -1.0019
18522TIP3    H276982   5.499   4.865  14.368 -0.0586  0.4497 -0.5920
18523TIP3   OH276983   6.749   5.340  11.711  0.5637 -0.0881 -0.2360
18523TIP3    H176984   6.844   5.353  11.705  0.8454 -1.8323  0.0446
18523TIP3    H276985   6.737   5.246  11.699 -1.2104  0.2205 -1.0366
18524TIP3   OH276986   2.725   3.118  14.976 -0.5896 -0.4660  0.1326
18524TIP3    H176987   2.786   3.083  14.911  0.7913  0.9845  0.5957
18524TIP3    H276988   2.661   3.049  14.988  1.1671 -2.1969 -0.1098
18525TIP3   OH276989   1.211   4.994  12.184 -0.0559 -0.3232  0.3340
18525TIP3    H176990   1.201   4.920  12.244 -0.0987 -1.5599 -1.1807
18525TIP3    H276991   1.170   5.068  12.230  1.3491 -0.8592  2.5194
18526TIP3   OH276992   6.670   5.408  11.434 -0.5224  0.0435  0.1626
18526TIP3    H176993   6.676   5.397  11.529 -2.1436  2.8869  0.6499
18526TIP3    H276994   6.684   5.502  11.419 -2.9521  0.1042 -2.1463
18527TIP3   OH276995   2.327   0.077  13.262 -0.0351 -0.1393 -0.2500
18527TIP3    H176996   2.321   0.022  13.184  0.0941  0.4376 -0.6675
18527TIP3    H276997   2.244   0.064  13.307 -0.5079  0.3040 -0.9986
18528TIP3   OH276998   0.489   2.209   2.308 -0.3858 -0.5527  0.0934
18528TIP3    H176999   0.537   2.147   2.253  0.4934 -0.1015  0.3450
18528TIP3    H277000   0.524   2.196   2.396  0.0726  0.5590  0.0870
18529TIP3   OH277001   2.182   3.718   3.383  0.6158  0.4401 -0.2726
18529TIP3    H177002   2.203   3.807   3.358 -0.0403  0.4626 -0.7651
18529TIP3    H277003   2.225   3.705   3.467  0.3244  1.3768  0.0227
18530TIP3   OH277004   3.326   3.033   1.383  0.4007  0.2066 -0.1097
18530TIP3    H177005   3.236   3.065   1.379  0.6825  1.1726  0.9385
18530TIP3    H277006   3.372   3.081   1.314 -0.1170 -1.0550 -1.3344
18531TIP3   OH277007   6.119   0.674  17.226  0.0684 -0.7542  0.1048
18531TIP3    H177008   6.202   0.674  17.178 -0.1041  0.4307 -0.2130
18531TIP3    H277009   6.127   0.748  17.285 -0.2403 -1.4449  1.0134
18532TIP3   OH277010   0.338   0.808   4.193  0.4833  0.0544 -0.2720
18532TIP3    H177011   0.371   0.747   4.127 -1.0118  0.0628 -1.0739
18532TIP3    H277012   0.414   0.830   4.246  0.7309 -3.9164  1.1798
18533TIP3   OH277013   2.858   4.456   1.907  0.1704  0.0641 -0.1505
18533TIP3    H177014   2.860   4.438   1.813  0.3116  0.3999 -0.2127
18533TIP3    H277015   2.822   4.377   1.946  1.5921 -0.6909 -0.3385
18534TIP3   OH277016   5.234   2.503   0.086 -0.0768  0.2947  0.2581
18534TIP3    H177017   5.188   2.431   0.043  1.2542 -0.7928  0.6385
18534TIP3    H277018   5.270   2.464   0.166  1.0387  1.2717  0.2345
18535TIP3   OH277019   5.609   3.135  15.212 -0.0057  0.1646 -0.2405
18535TIP3    H177020   5.664   3.209  15.186 -0.7200  0.8028  0.0146
18535TIP3    H277021   5.654   3.058  15.179  1.1213  0.6633  0.1053
18536TIP3   OH277022   5.184   6.500  13.655  0.4153 -0.9759 -0.2722
18536TIP3    H177023   5.265   6.456  13.628  0.4521 -1.0855  0.0254
18536TIP3    H277024   5.167   6.562  13.583 -0.5533 -2.6268 -1.4895
18537TIP3   OH277025   0.904   6.526   4.030  0.0125 -0.3929 -0.3789
18537TIP3    H177026   1.000   6.534   4.034 -0.0685  1.2995 -1.6025
18537TIP3    H277027   0.883   6.465   4.100  2.0045 -0.8808 -0.1592
18538TIP3   OH277028   4.342   3.379  11.287 -0.4122 -0.2882 -0.0044
18538TIP3    H177029   4.282   3.433  11.339 -0.7716  0.4090 -1.1386
18538TIP3    H277030   4.299   3.293  11.283 -0.5238 -0.2633  0.5968
18539TIP3   OH277031   0.711   0.147   1.161 -0.1516 -0.0016  0.4596
18539TIP3    H177032   0.692   0.124   1.252 -0.1183  0.6121  0.6210
18539TIP3    H277033   0.770   0.078   1.131  1.3910  0.8540  1.4929
18540TIP3   OH277034   6.375   2.110  17.046 -0.4568  0.6320  0.3072
18540TIP3    H177035   6.386   2.133  16.954 -1.1864 -0.6599 -0.1203
18540TIP3    H277036   6.438   2.166  17.093 -0.3474  1.5651 -0.9252
18541TIP3   OH277037   0.127   5.249  12.212  0.5509 -0.1041  0.1625
18541TIP3    H177038   0.122   5.339  12.244 -3.2619 -0.6557  1.4825
18541TIP3    H277039   0.161   5.256  12.123  0.9614  2.5580  0.5026
18542TIP3   OH277040   3.432   1.114   3.993  0.7896 -0.1228 -0.1060
18542TIP3    H177041   3.426   1.108   4.088 -0.3489 -1.0722 -0.2350
18542TIP3    H277042   3.341   1.120   3.963  1.0620 -1.4084 -1.2380
18543TIP3   OH277043   5.028   1.337  11.305  0.0846 -0.2664 -0.3992
18543TIP3    H177044   5.028   1.419  11.255 -0.2606 -2.4329 -4.1570
18543TIP3    H277045   5.116   1.302  11.294  0.7459  0.3909  2.6169
18544TIP3   OH277046   2.561   5.267   6.477  0.5889 -0.6480  0.3179
18544TIP3    H177047   2.615   5.190   6.457  0.0548 -0.3568 -2.4449
18544TIP3    H277048   2.480   5.231   6.514  0.6628 -1.3640 -0.2016
18545TIP3   OH277049   0.493   0.326   0.773  0.0947 -0.2468 -0.4337
18545TIP3    H177050   0.418   0.280   0.811  1.0791 -0.8371  0.8215
18545TIP3    H277051   0.480   0.418   0.798  0.6093 -0.5915  1.1678
18546TIP3   OH277052   1.324   2.533   0.847 -0.1457  0.1790  0.3768
18546TIP3    H177053   1.252   2.595   0.853 -1.3137 -1.0839 -0.4248
18546TIP3    H277054   1.284   2.448   0.867  0.8725 -0.6969 -1.2528
18547TIP3   OH277055   0.855   5.978   5.020  0.7016  0.1433  0.1457
18547TIP3    H177056   0.760   5.988   5.009  0.6239 -1.1504 -0.4419
18547TIP3    H277057   0.893   6.033   4.951  0.3183 -1.6710 -1.5539
18548TIP3   OH277058   5.350   3.587  10.967  0.2426  0.4917  0.2362
18548TIP3    H177059   5.301   3.641  11.029 -1.3592  1.3197 -1.6866
18548TIP3    H277060   5.348   3.499  11.004  2.7296  1.6627  3.3345
18549TIP3   OH277061   6.764   6.497   4.187  0.1123  0.2356 -0.3702
18549TIP3    H177062   6.809   6.414   4.180  0.0889  0.2463 -0.6444
18549TIP3    H277063   6.828   6.556   4.228  1.0649  0.8008 -2.6174
18550TIP3   OH277064   0.458   5.686  14.154 -0.0353 -0.3953  0.8285
18550TIP3    H177065   0.413   5.666  14.072  2.2219 -0.3124 -0.4425
18550TIP3    H277066   0.460   5.602  14.201 -1.9491 -0.2931  1.1489
18551TIP3   OH277067   6.334   3.438  13.577 -0.2328 -0.4827  0.2679
18551TIP3    H177068   6.255   3.402  13.616 -0.2619  0.7673  1.4086
18551TIP3    H277069   6.405   3.384  13.611 -0.4238 -0.4591  0.7005
18552TIP3   OH277070   1.300   4.965   4.839 -0.0125  0.6339  0.1597
18552TIP3    H177071   1.328   4.998   4.924  2.3044  1.9147 -1.0592
18552TIP3    H277072   1.355   4.888   4.823  0.2566  0.9843 -0.6186
18553TIP3   OH277073   3.608   5.103  14.075 -0.5297 -0.5406 -0.2193
18553TIP3    H177074   3.519   5.126  14.100  1.0021  3.7580  1.5749
18553TIP3    H277075   3.627   5.160  14.001  1.7125  0.6327  1.2377
18554TIP3   OH277076   4.526   6.469  16.650  0.1759 -0.0974 -0.3957
18554TIP3    H177077   4.457   6.478  16.716  0.0848  1.6927 -0.7072
18554TIP3    H277078   4.533   6.556  16.611  0.3043 -1.1086 -2.6904
18555TIP3   OH277079   1.521   1.209  13.214  0.2322  0.6048  0.9862
18555TIP3    H177080   1.440   1.164  13.238 -1.4119  2.5678 -0.7848
18555TIP3    H277081   1.526   1.283  13.275 -0.4312  1.6912 -0.2507
18556TIP3   OH277082   2.326   3.283  12.598 -0.0847 -0.0490 -0.7193
18556TIP3    H177083   2.333   3.378  12.592  1.2921  0.1434  2.8236
18556TIP3    H277084   2.242   3.268  12.642 -0.3140 -0.5010 -1.2977
18557TIP3   OH277085   6.176   3.921  11.865  0.3488 -0.5619 -0.3813
18557TIP3    H177086   6.211   3.839  11.830 -0.4678 -1.2898  0.4676
18557TIP3    H277087   6.147   3.899  11.954 -0.7422  0.4034 -0.4780
18558TIP3   OH277088   3.536   1.774  13.889  0.0099 -0.1394  0.4300
18558TIP3    H177089   3.495   1.715  13.952 -1.3667  1.2387  0.8452
18558TIP3    H277090   3.463   1.813  13.841  1.0451 -1.9294 -2.7751
18559TIP3   OH277091   5.408   5.011  10.496  0.0371  0.1336 -0.0139
18559TIP3    H177092   5.408   5.071  10.422  1.8406  0.9609  0.6113
18559TIP3    H277093   5.461   5.056  10.563  0.7429 -1.7941  0.7591
18560TIP3   OH277094   2.559   1.225  14.122 -0.1113  0.5499 -0.0325
18560TIP3    H177095   2.614   1.275  14.062  1.5146 -1.9985 -0.7504
18560TIP3    H277096   2.481   1.205  14.072  1.5132 -2.1170 -1.5992
18561TIP3   OH277097   6.108   5.948  12.650 -0.2843  0.6763 -0.1154
18561TIP3    H177098   6.190   5.927  12.694  0.7236  1.4776 -1.5806
18561TIP3    H277099   6.120   5.918  12.560 -1.2769  1.5549 -0.5571
18562TIP3   OH277100   1.039   6.274   1.832 -0.3144 -0.2438 -0.3157
18562TIP3    H177101   0.985   6.269   1.753 -0.6392 -1.3785 -0.0294
18562TIP3    H277102   1.090   6.193   1.831  2.0140  1.1883 -1.0275
18563TIP3   OH277103   1.251   3.445  13.245 -0.1324 -0.0662  0.2784
18563TIP3    H177104   1.165   3.446  13.287 -0.0441  0.2173  0.4566
18563TIP3    H277105   1.242   3.504  13.171 -0.3368 -0.6967 -0.2015
18564TIP3   OH277106   4.394   0.211   4.446 -0.0059  0.0621 -0.0266
18564TIP3    H177107   4.340   0.289   4.438 -0.4626 -0.1029  1.3847
18564TIP3    H277108   4.335   0.143   4.477  0.7258 -0.4514  0.2664
18565TIP3   OH277109   1.298   4.140   1.239 -0.3314 -0.2925 -0.2332
18565TIP3    H177110   1.310   4.102   1.152 -0.5871 -2.1034  0.5023
18565TIP3    H277111   1.244   4.218   1.224 -2.9765 -2.2850 -1.3119
18566TIP3   OH277112   3.157   5.138   1.457  0.2982  0.1235 -0.2176
18566TIP3    H177113   3.130   5.139   1.366  1.2241 -0.5150 -0.5062
18566TIP3    H277114   3.253   5.140   1.454  0.3723 -1.1750  0.6976
18567TIP3   OH277115   4.199   1.265  13.392  0.4435  0.2951  0.0462
18567TIP3    H177116   4.166   1.354  13.378  0.6163  0.4873  0.8332
18567TIP3    H277117   4.121   1.210  13.384  0.5773  0.3466 -1.9464
18568TIP3   OH277118   0.192   3.890   0.439  0.1792  0.1733 -0.1762
18568TIP3    H177119   0.250   3.813   0.443  1.2694  1.0634  1.6602
18568TIP3    H277120   0.107   3.857   0.467  0.8354 -0.1887  1.4321
18569TIP3   OH277121   5.842   1.556  12.930  0.4724 -0.9530  0.3693
18569TIP3    H177122   5.772   1.524  12.987  0.6312  0.4073  1.3599
18569TIP3    H277123   5.802   1.628  12.882  0.8338 -0.9936  0.0111
18570TIP3   OH277124   4.642   3.870  12.988  0.0893  0.3346 -0.1615
18570TIP3    H177125   4.638   3.953  13.035 -0.2404  0.6204 -0.6812
18570TIP3    H277126   4.550   3.846  12.975  0.1914 -0.3430  0.3980
18571TIP3   OH277127   6.294   1.036   1.355  0.1997  0.5676  0.2932
18571TIP3    H177128   6.271   1.093   1.281 -1.8731 -0.6331 -0.0253
18571TIP3    H277129   6.388   1.021   1.345  0.1626  1.3243 -1.4639
18572TIP3   OH277130   6.769   4.199   0.630 -0.2158  0.2244 -0.5689
18572TIP3    H177131   6.855   4.157   0.626 -0.0938  0.4387 -0.2290
18572TIP3    H277132   6.739   4.183   0.719 -0.0615  1.0623 -0.3598
18573TIP3   OH277133   6.750   0.849   2.360 -0.3975 -0.0235  0.2554
18573TIP3    H177134   6.837   0.834   2.396 -0.6850  0.9385  1.3558
18573TIP3    H277135   6.711   0.915   2.417 -1.6275 -0.0108 -0.5843
18574TIP3   OH277136   4.059   2.536   5.935  0.3004  0.0452 -0.0624
18574TIP3    H177137   4.050   2.442   5.955  0.0823 -0.1899 -1.2501
18574TIP3    H277138   4.009   2.548   5.854 -0.7995  1.4564  0.8019
18575TIP3   OH277139   6.470   5.908   4.219  0.7892  0.2371  0.0702
18575TIP3    H177140   6.417   5.987   4.223  2.3109  1.2441  0.9260
18575TIP3    H277141   6.436   5.860   4.144 -1.8089  0.4768  1.0615
18576TIP3   OH277142   5.113   1.073   3.959 -0.3885 -0.2780 -0.1350
18576TIP3    H177143   5.038   1.128   3.981 -0.3075 -0.5365  0.7867
18576TIP3    H277144   5.180   1.135   3.931 -1.1750 -0.0899 -1.7027
18577TIP3   OH277145   6.777   6.456   5.288 -0.0763  0.2319  0.3218
18577TIP3    H177146   6.795   6.507   5.368  1.5802  0.0545  0.0781
18577TIP3    H277147   6.839   6.491   5.224  0.3647 -1.3959 -0.1437
18578TIP3   OH277148   5.040   2.733   3.560 -0.3966 -0.0929  0.3351
18578TIP3    H177149   5.066   2.658   3.615  0.8134 -0.2579 -0.4401
18578TIP3    H277150   4.957   2.706   3.521  0.1764 -1.1739 -0.1695
18579TIP3   OH277151   5.798   6.411  11.869 -0.0086 -0.3700  0.1146
18579TIP3    H177152   5.858   6.427  11.796  1.2835 -0.8472  1.0322
18579TIP3    H277153   5.787   6.496  11.911 -1.8004  0.1530 -1.4074
18580TIP3   OH277154   1.837   6.061   1.486  0.0081 -0.2780 -0.4322
18580TIP3    H177155   1.804   6.080   1.398 -0.3075  1.3927  0.0398
18580TIP3    H277156   1.901   5.990   1.472  2.0110  1.8201 -2.4135
18581TIP3   OH277157   1.570   4.383  14.986 -0.0538 -0.0623  0.5446
18581TIP3    H177158   1.534   4.460  14.942  1.1181 -1.3256 -2.7173
18581TIP3    H277159   1.570   4.314  14.919  2.9512 -1.7224  2.1374
18582TIP3   OH277160   1.390   4.702   4.797  0.0729  0.6817 -0.3050
18582TIP3    H177161   1.486   4.694   4.790  0.0077 -0.0407 -0.3992
18582TIP3    H277162   1.363   4.623   4.844 -0.2867  1.7804  1.3794
18583TIP3   OH277163   2.040   1.347  12.731  0.3742  0.2698 -0.2859
18583TIP3    H177164   1.956   1.324  12.691  1.5182 -0.5867 -2.3262
18583TIP3    H277165   2.020   1.364  12.823 -1.7050 -1.9463 -0.2774
18584TIP3   OH277166   5.842   2.114   2.541  0.1601  0.5409 -0.1380
18584TIP3    H177167   5.903   2.172   2.586 -0.3907  1.6572 -0.8227
18584TIP3    H277168   5.888   2.089   2.461  0.7386 -0.6605  0.5488
18585TIP3   OH277169   0.489   6.683   1.163  0.1307 -0.2153  0.5834
18585TIP3    H177170   0.549   6.747   1.202 -0.5645  1.0892 -0.4591
18585TIP3    H277171   0.538   6.643   1.092  0.8684 -1.4969  1.7823
18586TIP3   OH277172   3.371   2.093   6.065  0.4898 -0.1977  0.2703
18586TIP3    H177173   3.423   2.013   6.060 -0.0301 -0.4379 -1.5611
18586TIP3    H277174   3.342   2.098   6.157  0.3294 -2.2228  0.3375
18587TIP3   OH277175   1.089   6.694  16.945 -0.1618 -0.1703  0.4640
18587TIP3    H177176   1.011   6.643  16.963  0.9659 -1.4773  1.7437
18587TIP3    H277177   1.072   6.779  16.985 -0.5941 -0.7101  1.4437
18588TIP3   OH277178   5.534   5.446  15.439 -1.1993  0.3397 -0.5386
18588TIP3    H177179   5.505   5.374  15.383 -0.7342 -0.1373 -0.1607
18588TIP3    H277180   5.473   5.517  15.420 -1.2892  0.0443 -1.3605
18589TIP3   OH277181   0.717   5.627   0.745  0.3437 -0.1506  0.3311
18589TIP3    H177182   0.670   5.544   0.755  0.5050 -0.6270 -2.4261
18589TIP3    H277183   0.647   5.692   0.734  0.2519 -0.0840  1.2251
18590TIP3   OH277184   0.788   4.395  15.931 -0.6525 -0.4793 -0.6389
18590TIP3    H177185   0.783   4.341  16.010 -3.3489 -0.4504 -0.7371
18590TIP3    H277186   0.881   4.406  15.915 -0.0368 -3.7691  0.3209
18591TIP3   OH277187   6.602   3.300  12.194 -0.0178  0.8025 -0.0682
18591TIP3    H177188   6.655   3.306  12.113  0.5110  0.3858  0.2411
18591TIP3    H277189   6.666   3.279  12.262 -0.6299 -0.0532  0.2561
18592TIP3   OH277190   3.154   5.513   2.590  0.4485  0.4327 -0.1927
18592TIP3    H177191   3.173   5.596   2.634 -1.5639 -0.9947  3.5941
18592TIP3    H277192   3.066   5.525   2.555  1.7600  1.2945 -3.3592
18593TIP3   OH277193   0.065   5.596  11.022  0.5823  0.0215  0.1024
18593TIP3    H177194   0.078   5.665  10.957  2.7737  1.0237  1.5543
18593TIP3    H277195   0.130   5.529  11.000  1.4259  0.4298  1.3277
18594TIP3   OH277196   0.875   4.156   2.397 -0.4781  0.2081  0.2742
18594TIP3    H177197   0.810   4.207   2.446 -0.9595 -1.0289  0.9465
18594TIP3    H277198   0.948   4.146   2.457 -0.1623  0.5629 -0.0514
18595TIP3   OH277199   2.959   0.908   4.567 -0.4106  0.9041  0.5010
18595TIP3    H177200   2.993   0.908   4.656 -0.9552 -2.7104  0.8127
18595TIP3    H277201   2.869   0.875   4.576 -0.3214  0.0676 -1.4075
18596TIP3   OH277202   6.167   3.797  16.091  0.4060  0.1613 -0.3787
18596TIP3    H177203   6.206   3.771  16.174  2.0924  0.4877 -1.0573
18596TIP3    H277204   6.174   3.893  16.090 -0.4902  0.2281 -0.4686
18597TIP3   OH277205   0.191   5.290   5.453  0.9693  0.3607 -0.0287
18597TIP3    H177206   0.171   5.273   5.545  1.3853  0.2202  0.0387
18597TIP3    H277207   0.133   5.231   5.405  1.2498 -0.0696  0.1618
18598TIP3   OH277208   1.993   4.641  12.524  0.8429 -0.1034  0.3446
18598TIP3    H177209   1.930   4.589  12.474  1.9474 -2.6188  1.4829
18598TIP3    H277210   2.079   4.608  12.496  1.5285  0.2704  1.9578
18599TIP3   OH277211   5.815   4.008  15.191  0.6760  0.4256  0.2412
18599TIP3    H177212   5.811   4.011  15.095  2.1990 -0.7097  0.1233
18599TIP3    H277213   5.901   4.045  15.212 -0.0796  1.6341  1.2345
18600TIP3   OH277214   6.156   1.855  12.739  0.4910 -0.1368 -0.4484
18600TIP3    H177215   6.117   1.796  12.804  0.0748 -0.3068 -0.8552
18600TIP3    H277216   6.085   1.914  12.713  0.6605 -0.0582 -0.7381
18601TIP3   OH277217   4.903   0.117   3.044  0.0439  0.3988 -0.1522
18601TIP3    H177218   4.926   0.131   3.136  1.2333  1.8267 -0.6386
18601TIP3    H277219   4.839   0.047   3.045  0.9453 -0.4214  1.6823
18602TIP3   OH277220   1.741   3.637   6.272 -0.1775  0.9856  0.0954
18602TIP3    H177221   1.708   3.564   6.324  0.4615  0.6106 -0.0345
18602TIP3    H277222   1.832   3.646   6.298 -0.3808  2.0466  0.4673
18603TIP3   OH277223   1.912   5.204   5.203  0.3468 -0.6553 -0.4712
18603TIP3    H177224   1.859   5.136   5.246 -0.2429  0.2711  0.3068
18603TIP3    H277225   1.888   5.198   5.111  0.0137 -1.2577 -0.3538
18604TIP3   OH277226   0.790   1.010  15.121  0.3361 -0.1043  0.4769
18604TIP3    H177227   0.706   0.964  15.126 -0.8539  2.0000  0.7107
18604TIP3    H277228   0.795   1.058  15.204  1.3878  0.4287  0.1071
18605TIP3   OH277229   1.874   3.759  11.337  0.5483 -0.5135  0.5819
18605TIP3    H177230   1.919   3.695  11.392 -0.0309 -0.6383  0.9162
18605TIP3    H277231   1.928   3.764  11.258 -0.4435 -2.8981 -0.3015
18606TIP3   OH277232   5.459   2.483   4.823 -0.1912 -0.1593 -0.5655
18606TIP3    H177233   5.403   2.491   4.746 -1.6028  0.4212  0.4931
18606TIP3    H277234   5.513   2.406   4.805 -1.6088 -0.9777 -1.4597
18607TIP3   OH277235   4.113   4.187   0.691 -0.1632  0.1230  0.4104
18607TIP3    H177236   4.108   4.139   0.773 -0.4905  1.6560  1.3030
18607TIP3    H277237   4.166   4.264   0.711 -0.9792  0.9617 -0.5937
18608TIP3   OH277238   0.193   6.107  11.464 -0.0585  0.2538  0.4070
18608TIP3    H177239   0.102   6.139  11.464  0.1821  0.9880  2.2810
18608TIP3    H277240   0.186   6.017  11.495 -0.1489  0.2844  0.4762
18609TIP3   OH277241   1.054   6.626   5.420  0.5770  0.0643  0.6345
18609TIP3    H177242   0.995   6.553   5.400 -1.3164  1.9003 -0.6764
18609TIP3    H277243   1.139   6.598   5.386  0.0145 -1.7632  0.6777
18610TIP3   OH277244   6.232   3.570   4.655 -0.8016 -0.2134  0.3636
18610TIP3    H177245   6.274   3.608   4.578 -1.6878 -1.4038 -0.7361
18610TIP3    H277246   6.144   3.546   4.625 -1.7507  0.8512  2.2249
18611TIP3   OH277247   2.365   1.302   5.267  0.3853 -0.3355  0.0913
18611TIP3    H177248   2.316   1.237   5.318 -0.3115  0.8678  1.0125
18611TIP3    H277249   2.448   1.311   5.313  0.5732 -0.7290 -0.1669
18612TIP3   OH277250   2.461   2.672   0.023  0.0900 -0.1286 -0.4619
18612TIP3    H177251   2.389   2.609   0.015 -0.2353  0.5047 -2.6748
18612TIP3    H277252   2.443   2.718   0.105 -0.0984 -2.3548  0.7978
18613TIP3   OH277253   0.878   4.009   0.823  0.0101 -0.6098 -0.4847
18613TIP3    H177254   0.960   4.046   0.857 -0.6560  0.3709  0.0885
18613TIP3    H277255   0.830   3.981   0.901 -0.7841  0.0887 -0.7099
18614TIP3   OH277256   1.310   1.019  14.420  0.6360  0.0859  0.1142
18614TIP3    H177257   1.282   0.929  14.436  0.9300  0.0822  0.6314
18614TIP3    H277258   1.233   1.063  14.386  0.3435 -0.2306  0.3661
18615TIP3   OH277259   5.203   0.069  13.093 -0.0960 -0.1235  0.7673
18615TIP3    H177260   5.112   0.062  13.121 -1.0010 -0.5253 -2.0446
18615TIP3    H277261   5.212   0.159  13.062 -0.3116 -0.7776 -1.3051
18616TIP3   OH277262   4.311   5.997   2.163 -0.4768  0.0214 -0.3756
18616TIP3    H177263   4.346   5.947   2.236 -0.6234 -2.2726 -1.8433
18616TIP3    H277264   4.371   6.072   2.154 -0.0747 -0.0376  1.6271
18617TIP3   OH277265   1.104   5.505  16.177 -0.3095  0.2241 -0.3129
18617TIP3    H177266   1.116   5.574  16.242 -1.7287  0.8873 -0.7446
18617TIP3    H277267   1.186   5.506  16.127  0.4237  0.3194  0.8680
18618TIP3   OH277268   0.442   6.170  15.722  0.1505  0.3184 -0.2760
18618TIP3    H177269   0.381   6.232  15.682 -0.2137  0.7238  0.9031
18618TIP3    H277270   0.521   6.221  15.740  0.4683  0.0371 -0.8425
18619TIP3   OH277271   4.676   5.701  12.387  0.8051 -0.1465  0.3370
18619TIP3    H177272   4.699   5.704  12.480  0.8109  1.4210  0.2887
18619TIP3    H277273   4.756   5.675  12.343  0.9080 -0.5062  0.7318
18620TIP3   OH277274   4.051   2.882  13.451  0.4613 -0.4254  0.4462
18620TIP3    H177275   3.981   2.823  13.479  1.0447 -0.3500  2.0933
18620TIP3    H277276   4.007   2.964  13.431  0.3627  0.4806  4.0994
18621TIP3   OH277277   3.046   2.623   0.628 -0.3733  0.0132 -0.2074
18621TIP3    H177278   2.952   2.630   0.613 -0.4909  0.5127  0.7598
18621TIP3    H277279   3.063   2.529   0.631 -1.7956 -0.2114  5.4017
18622TIP3   OH277280   1.783   0.895  12.523  0.2559  0.3912 -0.4896
18622TIP3    H177281   1.795   0.928  12.434 -1.1323  1.3136 -0.3499
18622TIP3    H277282   1.771   0.801  12.512 -0.1617  0.5308 -1.3075
18623TIP3   OH277283   5.680   0.520  16.475 -0.6038  0.4695  0.3297
18623TIP3    H177284   5.593   0.524  16.515  0.6309  1.5225  3.0293
18623TIP3    H277285   5.663   0.508  16.381 -3.6751  2.2876  0.5998
18624TIP3   OH277286   5.568   1.297  16.676 -0.2157 -0.8657 -0.2654
18624TIP3    H177287   5.519   1.335  16.603  0.5575  0.2537 -0.2051
18624TIP3    H277288   5.613   1.371  16.716  1.7632 -1.9053 -0.4884
18625TIP3   OH277289   5.982   5.208   3.564  0.3165  0.9714  0.3010
18625TIP3    H177290   5.999   5.140   3.499  0.4568  2.0890 -0.8371
18625TIP3    H277291   5.888   5.226   3.555  0.0846  0.2726  1.2529
18626TIP3   OH277292   5.039   3.126   3.949  0.4162  0.0837  0.0114
18626TIP3    H177293   5.017   3.164   4.033  0.3077 -0.1010  0.0679
18626TIP3    H277294   5.132   3.144   3.937 -0.0748  2.1788 -0.9080
18627TIP3   OH277295   2.075   1.531  14.980 -0.3562 -0.3240 -0.4170
18627TIP3    H177296   2.163   1.495  14.980 -0.3643 -0.3991  2.4947
18627TIP3    H277297   2.081   1.611  15.033 -1.8778  0.0742 -0.8126
18628TIP3   OH277298   6.651   1.069  13.064  0.0134 -0.2679  0.1381
18628TIP3    H177299   6.627   0.980  13.037 -0.5136 -0.0764 -0.0362
18628TIP3    H277300   6.713   1.098  12.997  0.3536 -0.5834  0.3137
18629TIP3   OH277301   6.060   3.526  15.133  0.2557 -0.1496  0.1641
18629TIP3    H177302   6.146   3.559  15.105  0.9182  0.4309  2.7445
18629TIP3    H277303   6.071   3.507  15.226 -1.5410 -3.1099 -0.1700
18630TIP3   OH277304   4.638   6.421  14.470 -0.2497  0.5358 -0.6351
18630TIP3    H177305   4.623   6.437  14.563  3.1636 -1.2151  0.2747
18630TIP3    H277306   4.665   6.330  14.466 -1.5116  0.2522 -3.5195
18631TIP3   OH277307   2.254   2.921   2.381  0.2334  0.0023  0.1368
18631TIP3    H177308   2.223   2.869   2.306  0.4613 -0.8132  0.6074
18631TIP3    H277309   2.347   2.936   2.362  0.3285 -0.3354  0.3234
18632TIP3   OH277310   1.434   0.787  14.187 -0.0839  0.1626  0.1139
18632TIP3    H177311   1.431   0.700  14.227 -2.1632  0.5616  0.9017
18632TIP3    H277312   1.477   0.773  14.103  0.0505 -1.5415  0.4433
18633TIP3   OH277313   6.253   4.254  11.690  0.4743 -0.0099 -0.0551
18633TIP3    H177314   6.205   4.295  11.618  1.7778  0.6165 -0.5838
18633TIP3    H277315   6.190   4.193  11.729 -0.0689 -0.7590 -2.0525
18634TIP3   OH277316   4.230   2.052  11.036  0.2389 -0.2353  0.7179
18634TIP3    H177317   4.293   1.994  10.993 -1.4757  0.1233 -2.3865
18634TIP3    H277318   4.145   2.019  11.010 -0.8003  3.7390 -1.2945
18635TIP3   OH277319   1.637   6.587  15.368  0.2262  0.3143 -0.1765
18635TIP3    H177320   1.673   6.639  15.440  0.2331 -1.5478  1.2171
18635TIP3    H277321   1.550   6.561  15.398  0.2407 -0.5170 -0.8313
18636TIP3   OH277322   0.964   2.007   2.349 -0.4138 -0.3098 -0.3235
18636TIP3    H177323   0.892   1.950   2.321 -1.2710  0.4476  0.2843
18636TIP3    H277324   0.923   2.070   2.409  0.6037  0.6416 -0.5949
18637TIP3   OH277325   2.819   3.310   0.181  0.5286 -0.3253  0.7113
18637TIP3    H177326   2.805   3.394   0.138 -0.2852 -0.1872  1.2141
18637TIP3    H277327   2.914   3.299   0.185  0.7198  1.6352  2.6431
18638TIP3   OH277328   6.271   2.715  15.799 -0.0420  0.3009  0.4815
18638TIP3    H177329   6.273   2.674  15.713  0.3017  1.9101 -0.3018
18638TIP3    H277330   6.250   2.644  15.859 -1.4102 -0.6470 -1.0554
18639TIP3   OH277331   3.646   0.492  10.731  0.1144  1.0726 -0.5719
18639TIP3    H177332   3.582   0.429  10.700 -1.4563  2.1194  0.4375
18639TIP3    H277333   3.704   0.507  10.656  1.1481 -2.2679 -0.5254
18640TIP3   OH277334   1.998   2.819   4.222  0.3111  0.2839  0.4004
18640TIP3    H177335   2.090   2.796   4.218  0.1283 -0.3791 -0.1245
18640TIP3    H277336   1.984   2.877   4.147  0.0862 -0.3907 -0.0739
18641TIP3   OH277337   2.742   3.077  13.819  0.0787  0.0924 -0.1726
18641TIP3    H177338   2.675   3.099  13.885  1.2268  1.6189  0.5268
18641TIP3    H277339   2.798   3.013  13.863 -1.0924 -1.4458 -0.8780
18642TIP3   OH277340   3.856   1.081   2.894  0.4473 -0.6694  0.7404
18642TIP3    H177341   3.833   1.000   2.849  0.3265 -1.1248  1.5998
18642TIP3    H277342   3.864   1.056   2.986 -0.5274  0.4650  1.1607
18643TIP3   OH277343   0.059   2.971  13.122  0.0965 -0.6249 -0.1864
18643TIP3    H177344   0.122   2.939  13.057 -1.7120 -0.2317 -2.2191
18643TIP3    H277345   0.032   2.894  13.170  0.3754 -1.1573 -0.8780
18644TIP3   OH277346   0.325   2.543   5.417  0.5749  0.3808  0.0931
18644TIP3    H177347   0.378   2.612   5.377  0.2621  1.6539  1.8061
18644TIP3    H277348   0.383   2.503   5.482 -0.0052  0.6252  0.7649
18645TIP3   OH277349   3.744   6.480   3.578  0.0265  0.7522  0.3628
18645TIP3    H177350   3.662   6.447   3.542  0.4464  0.2997 -0.2027
18645TIP3    H277351   3.802   6.403   3.580 -0.6366  0.2783  4.0148
18646TIP3   OH277352   6.339   3.799  15.883  0.3621  0.1713  0.2523
18646TIP3    H177353   6.315   3.864  15.817 -0.6949 -0.7289 -0.2520
18646TIP3    H277354   6.274   3.810  15.952  1.4294  1.0731  1.1357
18647TIP3   OH277355   6.567   6.360   5.749  0.1912  0.3083  0.0461
18647TIP3    H177356   6.621   6.303   5.804 -0.1033  0.0636  0.0808
18647TIP3    H277357   6.616   6.443   5.747  0.1548  0.3556  0.7643
18648TIP3   OH277358   0.685   4.253   4.319 -0.3054  0.3791  0.2953
18648TIP3    H177359   0.597   4.264   4.284 -0.1220 -0.0759 -0.3326
18648TIP3    H277360   0.733   4.330   4.289  0.2560 -0.7303 -1.7847
18649TIP3   OH277361   2.328   0.129  12.367 -0.5320 -0.2391 -0.0171
18649TIP3    H177362   2.310   0.175  12.448 -1.0812 -0.0454 -0.2417
18649TIP3    H277363   2.250   0.075  12.352 -0.0711 -0.9280  0.0325
18650TIP3   OH277364   4.569   3.849  13.772  0.3358 -0.1012  0.9207
18650TIP3    H177365   4.610   3.922  13.725 -0.2445  0.5170  1.3703
18650TIP3    H277366   4.476   3.858  13.755  0.0822  0.3282  2.4574
18651TIP3   OH277367   0.019   5.689   4.628 -0.1235 -0.0067  0.4296
18651TIP3    H177368  -0.030   5.695   4.710  0.4846  0.2373  0.7781
18651TIP3    H277369  -0.036   5.735   4.564 -0.9742 -0.8779  0.5172
18652TIP3   OH277370   5.612   1.868   3.007  0.1456  0.2643  0.3157
18652TIP3    H177371   5.684   1.818   2.967 -0.7183 -0.3494 -0.5223
18652TIP3    H277372   5.629   1.863   3.101  0.3922 -1.1635  0.2193
18653TIP3   OH277373   3.321   3.759  11.800  0.1644 -0.3290  0.1909
18653TIP3    H177374   3.253   3.691  11.799 -1.8236  1.6031 -1.5099
18653TIP3    H277375   3.279   3.834  11.843  2.0502  0.1484  1.2758
18654TIP3   OH277376   5.883   4.850   3.569  0.1893 -0.1328  0.4708
18654TIP3    H177377   5.921   4.894   3.493  0.3823  0.1405  0.7260
18654TIP3    H277378   5.811   4.798   3.533  0.9110 -0.7956 -0.0432
18655TIP3   OH277379   3.302   5.122  13.151 -0.0389  0.4025 -0.1184
18655TIP3    H177380   3.218   5.103  13.109  0.0361 -2.7188  1.0222
18655TIP3    H277381   3.290   5.095  13.242  2.2145 -0.1925  0.0265
18656TIP3   OH277382   6.350   6.140   4.347 -0.0402  0.2128 -0.0347
18656TIP3    H177383   6.336   6.230   4.379  0.2821  0.0999  0.4252
18656TIP3    H277384   6.286   6.130   4.277 -1.6327  0.0321  1.4083
18657TIP3   OH277385   1.828   1.421   2.509 -0.6189  0.2034 -0.5136
18657TIP3    H177386   1.816   1.369   2.589  3.6030  1.1308  0.8426
18657TIP3    H277387   1.838   1.355   2.440 -0.6744 -0.6860  0.3074
18658TIP3   OH277388   1.479   3.634   4.654  0.3468 -0.1334  0.3119
18658TIP3    H177389   1.493   3.703   4.588  0.8900  0.0578  0.6245
18658TIP3    H277390   1.530   3.662   4.729  1.8463 -1.6558 -0.1066
18659TIP3   OH277391   2.719   4.184  14.589  0.1448  0.5204  0.1741
18659TIP3    H177392   2.744   4.271  14.556 -0.0043  0.5431  0.1201
18659TIP3    H277393   2.737   4.125  14.515  0.2190  0.5093  0.1999
18660TIP3   OH277394   3.811   4.331  15.003  0.5103  0.2663  0.2165
18660TIP3    H177395   3.851   4.411  14.971  0.1116  1.3318  2.2815
18660TIP3    H277396   3.762   4.296  14.928  2.0528  1.0432 -1.1738
18661TIP3   OH277397   1.851   0.928  16.759  0.4266 -0.2742 -0.1230
18661TIP3    H177398   1.836   0.852  16.703 -0.4260 -0.0368 -0.2340
18661TIP3    H277399   1.916   0.980  16.712  2.2288 -1.7058  0.7289
18662TIP3   OH277400   3.357   2.055   3.923 -0.5709  0.5976  0.2281
18662TIP3    H177401   3.298   1.988   3.957  1.1139 -0.8902  0.3208
18662TIP3    H277402   3.307   2.136   3.928 -3.0198 -0.7823 -0.7970
18663TIP3   OH277403   3.974   2.814   1.555  0.0024 -0.0037  0.4872
18663TIP3    H177404   3.959   2.744   1.619 -0.5301  0.1016  0.4790
18663TIP3    H277405   3.888   2.853   1.542 -0.0813 -0.6591 -1.0222
18664TIP3   OH277406   5.299   4.670  17.110 -0.1033  0.3607 -0.1191
18664TIP3    H177407   5.343   4.595  17.150  0.9199  0.1279 -1.6305
18664TIP3    H277408   5.369   4.735  17.098  0.0406 -0.2859 -3.2204
18665TIP3   OH277409   5.706   3.122  17.125  0.0337  0.1646 -0.2198
18665TIP3    H177410   5.736   3.040  17.165 -0.8493 -1.2206 -2.3179
18665TIP3    H277411   5.761   3.133  17.048 -2.1026 -0.2799 -1.8609
18666TIP3   OH277412   5.150   1.620  14.663 -0.2790 -0.3483  0.3378
18666TIP3    H177413   5.168   1.526  14.654 -0.6370 -0.4102  0.2720
18666TIP3    H277414   5.236   1.660  14.674 -0.2104 -0.8377  1.7600
18667TIP3   OH277415   6.441   6.784   3.613  0.3601  0.3189  0.1221
18667TIP3    H177416   6.401   6.745   3.536 -0.7288 -0.4588  1.0713
18667TIP3    H277417   6.403   6.737   3.687  3.0353 -0.4678  1.0723
18668TIP3   OH277418   4.668   0.797  14.148 -0.2320 -0.3761 -0.3860
18668TIP3    H177419   4.716   0.817  14.067 -0.3943  0.5024 -0.2728
18668TIP3    H277420   4.618   0.718  14.128  0.9546 -1.0790 -0.6350
18669TIP3   OH277421   0.659   3.287   2.272 -0.1386  0.4467 -0.4535
18669TIP3    H177422   0.636   3.304   2.363  1.0686  0.5120 -0.1456
18669TIP3    H277423   0.605   3.212   2.247 -3.1525  2.6989 -0.8364
18670TIP3   OH277424   6.739   5.203   5.187 -0.4092 -0.2512 -0.0586
18670TIP3    H177425   6.730   5.240   5.099  0.9553  3.8409  1.3722
18670TIP3    H277426   6.650   5.200   5.221 -0.6629  0.7497 -0.6070
18671TIP3   OH277427   3.287   1.614   3.131  0.4111  0.3104  0.3533
18671TIP3    H177428   3.244   1.664   3.201 -0.8034 -0.9858  0.5439
18671TIP3    H277429   3.322   1.536   3.174  1.1276  0.3217 -0.1876
18672TIP3   OH277430   5.492   1.963  14.910 -0.0901  0.6817 -0.2676
18672TIP3    H177431   5.398   1.969  14.927 -0.4842  0.9420 -2.3824
18672TIP3    H277432   5.513   1.870  14.921 -0.6799  0.5567 -0.1893
18673TIP3   OH277433   2.485   3.303  14.526 -0.0287  0.1981  0.3206
18673TIP3    H177434   2.496   3.386  14.572 -0.0150 -0.3732  1.3777
18673TIP3    H277435   2.434   3.249  14.586  1.0387 -0.9867  0.1929
18674TIP3   OH277436   4.254   1.701  16.741  0.5458  0.0930 -0.4095
18674TIP3    H177437   4.185   1.766  16.755  0.8623  0.7763 -1.8570
18674TIP3    H277438   4.243   1.673  16.651  2.2408  0.3347 -0.7177
18675TIP3   OH277439   3.164   1.228  14.429  0.0309 -0.3635  0.3874
18675TIP3    H177440   3.223   1.255  14.358  0.4867  0.0531  0.9259
18675TIP3    H277441   3.222   1.191  14.496 -0.3398 -0.1405  0.8298
18676TIP3   OH277442   2.976   3.987   0.695 -0.4876  0.3631  0.0135
18676TIP3    H177443   2.965   4.026   0.608  0.7417 -0.5554 -0.5705
18676TIP3    H277444   2.904   3.925   0.702 -1.2816  1.2880  0.1337
18677TIP3   OH277445   1.332   6.259  14.481 -0.5334 -0.0311 -0.0645
18677TIP3    H177446   1.371   6.212  14.407 -0.3852  3.1496 -2.1054
18677TIP3    H277447   1.239   6.237  14.477 -0.7887  1.2537 -2.1772
18678TIP3   OH277448   2.285   0.646  16.452 -0.3588 -0.1581 -0.4908
18678TIP3    H177449   2.196   0.674  16.430 -0.0646  1.0449 -0.1597
18678TIP3    H277450   2.311   0.703  16.525 -0.8638 -3.2527  2.2213
18679TIP3   OH277451   1.255   3.899   0.053 -0.4226 -0.3940 -0.1019
18679TIP3    H177452   1.324   3.841   0.085 -0.6789 -0.1736  0.8569
18679TIP3    H277453   1.216   3.851  -0.021  1.6961  0.1233 -1.5888
18680TIP3   OH277454   2.747   5.572  17.206 -0.4916 -0.2066 -0.3767
18680TIP3    H177455   2.757   5.601  17.297 -0.2828  0.0092 -0.4716
18680TIP3    H277456   2.654   5.585  17.188 -0.7446 -1.2463  0.1483
18681TIP3   OH277457   4.713   4.034   5.574 -0.0690  0.8964  0.1807
18681TIP3    H177458   4.632   3.998   5.537  1.4645 -0.7924 -1.6520
18681TIP3    H277459   4.736   3.974   5.644 -1.4875  2.5589  2.1355
18682TIP3   OH277460   5.664   3.696   3.826 -0.1560  0.3722 -0.5673
18682TIP3    H177461   5.686   3.636   3.755 -1.7425 -0.7787 -0.1148
18682TIP3    H277462   5.578   3.731   3.801 -0.0877  1.0173  0.0996
18683TIP3   OH277463   3.034   2.140   1.780 -0.2364 -0.6766 -0.3585
18683TIP3    H177464   3.025   2.212   1.843  0.5073 -0.5370 -0.4079
18683TIP3    H277465   3.034   2.061   1.834 -0.8894 -0.6322 -0.2899
18684TIP3   OH277466   6.763   3.401  14.119  0.0344 -0.3163 -0.5571
18684TIP3    H177467   6.728   3.383  14.032 -0.5477 -1.8139 -0.0242
18684TIP3    H277468   6.715   3.480  14.147 -0.1436 -0.1265 -1.3730
18685TIP3   OH277469   4.220   5.853  14.396 -0.3643  0.7826  0.3520
18685TIP3    H177470   4.283   5.827  14.328 -0.1640  0.3362  0.7078
18685TIP3    H277471   4.255   5.817  14.477 -2.5830 -2.0912  0.1133
18686TIP3   OH277472   6.449   6.374  16.415  0.5640 -0.6745  0.0325
18686TIP3    H177473   6.538   6.406  16.408 -0.3319  2.4410  2.0845
18686TIP3    H277474   6.451   6.314  16.490  0.7994 -0.1184  0.4729
18687TIP3   OH277475   0.610   3.373  11.605  0.4380  0.3290  0.4388
18687TIP3    H177476   0.556   3.436  11.558  1.7492  1.2865  0.1964
18687TIP3    H277477   0.664   3.332  11.538  1.4943  0.8772  0.9336
18688TIP3   OH277478   4.252   6.301   5.276 -0.0155  0.5757 -0.0764
18688TIP3    H177479   4.192   6.359   5.229 -0.4051 -0.7592 -1.2770
18688TIP3    H277480   4.277   6.350   5.355 -1.8564  1.5648 -0.0915
18689TIP3   OH277481   1.192   6.016   1.774 -0.3323  0.2085 -0.1376
18689TIP3    H177482   1.143   6.016   1.691 -0.3095  1.0091 -0.1517
18689TIP3    H277483   1.218   5.925   1.786 -1.7328 -0.2204 -0.1948
18690TIP3   OH277484   2.317   5.238   4.201 -0.1021  0.7764 -0.5998
18690TIP3    H177485   2.334   5.307   4.265  1.2063  0.9776 -1.1557
18690TIP3    H277486   2.289   5.163   4.254  0.6663  1.0395  0.1954
18691TIP3   OH277487   3.818   3.458  13.887  0.1526 -0.6248 -0.2266
18691TIP3    H177488   3.905   3.477  13.921  0.9231  0.0819 -2.5664
18691TIP3    H277489   3.826   3.373  13.844  0.4402  0.7137 -2.9301
18692TIP3   OH277490   3.964   1.777  13.085  0.7430 -0.3282 -0.0398
18692TIP3    H177491   4.042   1.739  13.045  0.0989 -0.5960 -1.0894
18692TIP3    H277492   3.990   1.866  13.110  1.9199 -1.0637  1.3576
18693TIP3   OH277493   6.512   2.208   3.300 -0.3572  0.3520  0.1476
18693TIP3    H177494   6.553   2.153   3.232 -0.4933 -0.0806  0.4180
18693TIP3    H277495   6.571   2.284   3.307 -1.9749  1.9905 -2.7137
18694TIP3   OH277496   3.339   1.948  10.745  0.5457 -0.5990 -0.0276
18694TIP3    H177497   3.382   1.867  10.772 -0.0062 -0.6180  0.8076
18694TIP3    H277498   3.248   1.924  10.731  0.2689 -0.0195  0.7235
18695TIP3   OH277499   2.162   0.808   1.517 -0.1236  0.0403  0.0598
18695TIP3    H177500   2.092   0.811   1.451  0.3817  2.1622 -0.4264
18695TIP3    H277501   2.116   0.813   1.601 -0.7000 -1.4284 -0.1598
18696TIP3   OH277502   3.635   2.962  14.452  0.4618 -0.2809  0.0226
18696TIP3    H177503   3.656   2.895  14.387  0.1277 -0.6396  0.2759
18696TIP3    H277504   3.548   2.937  14.483  0.4961  0.0608  0.3891
18697TIP3   OH277505   1.326   3.672  15.075 -0.1126 -0.0527 -0.1783
18697TIP3    H177506   1.345   3.645  14.985  0.5341 -1.0695  0.2477
18697TIP3    H277507   1.304   3.590  15.119 -1.2991  0.5633  0.3792
18698TIP3   OH277508   4.842   0.457  16.112  0.2252 -0.2140 -0.1535
18698TIP3    H177509   4.880   0.376  16.078 -0.0445 -1.2155  1.8354
18698TIP3    H277510   4.916   0.505  16.148  0.3139  0.1709 -0.8586
18699TIP3   OH277511   2.631   2.783   2.537  0.2213 -0.2917 -0.3348
18699TIP3    H177512   2.578   2.809   2.462  0.5101  1.6547  0.1069
18699TIP3    H277513   2.710   2.743   2.498 -0.1765 -0.3983 -1.0368
18700TIP3   OH277514   1.620   5.556   1.352  0.1164  0.2181 -0.4899
18700TIP3    H177515   1.636   5.479   1.407  1.9641 -0.1063 -1.4394
18700TIP3    H277516   1.594   5.520   1.267  1.1762  0.6178 -0.9947
18701TIP3   OH277517   0.451   2.749   5.288  0.2234  0.0738  0.2068
18701TIP3    H177518   0.495   2.794   5.361  0.9149 -1.3271  0.6700
18701TIP3    H277519   0.459   2.809   5.214  3.1439 -0.2559  0.2201
18702TIP3   OH277520   0.518   4.410   1.198  0.5210  0.4268  0.2824
18702TIP3    H177521   0.488   4.465   1.270  1.0832  1.5063 -0.2962
18702TIP3    H277522   0.514   4.321   1.232 -1.4656  0.7100  0.8712
18703TIP3   OH277523   0.549   2.885   4.117  0.4208  0.2804 -0.3859
18703TIP3    H177524   0.642   2.871   4.135  0.7537  0.7205 -1.6793
18703TIP3    H277525   0.506   2.879   4.202  1.4367 -1.5283  0.0202
18704TIP3   OH277526   5.604   3.144  12.138 -0.2548  0.0991 -0.8271
18704TIP3    H177527   5.634   3.211  12.076 -1.7657  2.2232  0.6789
18704TIP3    H277528   5.679   3.128  12.195 -0.4130  1.8807 -0.0747
18705TIP3   OH277529   5.286   2.034  15.849 -0.1389 -0.1216  0.6866
18705TIP3    H177530   5.275   2.007  15.758 -0.6862  0.1396  0.6717
18705TIP3    H277531   5.329   1.959  15.891 -1.2156 -0.8348  0.5378
18706TIP3   OH277532   3.213   5.202   4.981  0.1582  0.1947  0.6758
18706TIP3    H177533   3.255   5.124   5.017 -1.0044 -0.9927 -0.4909
18706TIP3    H277534   3.280   5.269   4.986  1.3599 -1.0153  1.1959
18707TIP3   OH277535   1.442   1.633  11.504  0.5515  0.1349 -0.0121
18707TIP3    H177536   1.371   1.666  11.560  0.9625  2.1776 -0.6770
18707TIP3    H277537   1.427   1.675  11.419  1.4819 -0.9003 -0.7060
18708TIP3   OH277538   3.550   6.405   2.256 -0.1524 -0.6340 -0.2275
18708TIP3    H177539   3.477   6.378   2.200 -0.3467 -1.1958  0.2855
18708TIP3    H277540   3.523   6.491   2.289 -0.9759 -1.2081  0.6251
18709TIP3   OH277541   0.998   3.829   5.042 -0.4217  0.1322  0.5162
18709TIP3    H177542   0.987   3.734   5.034  1.6014 -0.0798 -0.2047
18709TIP3    H277543   0.911   3.865   5.027 -0.6281 -1.4399 -2.5467
18710TIP3   OH277544   0.974   2.166  10.955  0.4541 -0.6261 -0.0210
18710TIP3    H177545   0.879   2.159  10.964  0.1047 -0.8579 -3.4104
18710TIP3    H277546   1.006   2.080  10.983 -0.3942 -0.8788  0.2165
18711TIP3   OH277547   4.138   4.031   1.415 -0.3222  0.0650 -0.3945
18711TIP3    H177548   4.167   4.037   1.506 -0.7473 -1.4300 -0.1482
18711TIP3    H277549   4.073   4.101   1.405 -1.4476 -0.7725  0.9016
18712TIP3   OH277550   4.385   1.080   1.766 -0.2983 -0.2010  0.2209
18712TIP3    H177551   4.291   1.067   1.766 -0.4058  0.5380  0.5802
18712TIP3    H277552   4.397   1.166   1.724  0.2656 -0.6699 -0.5868
18713TIP3   OH277553   2.968   2.203   3.090  0.1813 -0.2464  0.1541
18713TIP3    H177554   3.062   2.217   3.080  0.1376  0.0587  0.1758
18713TIP3    H277555   2.945   2.148   3.015  0.7022 -1.8351  1.1370
18714TIP3   OH277556   2.254   5.942  17.168  0.2833  0.2152 -0.0845
18714TIP3    H177557   2.215   5.868  17.213  1.9140 -0.0820  0.8743
18714TIP3    H277558   2.308   5.903  17.099  1.5088  0.4664  0.7108
18715TIP3   OH277559   0.943   2.759  16.597  0.3092 -0.2141 -0.4150
18715TIP3    H177560   0.854   2.773  16.629  0.0032 -0.7623 -1.0332
18715TIP3    H277561   0.976   2.686  16.649  1.3290  1.6882  1.6499
18716TIP3   OH277562   1.142   5.517   3.452  0.0966  0.7523 -0.3596
18716TIP3    H177563   1.238   5.521   3.452  0.2178 -1.4182  0.7456
18716TIP3    H277564   1.121   5.459   3.379 -0.1488 -2.0655  1.8714
18717TIP3   OH277565   5.141   6.751  13.455 -0.1975 -0.7442  0.2404
18717TIP3    H177566   5.070   6.700  13.416 -0.0441 -0.2141 -0.7449
18717TIP3    H277567   5.119   6.842  13.436  1.3346 -0.6380 -1.1207
18718TIP3   OH277568   0.741   5.793  13.678 -0.7433 -0.2356 -0.2077
18718TIP3    H177569   0.778   5.756  13.758  0.5476 -1.8015 -1.4888
18718TIP3    H277570   0.769   5.884  13.678  1.5016 -0.9033 -0.1882
18719TIP3   OH277571   0.354   5.675   2.217  0.0326 -0.0840  0.4172
18719TIP3    H177572   0.431   5.720   2.253  0.4345 -1.3750  1.2353
18719TIP3    H277573   0.285   5.692   2.281  0.2054 -0.6541  0.7684
18720TIP3   OH277574   2.564   0.177  11.376 -0.0193  1.0177  0.5725
18720TIP3    H177575   2.515   0.117  11.432  3.2676 -2.4950 -0.2030
18720TIP3    H277576   2.506   0.193  11.302 -0.8899 -1.2712  0.7432
18721TIP3   OH277577   3.962   6.414  14.085 -0.2921 -0.4111  0.7268
18721TIP3    H177578   3.943   6.507  14.081  1.2503 -0.0795  0.7143
18721TIP3    H277579   3.936   6.381  13.999 -0.3248  0.1068  0.5360
18722TIP3   OH277580   5.741   5.064   1.623 -0.0399  0.0882  0.4011
18722TIP3    H177581   5.695   5.028   1.548 -0.0752  0.1132  0.4112
18722TIP3    H277582   5.692   5.143   1.646  0.7587  0.8230 -0.3871
18723TIP3   OH277583   4.372   0.559  11.415 -0.5896  0.5089  0.2424
18723TIP3    H177584   4.401   0.575  11.505  0.5337  2.9094 -0.4894
18723TIP3    H277585   4.448   0.517  11.373 -0.4270  1.0584 -0.0301
18724TIP3   OH277586   2.553   0.949  14.023 -0.3503 -0.4312 -0.8410
18724TIP3    H177587   2.614   1.014  13.988 -1.0195  0.0005 -1.2138
18724TIP3    H277588   2.602   0.906  14.093 -0.5543  1.7976  0.7358
18725TIP3   OH277589   4.326   2.256  15.285 -0.1728  0.0411 -0.2529
18725TIP3    H177590   4.330   2.183  15.347  0.1930 -0.8532 -1.3090
18725TIP3    H277591   4.355   2.332  15.335 -0.2702 -0.5952  0.7804
18726TIP3   OH277592   1.199   5.238  14.571 -0.0672 -0.0389  0.5983
18726TIP3    H177593   1.133   5.250  14.640  0.4341  0.4985  0.9885
18726TIP3    H277594   1.186   5.148  14.540 -1.6961  0.4207 -0.0782
18727TIP3   OH277595   6.067   0.831  11.423  0.4051  0.0004  0.1670
18727TIP3    H177596   6.109   0.877  11.495 -0.4107  0.6375  0.2304
18727TIP3    H277597   6.135   0.771  11.390  1.6370  1.6177 -0.2678
18728TIP3   OH277598   3.730   0.443  16.819 -0.1805 -0.5202 -0.2285
18728TIP3    H177599   3.737   0.492  16.900 -0.7770  0.9898 -1.0752
18728TIP3    H277600   3.638   0.453  16.792  0.7684  1.8487 -2.8331
18729TIP3   OH277601   5.087   6.504  14.395  0.0921  0.1656 -0.2208
18729TIP3    H177602   5.085   6.508  14.491  1.1425  1.8674 -0.2521
18729TIP3    H277603   5.175   6.535  14.372  0.0323 -0.7365 -1.7198
18730TIP3   OH277604   4.429   4.941   0.175 -0.0351 -0.3827 -0.0267
18730TIP3    H177605   4.379   4.860   0.164 -4.3493  1.8765  1.5543
18730TIP3    H277606   4.433   4.979   0.087  2.0088 -2.2286 -0.7773
18731TIP3   OH277607   5.748   1.469  11.224  0.8789  0.1463 -0.3859
18731TIP3    H177608   5.774   1.480  11.315  1.0888  0.3154 -0.4656
18731TIP3    H277609   5.786   1.385  11.197  0.8936  0.1403 -0.3460
18732TIP3   OH277610   4.409   1.935  12.478 -0.3900 -0.0704 -0.1677
18732TIP3    H177611   4.500   1.963  12.475  0.3106 -2.2174  0.3849
18732TIP3    H277612   4.362   2.009  12.517  1.3775  0.4051  1.1122
18733TIP3   OH277613   2.411   2.544  12.903  0.0280 -0.1766  0.3580
18733TIP3    H177614   2.474   2.472  12.909  0.4667  0.1254 -0.5379
18733TIP3    H277615   2.336   2.515  12.954  0.7176 -0.7343  1.0569
18734TIP3   OH277616   4.633   4.858   5.865  0.2851 -0.7082  0.3807
18734TIP3    H177617   4.577   4.934   5.880  1.1884 -0.1677  1.0845
18734TIP3    H277618   4.646   4.820   5.952  3.5233  0.9849  0.7307
18735TIP3   OH277619   0.220   1.144   3.082  0.0773  0.5021 -0.1066
18735TIP3    H177620   0.187   1.206   3.017 -0.4592  0.3102 -0.0229
18735TIP3    H277621   0.141   1.106   3.121  0.4068 -1.1270 -1.0018
18736TIP3   OH277622   5.032   5.915  15.941  0.9678  0.2206  0.6357
18736TIP3    H177623   4.991   5.953  16.019 -0.0477  0.4409  0.0056
18736TIP3    H277624   4.970   5.933  15.871  2.1424  0.5249 -0.3351
18737TIP3   OH277625   0.342   5.372  15.715  0.2893  0.1344  0.3653
18737TIP3    H177626   0.348   5.351  15.622 -1.7505  2.9003 -0.4610
18737TIP3    H277627   0.280   5.308  15.750  1.0859 -0.9370 -0.1710
18738TIP3   OH277628   4.664   6.495  15.351 -0.2423 -0.2131 -0.6017
18738TIP3    H177629   4.642   6.469  15.441 -0.5126  0.7719 -0.3726
18738TIP3    H277630   4.703   6.417  15.312  3.2541  0.3908  1.4852
18739TIP3   OH277631   3.447   3.269  13.824 -0.2767  0.6363 -0.1603
18739TIP3    H177632   3.390   3.244  13.897 -0.0287  0.1447 -0.1357
18739TIP3    H277633   3.415   3.355  13.798  0.1971  1.2046  1.0903
18740TIP3   OH277634   2.551   2.687  11.733 -0.2784 -0.2196 -0.5468
18740TIP3    H177635   2.494   2.624  11.776 -1.5602  0.0658 -1.7839
18740TIP3    H277636   2.635   2.678  11.778 -0.9142 -1.6075  0.4015
18741TIP3   OH277637   4.280   3.494  11.943  0.0098 -0.0784  0.2160
18741TIP3    H177638   4.296   3.403  11.919 -0.0721 -0.1001  0.2415
18741TIP3    H277639   4.305   3.499  12.035  0.6857  0.0945  0.0263
18742TIP3   OH277640   2.521   5.537   0.596  0.0852  0.1883  0.2824
18742TIP3    H177641   2.466   5.615   0.585 -1.0172 -0.7559 -1.0653
18742TIP3    H277642   2.475   5.469   0.548  2.7658 -0.4863 -1.3854
18743TIP3   OH277643   0.499   5.623  13.627  0.2991  0.1500 -0.2387
18743TIP3    H177644   0.421   5.649  13.676 -0.6775 -0.5522 -1.3805
18743TIP3    H277645   0.571   5.669  13.670 -0.7309  0.7679  0.8671
18744TIP3   OH277646   0.641   0.093   1.755 -0.1701 -0.3742 -0.1849
18744TIP3    H177647   0.670   0.184   1.767  1.0155 -0.8067  0.2944
18744TIP3    H277648   0.662   0.051   1.839  0.7269 -1.4669 -0.9507
18745TIP3   OH277649   0.399   5.358  14.070 -0.1033  0.2299 -0.4470
18745TIP3    H177650   0.474   5.311  14.032 -1.7695 -1.9286 -1.1450
18745TIP3    H277651   0.351   5.391  13.994 -0.3972  0.7697 -0.0291
18746TIP3   OH277652   4.054   6.399  12.033 -0.3808  0.0174 -0.0762
18746TIP3    H177653   4.036   6.445  12.115  2.0836 -2.4727  1.9397
18746TIP3    H277654   4.101   6.464  11.980  1.4066  0.4748  2.0022
18747TIP3   OH277655   6.041   4.908   1.876  0.0272 -0.4397 -0.3350
18747TIP3    H177656   5.979   4.906   1.803 -0.3100  0.0086 -0.0672
18747TIP3    H277657   6.029   4.824   1.920 -0.7587 -0.1522  0.0136
18748TIP3   OH277658   1.639   4.190  12.475  0.4904  0.3630  0.1823
18748TIP3    H177659   1.607   4.208  12.386  1.1379 -0.2271 -0.1781
18748TIP3    H277660   1.711   4.129  12.462 -0.6721 -1.2605  1.2641
18749TIP3   OH277661   6.385   3.834  14.062 -0.3814  0.2904 -0.7022
18749TIP3    H177662   6.419   3.752  14.026 -1.7568  0.1449 -1.6828
18749TIP3    H277663   6.341   3.809  14.143 -0.6452  0.0931 -0.9081
18750TIP3   OH277664   0.893   5.709  11.611  0.2282 -0.8079 -0.2396
18750TIP3    H177665   0.811   5.696  11.564 -1.5003 -1.4900  2.8443
18750TIP3    H277666   0.876   5.782  11.669  1.5487 -1.4688  0.9952
18751TIP3   OH277667   1.422   0.094   3.228  0.0177 -0.8759  0.2021
18751TIP3    H177668   1.487   0.111   3.160  0.0188  0.3608  0.5106
18751TIP3    H277669   1.421  -0.002   3.237  1.9864 -0.8856  0.4053
18752TIP3   OH277670   3.354   5.032  15.942 -0.5055  0.2962  0.2351
18752TIP3    H177671   3.441   5.032  15.982 -0.4587  1.4113  0.1499
18752TIP3    H277672   3.293   5.031  16.016 -0.4265 -0.1628  0.2961
18753TIP3   OH277673   1.085   3.543  11.800  0.5772  0.2945 -0.5150
18753TIP3    H177674   1.133   3.476  11.850 -0.6205 -0.6554 -0.5979
18753TIP3    H277675   1.072   3.504  11.714  1.7612  1.5278 -1.2501
18754TIP3   OH277676   6.280   0.359   1.502  0.1383  0.0983 -0.0066
18754TIP3    H177677   6.191   0.342   1.471 -0.1766 -0.2261  1.0664
18754TIP3    H277678   6.302   0.444   1.464 -2.0420  1.9718  2.6720
18755TIP3   OH277679   2.041   5.283   5.616 -0.2726  0.7597 -0.1908
18755TIP3    H177680   2.008   5.227   5.687  2.3115 -0.8265 -0.1408
18755TIP3    H277681   2.116   5.329   5.656 -0.0236  1.3484 -1.3306
18756TIP3   OH277682   6.574   1.942   5.310 -0.0726  0.0616 -0.7708
18756TIP3    H177683   6.580   1.924   5.216 -0.5008 -0.4213 -0.7059
18756TIP3    H277684   6.593   2.035   5.317 -0.0957  0.1139 -1.3440
18757TIP3   OH277685   1.927   2.427  11.604 -0.1317  0.3180 -0.9208
18757TIP3    H177686   1.989   2.453  11.535  0.6242  1.3248  0.1071
18757TIP3    H277687   1.846   2.472  11.581 -0.2152 -0.2671 -1.7800
18758TIP3   OH277688   4.597   6.677  12.338 -0.1156  0.1256 -0.0326
18758TIP3    H177689   4.564   6.742  12.400 -0.6793  0.0269 -0.2231
18758TIP3    H277690   4.646   6.615  12.392  0.7230  0.9026  0.0982
18759TIP3   OH277691   3.424   5.014   4.005 -0.7186 -0.1425 -0.3936
18759TIP3    H177692   3.470   5.036   3.924  0.8650 -2.4956 -0.1900
18759TIP3    H277693   3.383   4.930   3.988  2.1820 -2.2126  2.1620
18760TIP3   OH277694   2.552   1.720  15.626  0.4346 -0.1082 -0.4972
18760TIP3    H177695   2.619   1.759  15.681 -1.0943  1.4496  0.3046
18760TIP3    H277696   2.542   1.631  15.659  0.5152  0.3737  0.8403
18761TIP3   OH277697   1.714   1.028   2.962  0.4514  0.3402 -0.4841
18761TIP3    H177698   1.689   0.957   2.903 -0.9207  0.5209 -0.1245
18761TIP3    H277699   1.636   1.083   2.968  0.1916 -0.2521  2.3395
18762TIP3   OH277700   4.235   0.283   4.128 -0.0472  0.0189  0.2408
18762TIP3    H177701   4.195   0.198   4.148 -0.5084  0.4760  1.2844
18762TIP3    H277702   4.255   0.278   4.034 -1.1475 -0.7896  0.0370
18763TIP3   OH277703   2.748   6.708   3.615  0.4974 -0.3028  0.2363
18763TIP3    H177704   2.761   6.803   3.625  0.6190 -0.5319  2.3830
18763TIP3    H277705   2.806   6.684   3.542 -1.7185  1.7310 -2.3343
18764TIP3   OH277706   3.708   6.558   2.500 -0.2825  0.5573  0.2418
18764TIP3    H177707   3.767   6.575   2.426  1.2959  1.6590  1.7108
18764TIP3    H277708   3.646   6.631   2.499  0.9351  1.6468  1.1189
18765TIP3   OH277709   6.021   2.258   1.111  0.6945  0.6852  0.1334
18765TIP3    H177710   5.949   2.319   1.130  1.2108  0.8130  1.7234
18765TIP3    H277711   5.978   2.185   1.066 -0.0249  1.9237 -1.2462
18766TIP3   OH277712   5.509   2.967  14.723 -0.0763  0.0166 -0.4761
18766TIP3    H177713   5.477   2.953  14.634 -0.8181 -0.1385 -0.1868
18766TIP3    H277714   5.508   3.063  14.734 -0.0696  0.0309 -0.6094
18767TIP3   OH277715   6.132   1.557  15.749 -0.0924  0.3132  0.3714
18767TIP3    H177716   6.178   1.635  15.782  0.5942  0.3316 -0.6098
18767TIP3    H277717   6.086   1.588  15.671  0.5643 -0.3737 -0.2905
18768TIP3   OH277718   2.121   3.861   5.013  0.2219 -0.3837  0.1551
18768TIP3    H177719   2.117   3.787   4.953 -0.9361  0.2864 -0.6116
18768TIP3    H277720   2.035   3.903   5.006  1.1734  1.5855 -0.1371
18769TIP3   OH277721   0.334   5.904   0.860 -0.1515 -0.8200  0.2346
18769TIP3    H177722   0.398   5.896   0.789  0.3021  1.0827  0.4032
18769TIP3    H277723   0.264   5.843   0.837 -0.6119  0.6653 -2.4772
18770TIP3   OH277724   2.982   0.886  13.480 -0.1208 -0.1419  0.4222
18770TIP3    H177725   2.894   0.911  13.505 -0.7065  0.0443 -1.7658
18770TIP3    H277726   3.006   0.947  13.410  1.4838 -0.5964  0.5570
18771TIP3   OH277727   2.731   0.133  15.007 -0.0216  0.1677 -0.3545
18771TIP3    H177728   2.663   0.200  15.001 -0.3691 -0.2743 -1.3633
18771TIP3    H277729   2.707   0.067  14.942  2.1930  0.7302 -1.7841
18772TIP3   OH277730   6.181   0.091   1.677 -0.1454 -0.3148 -0.5179
18772TIP3    H177731   6.130   0.150   1.621  0.1001  1.4375  1.0558
18772TIP3    H277732   6.272   0.120   1.665  0.0257 -0.6489 -0.0433
18773TIP3   OH277733   6.763   3.105   6.799 -0.4325 -0.2632 -0.1914
18773TIP3    H177734   6.727   3.018   6.818  0.2336 -0.2181  1.3502
18773TIP3    H277735   6.852   3.102   6.833 -0.4063  1.0268 -0.1241
18774TIP3   OH277736   3.192   3.343  14.972 -0.7236  0.1109  0.4028
18774TIP3    H177737   3.180   3.415  14.911 -0.6070  1.1232  1.5541
18774TIP3    H277738   3.108   3.337  15.017 -0.0733  0.8891  1.7482
18775TIP3   OH277739   6.235   3.988   3.039  0.5238  0.1909 -0.2915
18775TIP3    H177740   6.206   3.965   3.127 -1.2040  0.8440 -0.6685
18775TIP3    H277741   6.297   4.060   3.051  0.2547  0.3106  0.3721
18776TIP3   OH277742   0.601   2.656   0.144  0.3376 -0.3315  0.1929
18776TIP3    H177743   0.538   2.586   0.128  0.4393 -0.3503 -0.1340
18776TIP3    H277744   0.667   2.617   0.201 -0.0617 -0.2478  0.7129
18777TIP3   OH277745   1.998   5.372   2.004  0.1720 -0.0757 -0.5916
18777TIP3    H177746   2.007   5.277   1.998  0.2344 -0.2387  1.5090
18777TIP3    H277747   1.982   5.388   2.097  1.0989  2.0489 -0.7741
18778TIP3   OH277748   0.387   0.554  13.776  0.3016 -0.0674 -0.0494
18778TIP3    H177749   0.365   0.591  13.691  1.3125  0.1914 -0.2021
18778TIP3    H277750   0.320   0.587  13.835 -0.3188 -0.1263 -0.7095
18779TIP3   OH277751   3.090   2.580  14.658 -0.0949 -0.0262 -0.0592
18779TIP3    H177752   3.126   2.539  14.737 -0.0899  0.7934  0.3774
18779TIP3    H277753   3.163   2.631  14.622  0.1071 -0.9799 -1.0033
18780TIP3   OH277754   0.701   3.765  15.878  0.5047 -0.2151  0.1096
18780TIP3    H177755   0.621   3.786  15.830  1.6468  0.9490 -1.3350
18780TIP3    H277756   0.685   3.795  15.967 -0.1907  1.1952 -0.4849
18781TIP3   OH277757   0.353   3.007   5.256 -0.0202 -0.1387 -0.0220
18781TIP3    H177758   0.443   3.032   5.278  0.2062  1.0617 -2.1131
18781TIP3    H277759   0.300   3.080   5.287 -0.1413 -0.3146  0.1834
18782TIP3   OH277760   1.212   3.064  12.877 -0.1382  0.4918  0.2190
18782TIP3    H177761   1.219   2.969  12.886  0.3671  0.5825  0.8208
18782TIP3    H277762   1.148   3.090  12.944  0.1396  0.6416  0.4250
18783TIP3   OH277763   3.174   1.884  17.191  0.1803 -0.4445  0.1742
18783TIP3    H177764   3.095   1.905  17.141 -0.2280 -1.0136  0.5803
18783TIP3    H277765   3.238   1.950  17.163 -0.5356  0.2245  0.0913
18784TIP3   OH277766   1.485   5.255  12.981 -0.0809  0.5556 -0.1549
18784TIP3    H177767   1.490   5.167  13.017 -0.9176  0.2169 -0.8596
18784TIP3    H277768   1.401   5.290  13.011 -0.7861  0.2649 -1.7563
18785TIP3   OH277769   6.437   6.058  11.757  0.2968  0.3435 -0.1950
18785TIP3    H177770   6.519   6.038  11.801 -0.0092  0.6071  0.4927
18785TIP3    H277771   6.443   6.152  11.738  0.2373  0.3214 -0.3293
18786TIP3   OH277772   5.367   2.019   1.071  0.0264 -0.3871 -0.2431
18786TIP3    H177773   5.351   2.110   1.046  0.8975 -0.0281  0.4760
18786TIP3    H277774   5.317   1.968   1.007 -1.3192  0.6069 -0.0158
18787TIP3   OH277775   3.469   4.756   0.105  0.5497  0.1970  0.4961
18787TIP3    H177776   3.389   4.710   0.128 -0.3099  0.6012 -1.5905
18787TIP3    H277777   3.516   4.697   0.046  1.1101  0.5317  0.5959
18788TIP3   OH277778   2.311   1.074  11.626  0.6469 -0.0663 -0.0821
18788TIP3    H177779   2.372   1.001  11.635  1.5869  0.3666 -2.5940
18788TIP3    H277780   2.357   1.148  11.664 -0.5587 -0.8408  3.0562
18789TIP3   OH277781   4.460   5.079   3.889  0.4273  0.5746 -0.6271
18789TIP3    H177782   4.443   4.985   3.900  3.2576 -0.0442 -1.1809
18789TIP3    H277783   4.428   5.119   3.969 -0.7204 -0.8573 -0.3390
18790TIP3   OH277784   0.474   0.780  11.420  0.0910 -0.0551  0.5113
18790TIP3    H177785   0.568   0.780  11.440  0.3785  0.8030 -0.7932
18790TIP3    H277786   0.461   0.858  11.367 -1.3255 -0.3259  0.4448
18791TIP3   OH277787   1.881   4.383   5.135 -0.3506  0.2841 -0.7135
18791TIP3    H177788   1.815   4.416   5.196 -2.0703  0.2702 -2.5180
18791TIP3    H277789   1.955   4.442   5.146 -1.0356  0.9248  0.6300
18792TIP3   OH277790   0.296   1.539   4.370  0.0756  0.3098  0.3597
18792TIP3    H177791   0.209   1.525   4.405 -0.0047  0.7893  0.3536
18792TIP3    H277792   0.318   1.457   4.325  0.7533 -0.8455  2.7395
18793TIP3   OH277793   4.093   1.618   3.074  0.4812  0.5994  0.2184
18793TIP3    H177794   4.041   1.696   3.092 -0.1812  0.3690 -0.6238
18793TIP3    H277795   4.170   1.651   3.028  0.0722  0.7436 -0.3797
18794TIP3   OH277796   2.924   4.117  11.874 -0.2874  0.0220  0.1565
18794TIP3    H177797   2.839   4.116  11.919 -0.0189  3.6461  0.9410
18794TIP3    H277798   2.988   4.110  11.944  0.0814  1.6963  0.0068
18795TIP3   OH277799   2.060   0.983   5.945  0.0464 -0.2795 -0.4286
18795TIP3    H177800   2.031   1.042   5.876 -3.6369 -0.0839  1.1731
18795TIP3    H277801   2.028   0.897   5.918 -0.6684 -0.3434  0.5803
18796TIP3   OH277802   2.861   2.946   1.072 -0.0869  0.3400 -0.2028
18796TIP3    H177803   2.902   3.015   1.019  0.1340 -0.7850 -1.5016
18796TIP3    H277804   2.796   2.993   1.125  0.2341  1.5862 -0.8830
18797TIP3   OH277805   3.131   4.328   2.170 -0.1000  0.1475 -0.0958
18797TIP3    H177806   3.061   4.332   2.235 -0.6656 -0.9828 -0.6083
18797TIP3    H277807   3.121   4.408   2.119 -0.2869  0.5536  0.5696
18798TIP3   OH277808   0.733   2.288  11.157 -0.1912  0.1802 -0.1389
18798TIP3    H177809   0.715   2.247  11.072 -0.6082  0.1342 -0.0322
18798TIP3    H277810   0.648   2.321  11.185 -0.6601 -2.3517  1.5991
18799TIP3   OH277811   5.280   3.768   6.245 -0.1914 -0.0197  0.9361
18799TIP3    H177812   5.256   3.683   6.283  1.5515 -1.1630 -0.4363
18799TIP3    H277813   5.196   3.808   6.223 -1.0599 -1.2552  1.8637
18800TIP3   OH277814   2.319   3.988   3.359  0.4802 -0.4711 -0.2448
18800TIP3    H177815   2.379   3.929   3.315  0.5289 -0.6684  0.0873
18800TIP3    H277816   2.375   4.051   3.405  0.4851 -2.0508  1.9997
18801TIP3   OH277817   1.370   2.397  15.123  0.7600 -0.0830 -0.0694
18801TIP3    H177818   1.348   2.333  15.056  0.6877 -0.6157  0.4545
18801TIP3    H277819   1.462   2.418  15.106  0.6873 -0.0676 -0.4537
18802TIP3   OH277820   3.884   6.732   1.189 -0.1000 -0.7370 -0.5999
18802TIP3    H177821   3.831   6.653   1.199 -1.2469  0.2851  1.8697
18802TIP3    H277822   3.820   6.803   1.186  1.0441  0.4457  1.5665
18803TIP3   OH277823   4.595   5.455   4.879 -0.1575 -0.4191 -0.3055
18803TIP3    H177824   4.634   5.506   4.950 -1.1474 -2.1236  1.5221
18803TIP3    H277825   4.652   5.470   4.804  1.2297  0.9763  1.0039
18804TIP3   OH277826   2.516   1.038  15.144  0.4847  0.3180 -0.1406
18804TIP3    H177827   2.525   0.944  15.156 -0.9963  0.2948  1.0283
18804TIP3    H277828   2.581   1.061  15.077 -0.9530 -1.9619 -2.4209
18805TIP3   OH277829   0.376   1.350   2.281  0.2936  0.8285 -0.5321
18805TIP3    H177830   0.377   1.426   2.223  0.3088  2.4086  1.4956
18805TIP3    H277831   0.377   1.387   2.369 -0.0258 -1.5278  0.4896
18806TIP3   OH277832   0.306   1.074  15.299  0.2813  0.5208 -0.2713
18806TIP3    H177833   0.257   0.997  15.270  1.5555  0.3447 -2.0409
18806TIP3    H277834   0.273   1.146  15.244 -1.9455  1.6061  2.3559
18807TIP3   OH277835   1.040   1.160  12.653  0.8010 -0.9085  0.4440
18807TIP3    H177836   0.965   1.104  12.672  0.5378 -0.7003  0.0427
18807TIP3    H277837   1.068   1.133  12.565  0.0332  0.2849 -0.1740
18808TIP3   OH277838   3.544   0.849  12.573  0.5672 -1.0598  0.4959
18808TIP3    H177839   3.572   0.760  12.554  1.2153 -0.3288 -2.1005
18808TIP3    H277840   3.453   0.853  12.542 -0.0252 -1.2548  2.1141
18809TIP3   OH277841   3.444   1.351   2.124  0.4973 -0.3761  0.0161
18809TIP3    H177842   3.530   1.375   2.158  0.0889 -0.9406  1.4722
18809TIP3    H277843   3.433   1.259   2.150 -0.9666 -0.0139  0.7030
18810TIP3   OH277844   4.217   0.822   1.670 -0.2403 -0.0134  0.2436
18810TIP3    H177845   4.193   0.760   1.739  0.4422 -0.7215 -0.1498
18810TIP3    H277846   4.297   0.786   1.632  0.9127  1.7759  0.8680
18811TIP3   OH277847   0.337   2.637   2.196  0.3569  0.5785  0.0001
18811TIP3    H177848   0.421   2.649   2.240  0.9076 -0.0703 -0.8321
18811TIP3    H277849   0.288   2.577   2.252  0.0976  1.6432  0.9290
18812TIP3   OH277850   5.342   2.602  16.221  0.1427  0.5609  0.3835
18812TIP3    H177851   5.429   2.562  16.222 -0.2498 -0.3793 -1.3005
18812TIP3    H277852   5.294   2.554  16.289  0.7362  0.6384  0.8656
18813TIP3   OH277853   4.526   0.232  12.188 -0.1751 -0.4636 -0.0697
18813TIP3    H177854   4.468   0.267  12.120 -1.6302  0.6776  1.6947
18813TIP3    H277855   4.550   0.308  12.241  2.0658 -1.1051 -0.0949
18814TIP3   OH277856   0.171   1.100   1.660  0.3335 -0.0728  0.0224
18814TIP3    H177857   0.152   1.008   1.639  0.0622 -0.6724  2.6570
18814TIP3    H277858   0.266   1.107   1.653  0.1204  0.2815 -3.1882
18815TIP3   OH277859   0.372   0.305  15.938  0.1190  0.9318 -0.4115
18815TIP3    H177860   0.335   0.223  15.970  0.3500  0.5800 -1.0312
18815TIP3    H277861   0.435   0.331  16.006 -1.2147  1.5147  0.6249
18816TIP3   OH277862   2.419   2.197  15.403  0.2847 -0.0216 -0.2853
18816TIP3    H177863   2.489   2.222  15.343  1.8044  0.5530  1.6631
18816TIP3    H277864   2.407   2.274  15.459 -1.0156 -0.5761  0.2120
18817TIP3   OH277865   1.339   0.920  15.298  0.1175  0.8509  0.0825
18817TIP3    H177866   1.253   0.961  15.285  1.3526  3.8416  0.9421
18817TIP3    H277867   1.371   0.903  15.209 -0.4510  1.7102 -0.2907
18818TIP3   OH277868   0.149   0.481   2.766  0.1168 -0.2494 -0.5655
18818TIP3    H177869   0.163   0.422   2.692 -1.7509 -2.4597  0.7829
18818TIP3    H277870   0.074   0.535   2.740  1.6129  1.3547 -1.6581
18819TIP3   OH277871   5.505   1.831   0.433  0.7618  0.9771  0.0775
18819TIP3    H177872   5.435   1.825   0.498  0.5447  0.8073 -0.1731
18819TIP3    H277873   5.521   1.741   0.405  1.6264  0.9263  0.7143
18820TIP3   OH277874   0.892   4.403   6.418 -0.1142  0.0276  0.4134
18820TIP3    H177875   0.853   4.334   6.471  0.3354  0.9421  1.9440
18820TIP3    H277876   0.868   4.484   6.462  2.3742  0.6811  0.6282
18821TIP3   OH277877   0.316   4.777  11.816  0.0897 -0.4347  0.6993
18821TIP3    H177878   0.409   4.779  11.838  0.0014 -1.2481  1.1553
18821TIP3    H277879   0.281   4.702  11.863 -1.1754  0.9178  1.9991
18822TIP3   OH277880   4.046   3.385   2.557 -0.1102 -0.9417 -0.8836
18822TIP3    H177881   4.075   3.295   2.544 -1.0123 -1.2029 -1.1567
18822TIP3    H277882   3.964   3.391   2.506 -0.4415 -0.1848 -0.2729
18823TIP3   OH277883   4.423   1.338   1.114  0.1082  0.0983  0.1812
18823TIP3    H177884   4.412   1.321   1.208  0.1942 -0.7290  0.0417
18823TIP3    H277885   4.353   1.290   1.072  0.0692  0.4729 -0.1818
18824TIP3   OH277886   5.471   1.770  17.104  0.5519 -0.6156  0.1055
18824TIP3    H177887   5.563   1.794  17.099  0.3657  0.5533  1.8016
18824TIP3    H277888   5.458   1.707  17.032  1.9858  1.3510 -1.9214
18825TIP3   OH277889   2.298   4.685   2.204  0.0668 -0.3864 -0.3965
18825TIP3    H177890   2.255   4.658   2.285 -0.8058 -0.1322 -0.7589
18825TIP3    H277891   2.257   4.769   2.183  0.6393 -0.2156 -0.8372
18826TIP3   OH277892   3.112   2.311   4.566 -0.1965  0.4343 -0.3399
18826TIP3    H177893   3.112   2.309   4.662  0.5796  0.5645 -0.3330
18826TIP3    H277894   3.205   2.311   4.543 -0.3699 -1.0134 -1.1121
18827TIP3   OH277895   3.209   2.200   2.379 -0.2044  0.1167  0.0794
18827TIP3    H177896   3.124   2.243   2.368 -0.3733 -0.4832 -1.0191
18827TIP3    H277897   3.188   2.108   2.394  0.2933 -0.3650 -2.0372
18828TIP3   OH277898   1.651   0.179   4.553  0.2477 -0.1088 -0.4098
18828TIP3    H177899   1.596   0.110   4.515  0.2240 -0.8543  0.9441
18828TIP3    H277900   1.589   0.237   4.598  0.5076 -0.6885  0.7163
18829TIP3   OH277901   4.295   2.329  15.870  0.5186  0.2270  0.1348
18829TIP3    H177902   4.274   2.422  15.882  0.9781  0.4143 -0.4909
18829TIP3    H277903   4.390   2.326  15.868  0.4947 -0.1133 -0.9448
18830TIP3   OH277904   4.460   6.476  13.025 -0.7837  0.1318  0.2486
18830TIP3    H177905   4.458   6.565  12.989 -2.7311  0.2129  0.4936
18830TIP3    H277906   4.499   6.423  12.955  2.4313  1.4802  0.9182
18831TIP3   OH277907   1.499   0.260   3.457 -0.4283 -0.2946  0.1764
18831TIP3    H177908   1.498   0.205   3.379  0.5956 -0.2586  0.1287
18831TIP3    H277909   1.519   0.348   3.425  0.3305 -0.3406  0.5121
18832TIP3   OH277910   4.131   6.610  14.295 -0.9661  0.1489 -0.6102
18832TIP3    H177911   4.217   6.643  14.321 -0.8259 -0.4540 -0.2922
18832TIP3    H277912   4.139   6.515  14.301 -1.3207  0.0462 -1.6749
18833TIP3   OH277913   0.725   4.870  14.958  0.1533 -0.7548 -0.6286
18833TIP3    H177914   0.656   4.807  14.977  0.2809 -0.5525  0.5802
18833TIP3    H277915   0.703   4.946  15.012  1.7002 -0.9656  0.3551
18834TIP3   OH277916   0.931   3.592   5.590 -0.5648  0.1584 -0.0539
18834TIP3    H177917   0.907   3.683   5.606  0.6113  0.5345 -0.3905
18834TIP3    H277918   1.005   3.596   5.530 -1.3561 -1.0677 -1.1483
18835TIP3   OH277919   0.048   5.082  13.229 -0.4496 -0.1851  0.2559
18835TIP3    H177920  -0.025   5.087  13.292 -0.8204 -0.5122 -0.1466
18835TIP3    H277921   0.010   5.109  13.146  0.1325  0.5940  0.2362
18836TIP3   OH277922   4.810   5.189   0.339  1.0969 -0.4786 -0.6122
18836TIP3    H177923   4.898   5.223   0.351  1.1533 -0.6130 -0.6417
18836TIP3    H277924   4.771   5.245   0.273  0.6632  0.4863  0.4490
18837TIP3   OH277925   6.224   0.260   3.879  0.0931  0.3792 -0.8879
18837TIP3    H177926   6.314   0.254   3.849  0.0622  1.7267 -1.3104
18837TIP3    H277927   6.219   0.347   3.920 -0.5412 -0.3982  0.7379
18838TIP3   OH277928   1.418   5.214   1.573  0.9294  0.2799  0.2414
18838TIP3    H177929   1.424   5.120   1.586  1.0336  0.3219  0.4998
18838TIP3    H277930   1.497   5.249   1.613  0.1838  0.6074  1.4572
18839TIP3   OH277931   1.689   6.124  11.562 -0.5628 -0.6830 -0.2888
18839TIP3    H177932   1.695   6.141  11.656  0.7806  0.6117 -0.5833
18839TIP3    H277933   1.623   6.185  11.530  2.4895  2.3963 -0.9474
18840TIP3   OH277934   1.141   1.717   5.592  0.0641 -0.1793  0.2679
18840TIP3    H177935   1.113   1.806   5.614  1.9173  0.7011 -0.7377
18840TIP3    H277936   1.087   1.693   5.517 -1.2364 -0.3485  1.2575
18841TIP3   OH277937   3.561   4.548  16.278 -0.3227  0.7056 -0.7587
18841TIP3    H177938   3.622   4.539  16.351 -1.3385 -2.2544 -0.2070
18841TIP3    H277939   3.479   4.512  16.311 -1.3723  1.2807 -2.6817
18842TIP3   OH277940   6.754   2.536  14.781 -0.0568  0.2557  0.0863
18842TIP3    H177941   6.794   2.525  14.868  1.7651  0.4457 -0.7170
18842TIP3    H277942   6.701   2.457  14.769  0.8385 -0.4570  0.7645
18843TIP3   OH277943   3.918   2.984   6.327 -0.5296 -0.0567 -0.2510
18843TIP3    H177944   3.868   3.004   6.248 -0.8313 -1.2386 -0.3680
18843TIP3    H277945   3.928   2.888   6.326 -0.6804 -0.1043  1.2174
18844TIP3   OH277946   1.301   0.978   0.636  0.2232 -0.1098 -0.4305
18844TIP3    H177947   1.336   0.988   0.548  2.0561 -0.0560  0.2954
18844TIP3    H277948   1.343   0.900   0.671 -1.2401 -0.7043  0.0546
18845TIP3   OH277949   3.963   4.770   1.871 -0.0061  0.3921  0.6540
18845TIP3    H177950   4.024   4.695   1.865 -0.1005  0.3839 -0.2235
18845TIP3    H277951   4.001   4.825   1.939  0.2405 -0.2964  1.0882
18846TIP3   OH277952   4.921   4.091  12.912 -0.1964 -0.2661  0.3599
18846TIP3    H177953   4.971   4.150  12.968 -2.2909  0.7423  1.1952
18846TIP3    H277954   4.865   4.148  12.860 -0.6678 -1.3887 -0.4006
18847TIP3   OH277955   3.665   0.840   2.307  0.0019 -0.0400 -0.0529
18847TIP3    H177956   3.677   0.831   2.212  1.4256 -0.6170  0.1778
18847TIP3    H277957   3.584   0.792   2.325 -1.1277  1.4082 -1.1943
18848TIP3   OH277958   6.654   5.992  12.976  0.0734 -0.2482  0.0493
18848TIP3    H177959   6.574   6.041  12.959 -0.1589 -0.2269  1.1953
18848TIP3    H277960   6.624   5.906  13.007  0.4929 -0.5087 -0.2547
18849TIP3   OH277961   1.987   0.202   1.278  0.0115  0.0699 -0.0754
18849TIP3    H177962   1.924   0.264   1.313 -0.9924  0.0540 -1.7946
18849TIP3    H277963   1.982   0.213   1.183  1.3601 -1.1366 -0.3171
18850TIP3   OH277964   0.632   1.122  11.513 -0.5141 -0.7274  0.2469
18850TIP3    H177965   0.723   1.138  11.490 -0.3432 -2.0338 -0.0293
18850TIP3    H277966   0.584   1.132  11.431 -0.2783 -2.5232 -0.1364
18851TIP3   OH277967   6.736   2.760  15.046  0.2829 -0.4065 -0.6703
18851TIP3    H177968   6.742   2.681  14.994  2.1468 -0.6131 -0.1741
18851TIP3    H277969   6.730   2.729  15.137  3.5585  0.0212 -0.2672
18852TIP3   OH277970   5.360   1.559   3.854  0.0275  0.0766  0.5709
18852TIP3    H177971   5.436   1.529   3.903 -0.3526 -2.4571 -0.3329
18852TIP3    H277972   5.285   1.518   3.897 -0.5039 -0.3134 -0.7068
18853TIP3   OH277973   2.537   5.177  14.622  0.0594  0.0012  0.3282
18853TIP3    H177974   2.572   5.229  14.695  0.5765  1.4189 -0.9063
18853TIP3    H277975   2.587   5.206  14.546 -1.3651 -0.5260 -0.8238
18854TIP3   OH277976   0.133   1.080   3.508  0.4859 -0.0228  0.1553
18854TIP3    H177977   0.146   1.019   3.435 -0.0014  1.1263 -0.9035
18854TIP3    H277978   0.133   1.166   3.468 -1.8809  0.5199  1.2525
18855TIP3   OH277979   5.024   1.397   3.241  0.3920 -0.8389  0.2302
18855TIP3    H177980   4.982   1.319   3.275  1.1544 -0.5634  1.8391
18855TIP3    H277981   5.117   1.388   3.265  0.8265 -0.3088 -1.1606
18856TIP3   OH277982   2.284   6.673   4.676 -0.0202 -0.8355 -0.1440
18856TIP3    H177983   2.342   6.646   4.747 -1.5913  0.3281  1.6462
18856TIP3    H277984   2.340   6.676   4.598  2.0476 -0.7872  1.3066
18857TIP3   OH277985   5.744   1.279   4.757 -0.4320  0.7892 -0.3241
18857TIP3    H177986   5.732   1.370   4.729 -2.1790  0.2148 -1.5654
18857TIP3    H277987   5.756   1.231   4.675  1.4620  0.0070  0.3742
18858TIP3   OH277988   0.327   0.484  17.029 -0.5200  0.2532  0.4748
18858TIP3    H177989   0.355   0.549  16.964  0.4482 -0.8906 -0.2716
18858TIP3    H277990   0.361   0.517  17.112  0.8692  0.1862 -0.0538
18859TIP3   OH277991   2.306   5.920  15.547  0.5445  0.9543  0.0122
18859TIP3    H177992   2.290   5.917  15.452  0.7187 -2.0052  0.0429
18859TIP3    H277993   2.222   5.895  15.586  0.4942  2.1095  0.6637
18860TIP3   OH277994   2.041   1.405   1.531  0.4218 -0.3451 -0.7520
18860TIP3    H177995   2.060   1.492   1.566 -2.0496  0.7109 -1.9475
18860TIP3    H277996   2.106   1.348   1.572  1.6727  1.9492  0.5340
18861TIP3   OH277997   2.282   6.332  13.600  0.0810 -0.4074  0.3890
18861TIP3    H177998   2.209   6.329  13.539  0.2623 -2.4266  0.2320
18861TIP3    H277999   2.243   6.357  13.684 -0.5848 -0.2819  0.0406
18862TIP3   OH278000   5.414   4.986  10.850 -0.1931 -0.7416 -1.0387
18862TIP3    H178001   5.451   5.055  10.795 -1.6389  0.6153 -0.3170
18862TIP3    H278002   5.488   4.926  10.864  0.9945  0.4582 -1.9439
18863TIP3   OH278003   5.585   4.912   3.369 -0.2082 -0.3872 -0.0399
18863TIP3    H178004   5.494   4.942   3.360  0.4506  1.4274 -0.8803
18863TIP3    H278005   5.636   4.976   3.320  1.8159  0.2456  2.7286
18864TIP3   OH278006   6.495   4.871  11.777 -0.1560  0.1429 -0.9327
18864TIP3    H178007   6.529   4.833  11.858 -0.4050  0.0376 -0.8765
18864TIP3    H278008   6.405   4.840  11.772 -0.0098 -0.1994 -1.4740
18865TIP3   OH278009   1.367   3.558   2.517  0.3355  0.0763  0.5300
18865TIP3    H178010   1.434   3.497   2.548 -0.9159 -0.8137  1.4906
18865TIP3    H278011   1.331   3.517   2.438 -0.5406 -0.4624  1.2044
18866TIP3   OH278012   5.882   1.620   6.627 -0.2375  0.4151  0.2013
18866TIP3    H178013   5.977   1.616   6.636 -0.4112 -0.1649  1.9639
18866TIP3    H278014   5.851   1.535   6.657 -1.1012 -0.8841 -3.9823
18867TIP3   OH278015   4.545   0.536   0.196  0.0618 -1.3096  0.6963
18867TIP3    H178016   4.540   0.530   0.100  0.5667  1.1099  0.4910
18867TIP3    H278017   4.637   0.551   0.214 -0.3985  1.0669  1.3353
18868TIP3   OH278018   2.058   4.142  16.465  0.2528 -0.3570  0.0935
18868TIP3    H178019   2.035   4.123  16.374  1.6055 -1.8146  0.0340
18868TIP3    H278020   2.137   4.090  16.481 -1.4216 -2.1473  2.9143
18869TIP3   OH278021   3.946   4.387   2.269  0.3908 -0.1642 -0.1036
18869TIP3    H178022   3.895   4.424   2.197  0.4564  0.1845  0.0259
18869TIP3    H278023   3.891   4.399   2.346  0.0709 -1.0728 -0.1869
18870TIP3   OH278024   1.902   0.764   1.370 -0.4995 -0.1127 -0.0104
18870TIP3    H178025   1.893   0.796   1.281 -1.3722  1.4293  0.5940
18870TIP3    H278026   1.874   0.673   1.367 -2.9372  0.6247 -0.8695
18871TIP3   OH278027   0.264   0.128  10.798 -0.0901  0.4544 -0.0289
18871TIP3    H178028   0.305   0.139  10.884 -1.2867 -1.4925  0.8450
18871TIP3    H278029   0.275   0.035  10.778 -2.6260  0.1964 -0.4819
18872TIP3   OH278030   5.817   1.681  15.082 -0.2513  0.3240  0.2214
18872TIP3    H178031   5.874   1.740  15.130  0.1429  0.4303 -0.3840
18872TIP3    H278032   5.840   1.692  14.990 -0.4279 -0.4947  0.0657
18873TIP3   OH278033   5.957   4.245   4.451  0.4592  0.2149 -0.0879
18873TIP3    H178034   5.953   4.218   4.543 -0.4913 -1.8982 -0.6987
18873TIP3    H278035   5.903   4.324   4.446 -2.3419 -1.5915  0.5765
18874TIP3   OH278036   0.822   6.683   1.144 -0.2433 -0.2130 -0.0237
18874TIP3    H178037   0.811   6.675   1.239  0.0362 -0.8680 -0.0468
18874TIP3    H278038   0.915   6.665   1.128  0.4656  3.2891 -0.0667
18875TIP3   OH278039   4.308   6.559   5.981  0.1531  0.4750 -0.1587
18875TIP3    H178040   4.358   6.496   6.032  3.1024  1.7481 -1.3896
18875TIP3    H278041   4.332   6.644   6.017 -0.2921  1.1742 -1.4670
18876TIP3   OH278042   5.290   3.704   4.113  0.4572 -0.3374  0.7403
18876TIP3    H178043   5.253   3.616   4.115 -0.9972  0.2078 -1.0653
18876TIP3    H278044   5.214   3.762   4.115  1.2437  0.8151 -1.3865
18877TIP3   OH278045   5.225   4.046  12.696  0.1871 -0.3001 -0.3549
18877TIP3    H178046   5.266   3.976  12.746 -0.9780  0.9288  2.4082
18877TIP3    H278047   5.140   4.012  12.669 -0.2318 -0.1012  0.6884
18878TIP3   OH278048   5.191   4.048   4.303 -0.3247 -0.2782 -0.1734
18878TIP3    H178049   5.119   3.986   4.291 -0.1774 -0.4852  0.0100
18878TIP3    H278050   5.257   4.022   4.239 -0.3754 -0.1416 -0.2821
18879TIP3   OH278051   0.395   0.416   6.242 -0.4207  0.0634 -0.2877
18879TIP3    H178052   0.408   0.510   6.241 -1.0071  0.1581  0.7804
18879TIP3    H278053   0.300   0.404   6.248 -0.4861 -0.6094 -2.0947
18880TIP3   OH278054   6.524   4.328  16.394 -0.0098 -0.6895  0.1555
18880TIP3    H178055   6.602   4.378  16.368 -1.3476  1.0748 -0.6265
18880TIP3    H278056   6.553   4.237  16.395  1.2529 -0.4253 -3.4678
18881TIP3   OH278057   2.989   4.209  15.028 -0.2209  0.1081  0.2055
18881TIP3    H178058   3.017   4.117  15.024 -1.6909 -0.3467  0.2624
18881TIP3    H278059   2.915   4.208  15.089  0.6727  1.5677  1.3531
18882TIP3   OH278060   3.983   4.904   3.604 -0.7847 -0.3945 -0.8323
18882TIP3    H178061   3.988   4.960   3.682 -0.5695 -0.3998 -0.8426
18882TIP3    H278062   4.006   4.962   3.531  1.7163 -1.0237 -0.6078
18883TIP3   OH278063   4.297   1.645   3.758 -0.0134  0.4399 -0.5912
18883TIP3    H178064   4.289   1.576   3.824  0.4324  0.7441 -0.2133
18883TIP3    H278065   4.312   1.725   3.809  1.1437  0.5534 -1.0853
18884TIP3   OH278066   5.222   6.131  15.990  0.2905  0.8050  0.1681
18884TIP3    H178067   5.154   6.079  16.034  2.2994 -1.5028  0.5917
18884TIP3    H278068   5.173   6.187  15.930 -2.0251 -0.8130  0.4654
18885TIP3   OH278069   0.174   0.805   1.708  0.1373 -0.5007 -0.5317
18885TIP3    H178070   0.181   0.837   1.798 -1.4576  1.0047 -0.9173
18885TIP3    H278071   0.170   0.710   1.717  0.3866 -0.3887  0.9579
18886TIP3   OH278072   6.106   3.349   2.748  0.0920  0.4806 -0.2002
18886TIP3    H178073   6.087   3.357   2.655 -0.2884  0.5456 -0.1173
18886TIP3    H278074   6.046   3.410   2.791  0.2460  0.4319  0.0879
18887TIP3   OH278075   5.432   1.680   6.574  0.3373  0.0989 -0.1567
18887TIP3    H178076   5.356   1.725   6.538 -0.5052 -1.6062 -0.5929
18887TIP3    H278077   5.396   1.626   6.645  0.8822 -1.8017 -1.2835
18888TIP3   OH278078   4.496   3.596  13.137  0.1261  0.2685  0.2401
18888TIP3    H178079   4.486   3.502  13.153 -0.0676  0.3882  0.8381
18888TIP3    H278080   4.458   3.610  13.051 -2.8026  0.3401  1.4751
18889TIP3   OH278081   3.327   1.289  14.232  0.5604  0.0318 -0.0631
18889TIP3    H178082   3.278   1.260  14.155  2.2083  0.5026 -1.3048
18889TIP3    H278083   3.311   1.383  14.237  1.0586  0.1249 -0.2541
18890TIP3   OH278084   5.470   3.907   5.321 -0.2737  0.6700 -0.2011
18890TIP3    H178085   5.427   3.825   5.345  1.6466 -0.3221  0.0371
18890TIP3    H278086   5.515   3.886   5.239 -1.0734  1.9732 -0.9800
18891TIP3   OH278087   2.252   1.559   3.746  0.5913 -0.0038 -0.6937
18891TIP3    H178088   2.169   1.533   3.705  0.9090  1.3918 -2.2830
18891TIP3    H278089   2.316   1.497   3.712  0.4073 -0.3536 -0.3973
18892TIP3   OH278090   2.754   3.173  14.347  0.5513  0.1495 -0.2547
18892TIP3    H178091   2.795   3.230  14.281 -0.2261 -0.9510 -1.7076
18892TIP3    H278092   2.664   3.163  14.318  0.0906 -0.0373  1.2078
18893TIP3   OH278093   6.713   2.448  10.975  0.7033  0.4567  0.2828
18893TIP3    H178094   6.789   2.459  10.918 -1.3402  2.9845 -2.0735
18893TIP3    H278095   6.657   2.385  10.928 -0.3335  1.4459  0.1840
18894TIP3   OH278096   1.181   5.498  14.902  0.2599  0.6394  0.9997
18894TIP3    H178097   1.184   5.403  14.911  0.0673  0.7265  2.1099
18894TIP3    H278098   1.273   5.525  14.903  0.4685  0.2470 -2.2315
18895TIP3   OH278099   3.589   1.038   0.259  0.6192 -0.4039  0.3351
18895TIP3    H178100   3.560   1.076   0.342 -1.8858  0.1880 -0.7725
18895TIP3    H278101   3.659   1.097   0.229 -1.4691  1.9040 -0.1117
18896TIP3   OH278102   4.914   2.684  12.375 -0.2982 -0.9283  0.1636
18896TIP3    H178103   4.830   2.686  12.421 -0.3066 -1.4831  0.1707
18896TIP3    H278104   4.976   2.649  12.439 -0.2020 -1.1857 -0.0704
18897TIP3   OH278105   5.685   5.338  15.638  0.2835 -0.2031 -0.1270
18897TIP3    H178106   5.743   5.292  15.577  2.7792  1.5052  0.9078
18897TIP3    H278107   5.623   5.384  15.581  0.7182 -0.9966 -1.2863
18898TIP3   OH278108   0.045   1.334   1.968 -0.0252 -0.2187  0.3946
18898TIP3    H178109   0.017   1.242   1.971  1.0599 -0.6029 -0.6620
18898TIP3    H278110  -0.035   1.383   1.954 -0.8287 -0.8801  2.5395
18899TIP3   OH278111   0.370   2.358   1.302 -0.3056 -0.5714  0.7014
18899TIP3    H178112   0.281   2.363   1.336 -0.6301  0.0442 -0.2130
18899TIP3    H278113   0.383   2.442   1.258 -0.5181 -2.0101 -2.1889
18900TIP3   OH278114   5.260   5.710   1.047 -0.0512  0.3165 -0.2537
18900TIP3    H178115   5.294   5.621   1.058  0.1051  0.5678  1.5346
18900TIP3    H278116   5.336   5.767   1.059 -0.2891  0.7201 -0.6500
18901TIP3   OH278117   1.959   6.354  12.956 -0.0565 -0.8613 -0.5504
18901TIP3    H178118   1.882   6.352  12.898 -0.1610 -0.3785 -0.4252
18901TIP3    H278119   1.926   6.387  13.039  0.4932  0.3498 -0.8012
18902TIP3   OH278120   2.328   3.140  15.908 -0.4908 -0.7050 -0.3971
18902TIP3    H178121   2.269   3.138  15.833  1.2002 -0.9650 -1.7352
18902TIP3    H278122   2.354   3.049  15.920  0.6865 -0.4117 -0.6621
18903TIP3   OH278123   2.335   3.130  15.160  0.6611  0.5267  0.1180
18903TIP3    H178124   2.317   3.194  15.228 -0.6129  0.0414  0.2605
18903TIP3    H278125   2.306   3.172  15.079 -2.3594 -0.6966  0.4885
18904TIP3   OH278126   6.154   5.169   4.466  0.1884  0.3234 -0.5790
18904TIP3    H178127   6.087   5.224   4.509 -1.0642 -0.4957 -1.4615
18904TIP3    H278128   6.136   5.081   4.497  0.9350  0.1107 -0.7442
18905TIP3   OH278129   5.405   1.727  14.705 -0.1202 -0.0318  0.0651
18905TIP3    H178130   5.449   1.730  14.790 -0.8496  0.6057  0.4236
18905TIP3    H278131   5.467   1.767  14.644  0.8463 -1.4552  0.0858
18906TIP3   OH278132   2.795   0.011  15.330 -0.1117  0.3397 -0.1615
18906TIP3    H178133   2.818  -0.021  15.242 -0.2333 -0.8758  0.2467
18906TIP3    H278134   2.873   0.057  15.359 -0.1957  1.0714 -1.0536
18907TIP3   OH278135   3.806   2.008   6.032 -0.0096 -0.2104  0.5307
18907TIP3    H178136   3.726   1.994   5.983 -0.2135  0.7027  0.5952
18907TIP3    H278137   3.875   2.009   5.966  0.1419 -2.3650  0.5956
18908TIP3   OH278138   5.168   3.466  16.856 -0.2425 -0.8341 -0.0171
18908TIP3    H178139   5.083   3.431  16.830  0.5156 -2.5843 -0.1835
18908TIP3    H278140   5.187   3.534  16.790 -0.7424 -1.5897 -0.9493
18909TIP3   OH278141   4.931   3.409   4.064  0.2236 -0.1802  0.3570
18909TIP3    H178142   4.909   3.455   3.983  0.8677  1.8872  1.3452
18909TIP3    H278143   4.846   3.388   4.103 -0.1285  3.0653  1.4946
18910TIP3   OH278144   1.129   5.115   2.395 -0.4735 -0.0203 -0.1837
18910TIP3    H178145   1.082   5.070   2.324 -1.7883 -1.3681  1.4941
18910TIP3    H278146   1.091   5.203   2.397 -0.7704 -0.1270 -0.8245
18911TIP3   OH278147   3.139   6.489  15.661  0.2952  0.2398  0.0732
18911TIP3    H178148   3.064   6.520  15.711  0.5393  0.4418  0.3212
18911TIP3    H278149   3.105   6.420  15.604 -0.0954  0.4084  0.1059
18912TIP3   OH278150   3.151   6.125   5.327  0.3603 -0.1929 -0.4636
18912TIP3    H178151   3.093   6.201   5.333 -0.3363 -0.7639  0.0920
18912TIP3    H278152   3.234   6.156   5.363 -0.0555  0.1643  0.1955
18913TIP3   OH278153   1.439   6.232  14.735 -0.2933 -0.2811  0.0520
18913TIP3    H178154   1.423   6.232  14.641 -3.1650  1.3864  0.4644
18913TIP3    H278155   1.429   6.140  14.761  0.4945 -0.7430 -1.2473
18914TIP3   OH278156   6.618   1.391  12.577  0.2885  0.0550  0.3216
18914TIP3    H178157   6.703   1.412  12.540 -0.3349  1.7961 -0.1432
18914TIP3    H278158   6.558   1.456  12.540 -1.2692 -1.2039  0.5446
18915TIP3   OH278159   0.061   2.310  13.255 -0.3657  0.1612 -0.1641
18915TIP3    H178160   0.094   2.346  13.337 -0.6111  1.8958 -0.7904
18915TIP3    H278161   0.090   2.219  13.254  1.7154  0.7972  0.7337
18916TIP3   OH278162   3.957   1.146   5.143  0.2286 -0.0003 -0.2354
18916TIP3    H178163   3.988   1.073   5.090  0.6339  0.0703 -0.1041
18916TIP3    H278164   4.036   1.198   5.160 -0.4704  2.0317 -2.7421
18917TIP3   OH278165   0.434   0.954  14.029 -0.0215  0.1723 -0.2271
18917TIP3    H178166   0.494   0.887  13.998 -0.4406 -0.4372  0.2802
18917TIP3    H278167   0.475   1.037  14.002  0.5752 -0.2732 -0.6993
18918TIP3   OH278168   1.910   5.848   0.892  0.4827 -0.4712  0.0088
18918TIP3    H178169   1.933   5.940   0.897  1.1776 -0.7012  1.2767
18918TIP3    H278170   1.915   5.817   0.983 -0.5935 -1.5456 -0.2940
18919TIP3   OH278171   2.857   5.946  12.331  0.3154  0.0082  0.2905
18919TIP3    H178172   2.872   6.026  12.281 -1.0497 -0.3008 -0.6298
18919TIP3    H278173   2.890   5.876  12.275 -1.3556 -0.3541 -0.2692
18920TIP3   OH278174   3.197   5.209  13.766 -0.1372 -0.4243  0.2658
18920TIP3    H178175   3.192   5.165  13.851 -2.4745  0.9763  0.8797
18920TIP3    H278176   3.132   5.163  13.712  1.2900 -1.2643 -0.7629
18921TIP3   OH278177   2.665   1.377   3.942 -0.0120 -0.5149 -0.3983
18921TIP3    H178178   2.572   1.367   3.965  0.1848 -0.2983  0.5099
18921TIP3    H278179   2.703   1.291   3.961  0.0387 -0.5033 -0.4495
18922TIP3   OH278180   2.073   3.658  11.705  0.7272 -0.1960 -0.4954
18922TIP3    H178181   2.085   3.565  11.724  2.1116 -0.2066 -1.3531
18922TIP3    H278182   2.111   3.670  11.618  1.9731  1.4672  0.2481
18923TIP3   OH278183   1.515   6.671  14.870  0.0583  0.0584  0.1757
18923TIP3    H178184   1.595   6.724  14.865  1.4435 -1.9346  0.3853
18923TIP3    H278185   1.547   6.581  14.883 -2.2384 -0.7292  0.5807
18924TIP3   OH278186   4.236   6.244  16.252 -0.1235 -0.0406  0.4075
18924TIP3    H178187   4.232   6.328  16.206 -1.3153  0.2691  1.0544
18924TIP3    H278188   4.283   6.264  16.334  1.1847 -0.3967 -0.2443
18925TIP3   OH278189   3.799   1.321   1.510  0.0686 -0.5747 -0.6588
18925TIP3    H178190   3.774   1.230   1.496  0.0561 -0.5011 -1.1398
18925TIP3    H278191   3.781   1.337   1.603 -1.1380 -0.6886 -0.8577
18926TIP3   OH278192   4.488   5.556   2.618 -0.1306  0.3955  0.2848
18926TIP3    H178193   4.558   5.588   2.561  0.0006 -1.5460 -0.7010
18926TIP3    H278194   4.456   5.477   2.574 -2.3626  0.7849  1.1733
18927TIP3   OH278195   4.224   3.461  14.588 -0.5303 -0.2551  0.2326
18927TIP3    H178196   4.229   3.539  14.532 -1.1076  0.1929  0.8066
18927TIP3    H278197   4.282   3.482  14.662  0.5207 -0.9936 -0.3687
18928TIP3   OH278198   4.453   6.509  13.290 -0.1567  0.6711  0.0409
18928TIP3    H178199   4.442   6.506  13.195 -0.9728 -0.3773  0.1582
18928TIP3    H278200   4.524   6.572  13.304  1.7957 -1.1047 -1.4384
18929TIP3   OH278201   2.764   6.310   1.775  0.1288 -0.8696 -0.4588
18929TIP3    H178202   2.796   6.276   1.692 -1.4698 -1.8458 -0.6993
18929TIP3    H278203   2.782   6.240   1.838 -0.1474 -0.8107 -0.3119
18930TIP3   OH278204   5.945   0.296  15.775  0.2169  0.1690 -0.2018
18930TIP3    H178205   5.882   0.226  15.757  1.6300 -1.0120 -0.6514
18930TIP3    H278206   6.008   0.291  15.703 -0.1770  2.5292 -0.7623
18931TIP3   OH278207   2.126   4.306  12.442  0.2827 -0.4088  0.1794
18931TIP3    H178208   2.213   4.300  12.403  0.1881  2.0720 -0.4764
18931TIP3    H278209   2.067   4.316  12.367 -0.3464  0.1300  0.7470
18932TIP3   OH278210   0.870   0.319  16.854 -0.0069  0.4745  0.2904
18932TIP3    H178211   0.886   0.340  16.946  0.9792  2.0741 -0.2260
18932TIP3    H278212   0.782   0.351  16.837 -0.0360  0.5396  0.5644
18933TIP3   OH278213   4.988   2.157  13.508  0.1173  0.4635 -0.7332
18933TIP3    H178214   4.924   2.220  13.542  1.3051  0.6419  1.2751
18933TIP3    H278215   4.941   2.073  13.507 -0.0631  0.5168  1.1243
18934TIP3   OH278216   6.248   2.342  12.427 -0.1820  0.2338  0.3111
18934TIP3    H178217   6.228   2.274  12.363 -1.2144  0.4133  0.4374
18934TIP3    H278218   6.319   2.392  12.387 -0.9278  0.4438 -0.7570
18935TIP3   OH278219   6.763   1.279   1.697 -0.4341 -0.2161  0.0059
18935TIP3    H178220   6.821   1.214   1.655  0.3514 -0.0971  0.9003
18935TIP3    H278221   6.729   1.233   1.774 -0.9127 -0.0158 -0.0917
18936TIP3   OH278222   6.762   2.349   3.483 -0.4895 -0.1172 -0.3406
18936TIP3    H178223   6.856   2.333   3.471 -0.3882  0.7014 -0.6879
18936TIP3    H278224   6.748   2.437   3.448 -1.0554  0.4758  1.3377
18937TIP3   OH278225   0.949   4.825   4.144  0.6215  0.6047  0.0519
18937TIP3    H178226   0.892   4.825   4.221  2.1756 -0.5612  1.2501
18937TIP3    H278227   0.930   4.907   4.099 -1.1720  0.7451  1.0229
18938TIP3   OH278228   2.437   1.394  12.286 -0.3212 -0.7897 -0.2957
18938TIP3    H178229   2.494   1.381  12.210 -0.7228 -0.7905 -0.6012
18938TIP3    H278230   2.388   1.474  12.266 -1.3917 -1.5074 -0.6568
18939TIP3   OH278231   6.239   1.270  15.035 -0.0391 -1.0617 -0.1986
18939TIP3    H178232   6.149   1.260  15.005 -0.2684 -0.1440  0.1635
18939TIP3    H278233   6.263   1.359  15.010  0.8179 -1.3433 -0.4100
18940TIP3   OH278234   5.406   2.032   2.590  0.6818  0.3752 -0.0934
18940TIP3    H178235   5.413   2.074   2.505  3.0719  0.1073 -0.0462
18940TIP3    H278236   5.443   2.096   2.651  1.1282 -0.3971  0.4426
18941TIP3   OH278237   1.986   5.971  15.162  0.1308  0.0312 -0.5123
18941TIP3    H178238   1.893   5.990  15.157 -0.2903 -1.9459 -0.5034
18941TIP3    H278239   1.991   5.876  15.168  2.1943  0.0339 -1.6126
18942TIP3   OH278240   0.549   0.026   5.685 -0.4597 -0.5237 -0.1050
18942TIP3    H178241   0.596   0.102   5.651 -0.4911 -1.1204 -1.4973
18942TIP3    H278242   0.596  -0.050   5.651 -0.1649 -1.1341  1.6557
18943TIP3   OH278243   3.629   5.481  11.266  1.0453  0.9827  0.0819
18943TIP3    H178244   3.673   5.529  11.196  1.1146  0.0856 -0.5045
18943TIP3    H278245   3.587   5.408  11.221  2.1249 -0.3050  1.1488
18944TIP3   OH278246   4.198   1.703  12.945  0.0528  0.2845 -0.3949
18944TIP3    H178247   4.251   1.718  12.867  1.5467 -1.4167  0.2572
18944TIP3    H278248   4.254   1.652  13.003 -2.3342 -1.6784  0.2727
18945TIP3   OH278249   4.413   1.190   5.548 -0.1582 -0.7326  0.2482
18945TIP3    H178250   4.495   1.222   5.510 -0.8440 -0.3114 -0.9113
18945TIP3    H278251   4.440   1.125   5.613  1.1664  0.6925  1.1701
18946TIP3   OH278252   1.955   3.307  17.033 -0.4137  0.2421 -0.1092
18946TIP3    H178253   1.918   3.384  17.076  1.4801  0.5331  1.0400
18946TIP3    H278254   1.903   3.234  17.065 -2.4464  1.0513 -1.4655
18947TIP3   OH278255   1.606   2.154   1.619  0.5300  0.3704  0.4099
18947TIP3    H178256   1.644   2.114   1.697  2.0883  1.4087  0.1905
18947TIP3    H278257   1.590   2.245   1.644 -0.2511  0.3650 -0.0468
18948TIP3   OH278258   2.470   5.578  13.781  0.0166  0.1542 -0.0594
18948TIP3    H178259   2.457   5.646  13.847 -0.0264  0.8573 -0.7860
18948TIP3    H278260   2.502   5.624  13.704  2.4894 -0.9724  0.2480
18949TIP3   OH278261   1.190   4.317  17.057  0.7163  0.5344 -0.1644
18949TIP3    H178262   1.198   4.398  17.108  0.1994  2.0165 -2.4043
18949TIP3    H278263   1.244   4.332  16.980 -1.3562 -0.2883 -1.8162
18950TIP3   OH278264   0.099   6.412  14.402 -0.0210  0.0947 -0.3350
18950TIP3    H178265   0.134   6.417  14.313  0.1347 -0.9108 -0.3316
18950TIP3    H278266   0.084   6.503  14.426  2.4833  0.5491 -0.3749
18951TIP3   OH278267   1.508   5.410  11.743 -0.8292 -0.2647 -0.5600
18951TIP3    H178268   1.491   5.355  11.666 -1.4589 -0.1520 -0.5047
18951TIP3    H278269   1.566   5.357  11.797  0.3322  0.0060 -1.5154
18952TIP3   OH278270   1.977   0.563   0.992  0.0939  0.1792 -0.0988
18952TIP3    H178271   1.947   0.638   0.940 -0.4094  0.9485  1.2704
18952TIP3    H278272   2.052   0.596   1.041  0.2046 -0.3716  0.1064
18953TIP3   OH278273   6.339   1.935  12.510 -0.3852 -0.1789 -0.4863
18953TIP3    H178274   6.290   1.928  12.592 -1.9654 -0.7754 -1.4660
18953TIP3    H278275   6.406   2.001  12.528  1.0104 -2.2523  2.1241
18954TIP3   OH278276   1.885   4.891   3.194  0.0364  0.2158  0.6061
18954TIP3    H178277   1.809   4.949   3.200  1.3490  2.0341  0.1003
18954TIP3    H278278   1.922   4.890   3.282  2.0432  3.0426 -0.1142
18955TIP3   OH278279   1.016   0.712  16.396  0.3661 -0.1785 -0.2995
18955TIP3    H178280   1.052   0.630  16.362  0.7605  0.0770 -0.4975
18955TIP3    H278281   0.922   0.706  16.377  0.6643  0.2282 -2.0304
18956TIP3   OH278282   6.508   1.994   2.329 -0.1083  0.0973  0.2056
18956TIP3    H178283   6.498   2.088   2.343  1.6490  0.4636 -0.8888
18956TIP3    H278284   6.419   1.963   2.312 -1.4363  0.7101  5.3397
18957TIP3   OH278285   5.542   3.712   6.340 -0.4302  0.2860  0.0067
18957TIP3    H178286   5.461   3.736   6.295  0.8404  0.9242 -2.0079
18957TIP3    H278287   5.524   3.626   6.378 -2.8237  1.4529  1.6335
18958TIP3   OH278288   3.635   5.461  10.791 -0.1883  0.4961  0.1832
18958TIP3    H178289   3.591   5.496  10.868  0.5532  2.0967 -0.0802
18958TIP3    H278290   3.720   5.505  10.790  0.7454 -1.2739 -0.2497
18959TIP3   OH278291   1.433   5.730   1.441 -0.1071 -0.2022  0.9036
18959TIP3    H178292   1.495   5.661   1.420  0.7408  0.6421  0.6241
18959TIP3    H278293   1.446   5.746   1.535 -0.1708 -0.2862  0.9270
18960TIP3   OH278294   5.923   0.621   1.456 -0.7154 -0.0430  0.5048
18960TIP3    H178295   5.984   0.678   1.409 -0.1699 -1.2557 -0.2680
18960TIP3    H278296   5.861   0.592   1.389  0.5818 -2.4883  0.3194
18961TIP3   OH278297   6.443   1.866   4.752 -0.3087  0.4072  0.0584
18961TIP3    H178298   6.500   1.943   4.759 -0.1204  0.0950  2.2745
18961TIP3    H278299   6.401   1.859   4.838 -0.6189 -1.7360 -0.2358
18962TIP3   OH278300   0.345   0.044  14.596 -0.1565  0.5231 -0.2693
18962TIP3    H178301   0.411   0.113  14.586  1.3748 -0.6282  1.5648
18962TIP3    H278302   0.309   0.058  14.684  0.7588 -1.4673  0.4646
18963TIP3   OH278303   6.314   6.664  11.382 -0.2231 -0.4341 -0.1998
18963TIP3    H178304   6.330   6.598  11.315 -1.7305 -0.8372 -0.1759
18963TIP3    H278305   6.310   6.747  11.335  1.9589 -0.3014 -0.1960
18964TIP3   OH278306   0.985   1.820   2.976  0.3753  0.5479  0.6930
18964TIP3    H178307   0.949   1.757   2.913  0.4416  0.1733  1.0249
18964TIP3    H278308   0.930   1.898   2.965  0.2905  0.4353  0.2774
18965TIP3   OH278309   1.752   5.583   3.727  0.0162 -0.1181 -0.3212
18965TIP3    H178310   1.762   5.587   3.822 -0.1554  1.7500 -0.3639
18965TIP3    H278311   1.837   5.610   3.692 -0.3103  0.4319 -0.6987
18966TIP3   OH278312   2.015   2.693  11.805  0.3471  0.0556 -0.6307
18966TIP3    H178313   2.069   2.771  11.793  1.1697 -0.0740  1.9158
18966TIP3    H278314   1.953   2.717  11.874 -1.9111 -0.3012 -2.4805
18967TIP3   OH278315   0.482   6.762   5.321 -0.0489  0.1858 -0.0507
18967TIP3    H178316   0.508   6.682   5.367  0.8419 -0.6164 -1.8812
18967TIP3    H278317   0.564   6.803   5.296 -0.4527 -0.6704 -3.0116
18968TIP3   OH278318   1.323   3.040   3.253  0.1821  0.5433 -0.0656
18968TIP3    H178319   1.399   2.983   3.259  0.5620  1.0353 -0.1482
18968TIP3    H278320   1.254   2.986   3.214 -0.1845 -0.5738  2.0979
18969TIP3   OH278321   5.855   1.397   5.018  0.7622 -0.4476 -0.1970
18969TIP3    H178322   5.852   1.355   5.104 -0.2539  0.1804  0.0851
18969TIP3    H278323   5.840   1.326   4.956  0.4108 -0.7244  0.2017
18970TIP3   OH278324   5.436   3.462   4.732 -0.0972  0.3222  0.2657
18970TIP3    H178325   5.471   3.378   4.702  1.0762  0.8476  0.1245
18970TIP3    H278326   5.350   3.469   4.690  0.1163 -0.4658 -0.3157
18971TIP3   OH278327   0.677   3.052  11.169  0.2096 -0.8945 -0.0905
18971TIP3    H178328   0.610   3.113  11.137 -1.1757 -1.4497  1.6437
18971TIP3    H278329   0.721   3.022  11.090 -0.7223  0.4972 -1.1703
18972TIP3   OH278330   4.679   5.365   0.190  0.3450 -0.2889 -0.1363
18972TIP3    H178331   4.659   5.458   0.185  0.4303 -0.3199 -1.2241
18972TIP3    H278332   4.657   5.330   0.104 -3.4611 -2.0796  1.4635
18973TIP3   OH278333   6.489   1.374  16.434 -0.1207 -0.2314 -0.3466
18973TIP3    H178334   6.411   1.418  16.468  0.2347  0.5738 -0.5445
18973TIP3    H278335   6.518   1.317  16.506 -0.2670  0.2882  0.1287
18974TIP3   OH278336   5.116   3.094   2.841 -0.1854  0.8675 -0.5823
18974TIP3    H178337   5.079   3.080   2.928  0.5456  1.4540 -0.1754
18974TIP3    H278338   5.040   3.090   2.783 -0.6146  0.0086  0.0253
18975TIP3   OH278339   0.524   1.770  17.027  0.1941  0.0382 -0.0042
18975TIP3    H178340   0.620   1.772  17.029  0.1728  0.8065  1.9103
18975TIP3    H278341   0.498   1.860  17.046 -0.9028 -0.3299  0.2757
18976TIP3   OH278342   0.306   3.761   3.149  0.4640 -0.1643  0.0764
18976TIP3    H178343   0.310   3.831   3.084 -0.4934  1.8075  2.0767
18976TIP3    H278344   0.244   3.792   3.214  0.5524 -2.5962  1.3788
18977TIP3   OH278345   0.349   0.573   4.599 -0.5050 -0.0438 -0.1727
18977TIP3    H178346   0.347   0.490   4.647 -1.7397 -0.6288 -1.1857
18977TIP3    H278347   0.359   0.547   4.508 -1.3926  0.8984 -0.5424
18978TIP3   OH278348   5.847   0.370   6.548  0.2869 -0.3496 -0.4300
18978TIP3    H178349   5.780   0.422   6.594 -0.3883  0.3319 -2.1562
18978TIP3    H278350   5.887   0.318   6.617 -1.8470 -0.5783  0.6951
18979TIP3   OH278351   0.729   5.791  16.453 -0.0009  0.2538  0.2106
18979TIP3    H178352   0.701   5.819  16.540  1.0957  1.0303  0.3306
18979TIP3    H278353   0.648   5.769  16.407 -0.7918  2.1714  0.6435
18980TIP3   OH278354   5.948   0.908  12.534  0.2469  0.1755 -0.0665
18980TIP3    H178355   5.915   0.953  12.457 -1.6894 -0.9757  0.0656
18980TIP3    H278356   5.879   0.846  12.558  1.2225 -0.1702  2.0107
18981TIP3   OH278357   2.716   4.284  13.459  0.0449  0.2957 -0.2310
18981TIP3    H178358   2.783   4.262  13.523  1.1977  1.1813 -1.1113
18981TIP3    H278359   2.673   4.201  13.439 -0.7947  0.1220  2.1884
18982TIP3   OH278360   5.538   0.274  16.398  0.5617 -0.8848 -0.0145
18982TIP3    H178361   5.447   0.245  16.394  0.6987 -1.2175 -0.6813
18982TIP3    H278362   5.543   0.327  16.478 -0.9036  1.4689 -1.4132
18983TIP3   OH278363   1.714   0.750  15.861 -0.2457 -0.1111  0.2667
18983TIP3    H178364   1.650   0.821  15.872  0.4556  0.5556  0.1346
18983TIP3    H278365   1.767   0.778  15.786 -1.4189 -1.8892 -1.2685
18984TIP3   OH278366   4.760   1.910  13.289  0.3163 -0.1963  0.4027
18984TIP3    H178367   4.671   1.876  13.282  0.1778  0.3588 -0.6467
18984TIP3    H278368   4.750   2.005  13.285  0.9082 -0.1118  0.8801
18985TIP3   OH278369   5.381   1.052  14.387 -0.4647 -0.2071  0.3882
18985TIP3    H178370   5.360   1.123  14.447  0.0427 -1.4652  2.1124
18985TIP3    H278371   5.476   1.040  14.396 -0.3812 -0.4273 -0.6553
18986TIP3   OH278372   1.688   2.028   3.407 -0.1436 -0.1187  0.0206
18986TIP3    H178373   1.642   1.973   3.344  0.8461  0.8421 -1.5874
18986TIP3    H278374   1.749   1.969   3.452  0.0994 -0.5555 -0.8814
18987TIP3   OH278375   3.894   0.064  13.729 -0.2239 -0.2068 -0.0483
18987TIP3    H178376   3.956   0.029  13.665 -1.5609 -1.6180 -0.5951
18987TIP3    H278377   3.886   0.157  13.706 -0.5660 -0.6697 -1.8387
18988TIP3   OH278378   5.818   2.057  14.444 -0.1339 -0.0634 -0.1058
18988TIP3    H178379   5.822   1.984  14.505  1.6338 -1.5197 -1.9020
18988TIP3    H278380   5.726   2.083  14.444 -0.5211 -1.3851  1.6053
18989TIP3   OH278381   0.183   6.687   0.264  0.3122  0.3919  0.0530
18989TIP3    H178382   0.230   6.653   0.188 -1.0734  0.9961 -1.0951
18989TIP3    H278383   0.111   6.624   0.277 -1.1006  1.7557 -0.8804
18990TIP3   OH278384   4.261   3.804  15.529 -0.5221  0.2099  0.4823
18990TIP3    H178385   4.191   3.848  15.577 -0.1288  0.1296  1.1326
18990TIP3    H278386   4.215   3.742  15.472 -0.9317 -0.7859  1.8569
18991TIP3   OH278387   2.755   5.091   1.147 -0.0974 -0.1445  0.3274
18991TIP3    H178388   2.811   5.063   1.220  1.1841 -1.1825 -1.0281
18991TIP3    H278389   2.730   5.181   1.169  2.2626  0.4152  0.8933
18992TIP3   OH278390   0.945   5.461   0.418  0.7618  0.2015 -0.0382
18992TIP3    H178391   1.015   5.415   0.373  1.2483 -1.0496  1.9368
18992TIP3    H278392   0.942   5.548   0.377  2.2180 -0.3652 -1.3693
18993TIP3   OH278393   3.651   0.700   2.042  0.1980  0.2184  0.7230
18993TIP3    H178394   3.637   0.695   1.947  1.4487 -1.7075  0.6147
18993TIP3    H278395   3.732   0.651   2.057  0.0007  0.4834  2.7963
18994TIP3   OH278396   1.577   3.598   5.187 -0.3911  0.0282  0.0729
18994TIP3    H178397   1.571   3.522   5.129 -1.1285  0.0183  0.1506
18994TIP3    H278398   1.661   3.588   5.232  0.2769  0.1540 -1.1519
18995TIP3   OH278399   4.008   1.373   6.052 -0.4513  0.4108  0.5642
18995TIP3    H178400   3.974   1.340   6.136  0.1374  0.9442  1.0140
18995TIP3    H278401   3.953   1.330   5.986 -0.2438 -0.8361  1.1782
18996TIP3   OH278402   1.902   5.778  12.408  0.3398  0.2495  0.3013
18996TIP3    H178403   1.964   5.764  12.336  0.8949  0.1952  0.7845
18996TIP3    H278404   1.942   5.847  12.461  0.2923 -0.2263  0.9585
18997TIP3   OH278405   2.456   1.775  12.109 -0.1251  0.3192  0.3648
18997TIP3    H178406   2.528   1.809  12.162  2.0834  0.3846 -2.5268
18997TIP3    H278407   2.479   1.683  12.094 -0.2787  0.4917 -1.0592
18998TIP3   OH278408   3.890   1.147   5.865 -0.2642  0.5383 -0.7901
18998TIP3    H178409   3.979   1.129   5.894 -0.1162  0.4342 -1.2942
18998TIP3    H278410   3.901   1.191   5.780 -0.7265 -0.7547 -1.5369
18999TIP3   OH278411   5.304   1.064  12.925 -0.5883 -0.3674  0.0577
18999TIP3    H178412   5.227   1.052  12.979 -0.4522 -0.5270  0.2167
18999TIP3    H278413   5.370   1.100  12.984 -0.6062 -0.0340 -0.1250
19000TIP3   OH278414   6.174   2.945   5.339  0.2697 -0.6303  0.5577
19000TIP3    H178415   6.100   3.001   5.314 -0.5432 -1.4739  1.0125
19000TIP3    H278416   6.250   3.003   5.339 -0.2466  0.0623 -0.7661
19001TIP3   OH278417   4.796   2.257   5.036 -0.0302  0.1759 -0.4318
19001TIP3    H178418   4.701   2.265   5.047  0.0880  1.8181 -0.5357
19001TIP3    H278419   4.808   2.234   4.943 -0.3187 -0.0037 -0.4249
19002TIP3   OH278420   6.255   0.714  16.603  0.4928 -0.1470  0.1187
19002TIP3    H178421   6.193   0.761  16.547 -0.6585 -2.4126 -0.5742
19002TIP3    H278422   6.236   0.745  16.691 -2.0086 -1.1553 -0.0304
19003TIP3   OH278423   6.413   6.169   2.704 -0.0904  0.1206  1.2251
19003TIP3    H178424   6.347   6.236   2.726 -0.1945  0.7021 -0.7256
19003TIP3    H278425   6.477   6.216   2.650  0.9642 -0.8750  1.5915
19004TIP3   OH278426   1.238   2.507  14.262 -0.1045 -0.9109 -0.2057
19004TIP3    H178427   1.213   2.476  14.174  1.0756 -0.1090 -0.8363
19004TIP3    H278428   1.223   2.601  14.259  0.3100 -0.8256  0.3321
19005TIP3   OH278429   5.952   4.468   4.997 -0.2105 -0.3349  0.6146
19005TIP3    H178430   5.954   4.499   4.907  1.6069  1.1149  1.1048
19005TIP3    H278431   5.919   4.543   5.047  0.9633 -0.3294  1.4078
19006TIP3   OH278432   5.418   1.636   0.799  1.1421  0.5544  0.0630
19006TIP3    H178433   5.354   1.670   0.736  1.0618  1.6932  0.7515
19006TIP3    H278434   5.373   1.562   0.841  0.6916  0.6514 -0.2371
19007TIP3   OH278435   0.681   2.462  10.562  0.3404 -0.0241 -0.0544
19007TIP3    H178436   0.766   2.456  10.604 -1.2373  2.0359  3.7411
19007TIP3    H278437   0.640   2.377  10.578 -0.8361  1.2116  4.2415
19008TIP3   OH278438   6.371   5.318   0.640  0.0212 -1.0438  0.5762
19008TIP3    H178439   6.385   5.224   0.636 -0.3334 -1.1039  0.7453
19008TIP3    H278440   6.355   5.337   0.732  2.3585 -0.4820  0.9126
19009TIP3   OH278441   3.158   2.071  14.783 -0.0479 -0.2719 -0.2595
19009TIP3    H178442   3.224   2.070  14.713 -0.0242 -1.1414 -0.2334
19009TIP3    H278443   3.124   1.981  14.784 -1.9386  0.4241 -0.9254
19010TIP3   OH278444   2.595   5.043  16.901  0.5393  0.6507  0.0631
19010TIP3    H178445   2.504   5.013  16.895  1.1640 -1.0199 -1.2557
19010TIP3    H278446   2.587   5.137  16.917 -1.4220  0.6828 -0.8747
19011TIP3   OH278447   2.593   2.444   4.409 -0.3657 -0.0888 -0.1457
19011TIP3    H178448   2.591   2.374   4.344 -2.1141 -1.3187  1.1792
19011TIP3    H278449   2.684   2.444   4.440 -0.1557 -1.2586 -0.7169
19012TIP3   OH278450   1.812   3.355  15.620  0.4343  0.0555  0.6528
19012TIP3    H178451   1.740   3.345  15.683 -0.0792  0.3987  0.1233
19012TIP3    H278452   1.785   3.428  15.564  0.8901 -0.2465  0.0334
19013TIP3   OH278453   4.548   1.454   3.151 -0.5097  0.4587  0.0200
19013TIP3    H178454   4.499   1.507   3.214  0.7736  1.4418  0.2089
19013TIP3    H278455   4.568   1.373   3.198  1.0018  1.4511  1.1220
19014TIP3   OH278456   2.802   0.409   0.263  0.0681 -0.1983  0.6622
19014TIP3    H178457   2.756   0.396   0.180  0.7903  0.2327  0.1847
19014TIP3    H278458   2.742   0.375   0.330 -0.2240 -1.1891 -0.0951
19015TIP3   OH278459   1.024   0.393   6.894  0.1903  0.3800 -0.4503
19015TIP3    H178460   1.066   0.479   6.903  0.4718  0.1477  0.4086
19015TIP3    H278461   0.949   0.410   6.836  0.4743  1.1248 -0.6121
19016TIP3   OH278462   5.264   6.738   5.549 -0.0214  0.2359 -0.0871
19016TIP3    H178463   5.184   6.762   5.595  0.1652  0.3434  0.1793
19016TIP3    H278464   5.316   6.691   5.614  0.2129  0.3293 -0.2062
19017TIP3   OH278465   2.032   3.444   4.161 -0.6622 -0.0447 -0.9620
19017TIP3    H178466   2.055   3.357   4.193 -0.5044  0.4258  0.2177
19017TIP3    H278467   2.034   3.500   4.238 -0.3496  1.0962 -1.7821
19018TIP3   OH278468   5.184   0.572  13.204  0.0804  0.1682 -0.4144
19018TIP3    H178469   5.143   0.652  13.170 -0.1786 -1.1552 -3.2978
19018TIP3    H278470   5.261   0.559  13.149  2.3061  0.4913  2.4867
19019TIP3   OH278471   5.724   4.447  15.234 -0.8601 -0.1437  0.0124
19019TIP3    H178472   5.722   4.484  15.322  1.2827  0.1166 -0.0219
19019TIP3    H278473   5.727   4.524  15.176 -1.5295 -0.3213 -0.2583
19020TIP3   OH278474   0.947   5.405   2.177  0.7419  0.8148  0.1459
19020TIP3    H178475   0.942   5.383   2.270  0.7232 -0.0165 -0.0507
19020TIP3    H278476   1.035   5.380   2.151 -0.6992 -3.2488 -1.1329
19021TIP3   OH278477   0.388   0.667   0.635  0.5423  0.2477  0.2041
19021TIP3    H178478   0.395   0.756   0.600  2.1662 -0.6325 -1.8155
19021TIP3    H278479   0.382   0.679   0.730 -1.4114  2.5868 -0.1514
19022TIP3   OH278480   5.826   3.900  14.331 -0.0124  0.3874  0.1336
19022TIP3    H178481   5.893   3.919  14.397  1.8014 -1.6330 -1.0887
19022TIP3    H278482   5.870   3.913  14.247 -1.1217 -1.0608 -0.6901
19023TIP3   OH278483   0.810   3.277  16.281  0.3119 -0.7464 -0.0848
19023TIP3    H178484   0.764   3.356  16.311 -1.1195 -1.5689 -0.0607
19023TIP3    H278485   0.741   3.224  16.240  1.4203 -1.6129 -0.8389
19024TIP3   OH278486   5.624   2.356  12.538  0.2761 -0.1523  0.8002
19024TIP3    H178487   5.607   2.266  12.564 -1.4301  0.1175  0.6764
19024TIP3    H278488   5.564   2.372  12.465 -0.2539  1.4376  1.5577
19025TIP3   OH278489   6.679   1.677   3.872  0.0754  0.0120 -0.0209
19025TIP3    H178490   6.728   1.750   3.833  1.1630 -0.8146 -0.2222
19025TIP3    H278491   6.720   1.599   3.837  0.6892 -0.7601  2.3049
19026TIP3   OH278492   5.078   5.661   4.232  0.0532  0.3415 -0.2438
19026TIP3    H178493   5.103   5.569   4.241  0.6639  0.5857  0.5999
19026TIP3    H278494   4.985   5.658   4.211  0.1657 -0.4813 -0.6576
19027TIP3   OH278495   2.542   2.980  16.533 -0.1444  0.4332  0.1722
19027TIP3    H178496   2.533   3.062  16.486  0.7666  1.3235  1.5371
19027TIP3    H278497   2.591   2.923  16.473  0.1364  1.2286 -0.3538
19028TIP3   OH278498   3.884   5.648  13.250  0.0460  0.2927  0.0842
19028TIP3    H178499   3.857   5.601  13.329 -0.5698 -3.6550 -2.3202
19028TIP3    H278500   3.802   5.670  13.206  0.3974 -1.7749 -1.7155
19029TIP3   OH278501   1.443   5.517   3.744 -0.5093 -0.2400 -0.3715
19029TIP3    H178502   1.426   5.476   3.660 -0.6480  1.7095 -1.3114
19029TIP3    H278503   1.467   5.607   3.723 -0.0963  0.1494  1.6409
19030TIP3   OH278504   2.560   6.392  16.252 -0.1105 -0.0182  0.4215
19030TIP3    H178505   2.602   6.411  16.336 -0.6410  1.8880  0.2698
19030TIP3    H278506   2.467   6.397  16.271 -0.2313 -0.0258 -0.1848
19031TIP3   OH278507   6.366   0.138   2.973  0.0455 -0.5332  0.0290
19031TIP3    H178508   6.439   0.162   3.030  0.4267 -1.0150 -0.2566
19031TIP3    H278509   6.315   0.076   3.024  0.8592 -1.6335 -0.4669
19032TIP3   OH278510   3.164   4.652   0.407 -0.6687 -0.3950  0.0383
19032TIP3    H178511   3.096   4.611   0.354  1.2975 -0.0979 -2.8728
19032TIP3    H278512   3.169   4.742   0.375  0.8270 -0.3290  0.4073
19033TIP3   OH278513   1.764   0.082   4.920 -0.3068 -0.0679 -0.0523
19033TIP3    H178514   1.787   0.126   4.838  0.1017  0.6433  0.4463
19033TIP3    H278515   1.784   0.146   4.988 -0.0151 -0.9167  0.6540
19034TIP3   OH278516   4.610   4.006  11.275 -0.0398  0.2162 -0.3561
19034TIP3    H178517   4.696   3.964  11.269 -0.5485 -1.1060  1.4453
19034TIP3    H278518   4.549   3.941  11.242 -0.5631  0.4281  0.1877
19035TIP3   OH278519   6.625   1.263  13.844 -0.5403  0.6913 -0.4861
19035TIP3    H178520   6.579   1.206  13.783 -1.0274  0.8550 -0.2785
19035TIP3    H278521   6.607   1.352  13.813  0.8399  0.7208 -1.2563
19036TIP3   OH278522   3.507   5.539   2.787 -0.4760 -0.4478  0.1694
19036TIP3    H178523   3.507   5.624   2.744  0.2357 -0.4541  0.1539
19036TIP3    H278524   3.552   5.554   2.870  0.6159 -1.0447 -0.3062
19037TIP3   OH278525   3.962   3.416   5.479 -0.4150 -0.1325 -0.5774
19037TIP3    H178526   3.985   3.326   5.502  0.9363 -0.0273 -1.4568
19037TIP3    H278527   3.887   3.408   5.420 -0.9680 -0.6145  0.1763
19038TIP3   OH278528   3.197   1.600  14.567  0.2041 -0.8093 -0.0908
19038TIP3    H178529   3.188   1.682  14.617 -1.4205 -1.3671  0.5473
19038TIP3    H278530   3.114   1.555  14.580 -0.6840 -0.5312 -4.1224
19039TIP3   OH278531   0.271   0.334  15.681 -0.2059  0.1863  0.0981
19039TIP3    H178532   0.317   0.329  15.765  0.8551 -0.8009 -0.5257
19039TIP3    H278533   0.178   0.338  15.705 -0.0120 -1.7115  1.3003
19040TIP3   OH278534   5.648   1.414  13.058 -0.2568 -0.7828 -0.7912
19040TIP3    H178535   5.659   1.319  13.064  0.5450 -0.7826 -1.8995
19040TIP3    H278536   5.555   1.429  13.070 -0.3410 -1.6852 -0.2909
19041TIP3   OH278537   2.205   3.813   4.600  0.4464  0.2136  0.4636
19041TIP3    H178538   2.165   3.836   4.684 -1.5661 -0.9702 -0.1524
19041TIP3    H278539   2.195   3.892   4.547 -1.2993 -0.1635  0.2293
19042TIP3   OH278540   5.292   6.347  11.879 -0.2081 -0.3844 -0.3073
19042TIP3    H178541   5.289   6.443  11.882 -2.5508 -0.4316 -0.2173
19042TIP3    H278542   5.385   6.326  11.882  0.4004  1.9226 -1.5391
19043TIP3   OH278543   5.644   5.460  14.015 -0.7529  0.1415 -0.1307
19043TIP3    H178544   5.738   5.448  14.004 -0.4596 -0.1509  2.4103
19043TIP3    H278545   5.626   5.547  13.978  0.6907  0.6164  0.2667
19044TIP3   OH278546   2.054   0.761   1.859  0.0222  0.4069 -0.6162
19044TIP3    H178547   2.033   0.834   1.801 -0.7072 -0.1340 -1.0385
19044TIP3    H278548   2.018   0.787   1.944 -2.2881 -0.4548 -1.3030
19045TIP3   OH278549   0.245   5.275   6.479  0.1377  0.3093  0.7228
19045TIP3    H178550   0.315   5.326   6.520  0.6127  0.4384 -0.2302
19045TIP3    H278551   0.291   5.207   6.429 -0.4545 -0.2828  0.9908
19046TIP3   OH278552   3.117   3.275  14.156 -0.5637 -0.0548  0.6790
19046TIP3    H178553   3.035   3.308  14.193 -1.6044 -0.9375 -0.7549
19046TIP3    H278554   3.133   3.332  14.080  0.4861  0.4869  1.2908
19047TIP3   OH278555   2.849   1.041  16.777  0.5983  0.0706 -0.4089
19047TIP3    H178556   2.789   1.026  16.850  0.1965 -0.7626 -0.9061
19047TIP3    H278557   2.935   1.018  16.811  0.7266  1.7391  0.4556
19048TIP3   OH278558   1.615   1.255   4.304 -0.0371  0.6836 -0.6962
19048TIP3    H178559   1.670   1.327   4.272  1.1037 -0.0916 -0.4735
19048TIP3    H278560   1.565   1.294   4.376  2.8509  0.4638  1.5243
19049TIP3   OH278561   3.069   3.904   3.175 -0.7799 -0.0052 -0.4873
19049TIP3    H178562   3.094   3.907   3.082 -1.5228 -2.2362 -0.7942
19049TIP3    H278563   3.152   3.889   3.221 -0.2064  2.5032 -0.6456
19050TIP3   OH278564   6.201   4.486  16.354 -0.5142 -0.5983 -0.4844
19050TIP3    H178565   6.120   4.514  16.311 -0.4418 -0.7619 -0.7307
19050TIP3    H278566   6.255   4.565  16.357 -1.1381 -0.2031  0.7422
19051TIP3   OH278567   0.253   6.685   4.224 -0.5059  0.5009 -0.5709
19051TIP3    H178568   0.275   6.669   4.132 -3.4350 -0.6403 -1.1239
19051TIP3    H278569   0.254   6.780   4.233  0.7111  0.5979 -1.5225
19052TIP3   OH278570   4.624   0.090  14.028 -0.4454 -0.0160  0.6405
19052TIP3    H178571   4.697   0.053  13.979  1.0101  1.0218  2.0133
19052TIP3    H278572   4.591   0.017  14.080 -2.3244 -1.2653 -2.1902
19053TIP3   OH278573   1.225   5.480   3.931 -0.2230  0.0870 -0.2397
19053TIP3    H178574   1.220   5.384   3.929 -1.1350  0.1361 -0.9245
19053TIP3    H278575   1.290   5.502   3.865  1.9870 -0.1659  1.8211
19054TIP3   OH278576   1.299   4.797  11.160 -0.4257 -0.2849  0.0292
19054TIP3    H178577   1.379   4.757  11.192 -0.2070 -0.3587 -0.5920
19054TIP3    H278578   1.279   4.866  11.223  0.2133 -0.1676  0.1019
19055TIP3   OH278579   3.451   0.607   4.425  0.0607 -0.7548 -0.2089
19055TIP3    H178580   3.473   0.650   4.342  1.8999 -0.8936  0.1994
19055TIP3    H278581   3.480   0.517   4.415 -2.5328 -1.5912 -0.5404
19056TIP3   OH278582   5.647   1.465  14.868  0.1799 -0.1113 -0.1117
19056TIP3    H178583   5.742   1.466  14.854  0.0803  0.9960 -0.7808
19056TIP3    H278584   5.611   1.453  14.780 -0.3265  1.0797 -0.0776
19057TIP3   OH278585   6.729   5.979   5.687 -0.0236  0.1792 -0.6522
19057TIP3    H178586   6.728   5.940   5.599 -1.6452 -1.2031 -0.0276
19057TIP3    H278587   6.646   5.955   5.726  0.4455  1.2610  1.0956
19058TIP3   OH278588   5.606   5.310   3.231 -0.3210 -0.8025  0.0118
19058TIP3    H178589   5.528   5.341   3.185 -1.1638  0.3763  2.1922
19058TIP3    H278590   5.660   5.388   3.242  2.0377 -1.9088 -3.0338
19059TIP3   OH278591   4.872   5.280  15.864 -0.2995  0.3422  0.5802
19059TIP3    H178592   4.879   5.190  15.898 -1.5084  0.0695  0.1321
19059TIP3    H278593   4.915   5.334  15.931  2.5599 -0.8039 -0.2755
19060TIP3   OH278594   6.161   3.538  11.329  0.4483 -0.3469  0.4228
19060TIP3    H178595   6.228   3.596  11.292  0.8978 -1.5787 -0.7150
19060TIP3    H278596   6.207   3.487  11.395  0.6102 -1.0821 -0.2483
19061TIP3   OH278597   1.421   1.365  16.771 -0.0055  0.1892 -0.3131
19061TIP3    H178598   1.355   1.315  16.722  0.0950  0.3331 -0.5995
19061TIP3    H278599   1.370   1.415  16.835  0.0933 -2.3024  1.8194
19062TIP3   OH278600   3.077   3.156   1.287  0.0249 -0.6295 -0.2368
19062TIP3    H178601   3.005   3.201   1.331  1.5327  0.4976  1.1333
19062TIP3    H278602   3.048   3.149   1.196 -2.3104 -1.2699  0.5268
19063TIP3   OH278603   3.674   0.673   1.113 -0.1840  0.3153 -0.2148
19063TIP3    H178604   3.735   0.730   1.160  1.2665 -1.9320  0.6908
19063TIP3    H278605   3.601   0.662   1.174  0.8516 -1.1046  0.7855
19064TIP3   OH278606   0.703   5.935   1.141 -0.8623 -0.2737 -0.0160
19064TIP3    H178607   0.756   5.975   1.210  1.4066 -1.9513 -0.7561
19064TIP3    H278608   0.763   5.925   1.067 -2.9841  0.5238 -1.9061
19065TIP3   OH278609   0.389   3.772  16.597 -0.0366  0.2997 -0.4171
19065TIP3    H178610   0.308   3.754  16.549 -0.1302 -0.7375  0.1138
19065TIP3    H278611   0.366   3.844  16.655 -0.5420  0.1297 -0.3978
19066TIP3   OH278612   1.810   3.626  17.097  0.2165 -0.5614  0.2528
19066TIP3    H178613   1.870   3.694  17.066  0.1569 -0.2024  0.9133
19066TIP3    H278614   1.858   3.581  17.165  0.2009 -1.0952 -0.0912
19067TIP3   OH278615   4.402   6.240   4.502  0.0200  0.1357  0.1357
19067TIP3    H178616   4.380   6.266   4.412  0.0323  2.7524  0.8341
19067TIP3    H278617   4.329   6.183   4.529 -0.4381  0.0510 -1.2226
19068TIP3   OH278618   5.456   5.793  15.050  0.2032 -0.5174  0.4177
19068TIP3    H178619   5.399   5.869  15.041  1.5091  0.7622  2.6248
19068TIP3    H278620   5.540   5.829  15.078  1.2602 -2.6461  0.0867
19069TIP3   OH278621   1.028   1.479  13.936 -0.1252 -0.2143  0.1591
19069TIP3    H178622   0.954   1.520  13.981  0.6317  0.9000  0.4107
19069TIP3    H278623   1.005   1.483  13.843  0.0604  1.0323  0.1601
19070TIP3   OH278624   3.385   5.545   5.415 -0.2174  0.3864  0.4765
19070TIP3    H178625   3.450   5.508   5.474  0.1587  0.3931  0.0619
19070TIP3    H278626   3.435   5.601   5.356 -0.3155 -1.2439 -1.1926
19071TIP3   OH278627   2.678   4.680  11.997  0.3085  0.2396  0.1517
19071TIP3    H178628   2.730   4.760  11.999 -0.5938  0.8177  1.0250
19071TIP3    H278629   2.633   4.684  11.912 -0.0672  0.8756  0.3773
19072TIP3   OH278630   5.544   6.764  14.034 -0.6284 -0.2762 -0.4059
19072TIP3    H178631   5.556   6.830  13.965 -0.4554 -0.5394 -0.6318
19072TIP3    H278632   5.630   6.759  14.076 -0.8712  0.2366  0.1478
19073TIP3   OH278633   0.576   2.319  12.716  0.2069 -0.8018 -0.4403
19073TIP3    H178634   0.602   2.251  12.779  1.0063  0.3097  0.4303
19073TIP3    H278635   0.589   2.277  12.631  2.8712 -1.0156  0.0159
19074TIP3   OH278636   1.011   2.732  11.273  0.5757  0.5714 -0.1845
19074TIP3    H178637   0.945   2.775  11.327 -0.8831 -1.7263 -0.0480
19074TIP3    H278638   0.962   2.693  11.201  1.6211 -1.8445  0.3400
19075TIP3   OH278639   1.718   0.896  14.172  0.1868 -0.3083 -0.5885
19075TIP3    H178640   1.740   0.847  14.093  1.6658 -0.9877  0.2162
19075TIP3    H278641   1.793   0.955  14.184  0.6862 -1.2482  1.1084
19076TIP3   OH278642   3.897   5.304   1.036 -0.2871 -0.0578 -0.2552
19076TIP3    H178643   3.823   5.302   1.097  0.2789 -1.2828  0.3965
19076TIP3    H278644   3.884   5.385   0.986 -1.9726 -0.1613 -0.0241
19077TIP3   OH278645   4.085   4.550   0.448  0.1483  0.4977 -1.0406
19077TIP3    H178646   3.993   4.574   0.458 -0.3260 -1.4322 -0.5448
19077TIP3    H278647   4.107   4.504   0.529  1.4100  0.5423 -1.3428
19078TIP3   OH278648   6.682   1.652  12.455 -0.2361  0.0396  0.7108
19078TIP3    H178649   6.586   1.661  12.455 -0.2557 -0.0338  2.0389
19078TIP3    H278650   6.714   1.742  12.459 -0.2419  0.0828 -0.1776
19079TIP3   OH278651   3.456   5.529   0.372 -0.1565  0.9137 -0.0725
19079TIP3    H178652   3.446   5.465   0.301  0.2865  0.8618 -0.0891
19079TIP3    H278653   3.423   5.611   0.334  0.1470  0.9017 -0.3666
19080TIP3   OH278654   3.454   3.683   5.594  0.3416 -0.6029 -0.3494
19080TIP3    H178655   3.507   3.744   5.543 -0.1760  0.1490 -0.0070
19080TIP3    H278656   3.382   3.658   5.536  0.5325 -0.8394 -0.4776
19081TIP3   OH278657   3.726   3.932  16.045 -0.1774 -0.1593  0.4506
19081TIP3    H178658   3.809   3.977  16.032 -0.8731  0.5729 -1.7938
19081TIP3    H278659   3.731   3.897  16.134  2.2431  0.4233  0.5838
19082TIP3   OH278660   4.486   4.784   3.589 -0.0658 -0.5183  0.1514
19082TIP3    H178661   4.395   4.784   3.618  0.2279  3.0311  1.2346
19082TIP3    H278662   4.534   4.745   3.661 -0.5182 -0.9828  0.2104
19083TIP3   OH278663   4.503   4.271  16.557  0.1370 -0.3917  0.1136
19083TIP3    H178664   4.571   4.222  16.603 -0.8070 -0.5422  1.3624
19083TIP3    H278665   4.436   4.205  16.537  0.2515 -0.2004 -0.9088
19084TIP3   OH278666   4.232   0.182   1.174  0.3663  0.7654  0.0150
19084TIP3    H178667   4.184   0.115   1.125  0.5989  1.0761 -0.6326
19084TIP3    H278668   4.194   0.179   1.262 -0.1316  0.2966 -0.2173
19085TIP3   OH278669   4.881   5.298   5.168 -0.0730 -0.6155 -0.2421
19085TIP3    H178670   4.908   5.252   5.247 -0.0883  0.8576  0.6430
19085TIP3    H278671   4.857   5.229   5.106  2.3705 -1.8704  0.1510
19086TIP3   OH278672   4.146   4.299  15.113  0.0153 -0.0585 -0.4302
19086TIP3    H178673   4.241   4.294  15.120  0.0441 -3.7018 -2.2260
19086TIP3    H278674   4.129   4.349  15.033  0.3770  1.0634  0.1846
19087TIP3   OH278675   0.794   0.721   3.149  0.3104 -0.5620  0.1576
19087TIP3    H178676   0.739   0.664   3.202  1.3688 -0.7907  1.0168
19087TIP3    H278677   0.869   0.667   3.125  1.1043  0.3296  0.5990
19088TIP3   OH278678   0.170   4.851  16.852 -0.1761  0.0876  0.3173
19088TIP3    H178679   0.198   4.901  16.776 -0.3643 -0.4683 -0.1238
19088TIP3    H278680   0.246   4.850  16.910  0.2533 -0.2252 -0.2512
19089TIP3   OH278681   0.592   1.097   3.844  0.4429 -0.4001  0.5009
19089TIP3    H178682   0.647   1.106   3.766 -0.8079 -0.2840 -0.3805
19089TIP3    H278683   0.641   1.038   3.901  1.6367 -0.0264 -0.1315
19090TIP3   OH278684   2.042   1.728  12.728  0.5921 -0.1491 -1.0360
19090TIP3    H178685   2.123   1.678  12.717  0.2772 -0.8359 -0.3245
19090TIP3    H278686   2.020   1.716  12.821 -0.0620  0.4347 -1.1186
19091TIP3   OH278687   0.109   1.328   2.889 -0.6933 -0.3769  0.3593
19091TIP3    H178688   0.106   1.352   2.796 -0.9457  2.1192  0.9721
19091TIP3    H278689   0.017   1.313   2.912 -0.5576 -1.7766  0.0347
19092TIP3   OH278690   3.370   4.850   3.168 -0.0419 -0.0165  0.0323
19092TIP3    H178691   3.444   4.886   3.119 -0.5671  1.9960  0.6454
19092TIP3    H278692   3.294   4.866   3.112 -0.3936  0.5731  0.6687
19093TIP3   OH278693   3.945   4.748  13.996 -0.3721  0.2787 -0.0926
19093TIP3    H178694   3.898   4.807  14.053  1.3854  0.6256  1.0230
19093TIP3    H278695   3.926   4.661  14.030 -0.9006  0.3587 -0.1815
19094TIP3   OH278696   2.924   6.302   5.414  0.1812  0.5095  0.1227
19094TIP3    H178697   2.909   6.359   5.489 -0.2498 -0.1896  0.5746
19094TIP3    H278698   2.925   6.361   5.339 -0.8696  1.0445  0.5197
19095TIP3   OH278699   1.667   4.160   1.390 -0.4855  0.1815 -0.4174
19095TIP3    H178700   1.629   4.111   1.316  1.6390 -0.5225 -1.0827
19095TIP3    H278701   1.739   4.105   1.420 -0.1196  1.3884  0.9445
19096TIP3   OH278702   2.768   2.812   1.398  0.1583  0.7708  0.0600
19096TIP3    H178703   2.830   2.878   1.427 -0.2863  1.0437  0.4031
19096TIP3    H278704   2.760   2.752   1.472 -0.2837  0.9565  0.1634
19097TIP3   OH278705   3.793   3.475   2.754 -0.2963  0.0205 -0.9296
19097TIP3    H178706   3.831   3.560   2.734  0.2319 -0.2174 -0.9338
19097TIP3    H278707   3.863   3.427   2.798 -0.9508 -0.0084  0.1162
19098TIP3   OH278708   2.833   0.848  16.125  0.0122  0.3955 -0.6171
19098TIP3    H178709   2.922   0.869  16.098 -0.1653  0.7255 -0.9461
19098TIP3    H278710   2.778   0.911  16.078 -0.4359 -0.1313 -0.8082
19099TIP3   OH278711   4.897   0.544  16.593 -0.0721 -0.7627 -0.1061
19099TIP3    H178712   4.855   0.535  16.679  0.0083  2.6427  0.3616
19099TIP3    H278713   4.869   0.630  16.562  2.3440 -0.6661 -2.1485
19100TIP3   OH278714   1.127   6.192  13.149 -0.2090  0.3379 -0.6175
19100TIP3    H178715   1.110   6.282  13.176 -0.4779  0.3380 -0.7903
19100TIP3    H278716   1.071   6.178  13.073  0.4627  0.2927 -1.1094
19101TIP3   OH278717   0.792   2.851  12.971 -0.2000  0.0730 -0.1126
19101TIP3    H178718   0.736   2.927  12.988 -0.9988 -0.8157  1.3006
19101TIP3    H278719   0.784   2.837  12.876  0.3389  2.0340 -0.4792
19102TIP3   OH278720   5.768   2.394  14.841  0.3245 -0.8443 -0.2667
19102TIP3    H178721   5.862   2.376  14.833  0.3975 -0.5070 -0.1760
19102TIP3    H278722   5.761   2.448  14.919  0.1783  0.0355 -0.8773
19103TIP3   OH278723   1.555   1.731  16.222  0.3746 -0.1593  0.0875
19103TIP3    H178724   1.572   1.767  16.135 -1.7419  2.1379  0.5737
19103TIP3    H278725   1.499   1.655  16.206 -2.7024  2.1432 -0.3902
19104TIP3   OH278726   5.145   5.583  13.250 -0.2922  0.0936 -0.6040
19104TIP3    H178727   5.075   5.639  13.215 -0.2486 -0.4047 -1.4846
19104TIP3    H278728   5.111   5.554  13.335 -0.2322  1.6170 -0.0373
19105TIP3   OH278729   6.642   0.145   1.278  0.4945 -0.1633  0.7305
19105TIP3    H178730   6.681   0.179   1.197  2.3117 -1.2908  1.0897
19105TIP3    H278731   6.551   0.172   1.275  0.7217  0.4235 -1.3615
19106TIP3   OH278732   2.316   3.767  14.772 -0.1191  0.2324 -0.2185
19106TIP3    H178733   2.317   3.849  14.723 -0.9626  0.7742  0.6463
19106TIP3    H278734   2.235   3.723  14.744 -1.2363  1.0917  1.5152
19107TIP3   OH278735   2.675   4.699  11.288  0.5462  0.3130  0.3826
19107TIP3    H178736   2.641   4.757  11.220  1.0695  0.2417  0.0583
19107TIP3    H278737   2.604   4.693  11.352  0.7154  1.8288  0.7452
19108TIP3   OH278738   1.197   0.457  11.373  0.1509  0.4138 -0.4401
19108TIP3    H178739   1.114   0.493  11.341 -0.7907 -1.8856 -0.6368
19108TIP3    H278740   1.213   0.505  11.454 -0.0723  2.6498 -1.6738
19109TIP3   OH278741   0.685   0.786  15.435 -0.4812  0.2363  0.0659
19109TIP3    H178742   0.773   0.797  15.398  0.0797  0.7039  1.4959
19109TIP3    H278743   0.700   0.755  15.524 -1.8169 -1.0412 -0.1292
19110TIP3   OH278744   1.858   4.760   6.407  0.4190 -0.5555  0.1130
19110TIP3    H178745   1.906   4.813   6.471 -0.5739 -1.0287  1.2700
19110TIP3    H278746   1.922   4.743   6.337  0.5207  2.7945 -0.6695
19111TIP3   OH278747   1.240   2.339   4.545 -0.2748  0.4124 -0.2115
19111TIP3    H178748   1.193   2.408   4.591  0.9377  0.2788  1.2840
19111TIP3    H278749   1.328   2.374   4.534 -0.3652  0.1459 -1.8040
19112TIP3   OH278750   5.674   5.851   5.819  0.6788 -0.0889 -0.2784
19112TIP3    H178751   5.605   5.912   5.847 -0.3464 -0.8243 -1.1387
19112TIP3    H278752   5.734   5.847   5.894 -0.5358  0.1089  0.7375
19113TIP3   OH278753   4.877   6.424   0.019  0.5753  0.4004  0.1991
19113TIP3    H178754   4.922   6.508   0.025  1.7174 -0.1524 -0.5476
19113TIP3    H278755   4.834   6.413   0.104  0.9635  1.4287  0.5266
19114TIP3   OH278756   1.186   2.064  14.487 -0.5539 -0.2541  0.0427
19114TIP3    H178757   1.164   2.142  14.437 -1.8934 -0.0069  0.9965
19114TIP3    H278758   1.201   1.996  14.421 -1.5391  0.2596 -0.7121
19115TIP3   OH278759   1.196   6.196  16.800 -0.1842 -0.3131  0.3026
19115TIP3    H178760   1.174   6.280  16.839 -1.1065  0.0263 -0.8894
19115TIP3    H278761   1.115   6.170  16.754  0.2257 -1.6388  0.3211
19116TIP3   OH278762   1.857   5.742  11.568  0.1937  0.3549 -0.0225
19116TIP3    H178763   1.871   5.831  11.602  1.1295 -0.4734  1.8627
19116TIP3    H278764   1.877   5.749  11.475 -1.7501  2.5577 -0.3321
19117TIP3   OH278765   3.655   0.315   2.705  0.1622  0.3872 -0.1973
19117TIP3    H178766   3.720   0.348   2.644  0.9506  0.0608  0.4589
19117TIP3    H278767   3.706   0.282   2.779 -0.8317  2.2259  1.3551
19118TIP3   OH278768   1.708   4.926  14.096  0.8891 -0.1324  0.2212
19118TIP3    H178769   1.799   4.931  14.124  0.7965  0.5980  0.4022
19118TIP3    H278770   1.657   4.959  14.170  0.6041  1.2406 -0.5605
19119TIP3   OH278771   5.096   6.371   1.199  0.0046 -0.2000  0.2502
19119TIP3    H178772   5.095   6.398   1.291 -1.0397  0.4346  0.0527
19119TIP3    H278773   5.092   6.275   1.202  2.1761 -0.3099  0.9049
19120TIP3   OH278774   6.257   6.566   0.884  0.4340  0.0533  0.5103
19120TIP3    H178775   6.308   6.614   0.950 -1.0573  0.8452  1.1086
19120TIP3    H278776   6.223   6.635   0.826 -0.3001 -0.4258  0.3670
19121TIP3   OH278777   2.229   3.865   1.378 -0.0709  0.3937  0.3596
19121TIP3    H178778   2.285   3.942   1.363 -0.0201  0.5301  1.2406
19121TIP3    H278779   2.285   3.790   1.356  0.3388  0.5489  0.8678
19122TIP3   OH278780   3.652   3.563  13.237 -0.3839 -0.0256  0.5253
19122TIP3    H178781   3.626   3.474  13.260  1.5500 -0.0092  2.9978
19122TIP3    H278782   3.726   3.552  13.178  0.5356 -0.0733  1.6758
19123TIP3   OH278783   0.128   5.943  12.728 -0.1890 -0.0673 -0.4251
19123TIP3    H178784   0.161   5.928  12.817 -0.6069  1.8588  0.0925
19123TIP3    H278785   0.151   5.864  12.680  1.5504 -0.4452  0.9651
19124TIP3   OH278786   3.063   5.623  14.408  0.5033  0.1532 -0.0602
19124TIP3    H178787   3.110   5.571  14.473  0.9030 -1.1437 -1.3409
19124TIP3    H278788   2.971   5.603  14.423  0.3928  2.0233  1.8925
19125TIP3   OH278789   5.511   6.465   1.400  0.1024  0.3428  0.2304
19125TIP3    H178790   5.455   6.496   1.470 -1.2593  1.5201 -1.3383
19125TIP3    H278791   5.478   6.509   1.321  3.2927  1.1840 -0.7228
19126TIP3   OH278792   2.863   0.883   2.505 -0.3983 -0.8895  0.0985
19126TIP3    H178793   2.912   0.867   2.424  3.0690 -1.1684  2.1507
19126TIP3    H278794   2.821   0.968   2.491 -0.7167 -1.4117 -2.3694
19127TIP3   OH278795   2.424   2.844   3.023 -0.1895  0.1273 -0.4006
19127TIP3    H178796   2.502   2.790   3.014  1.1845  1.9196  0.5696
19127TIP3    H278797   2.383   2.841   2.936  0.7587 -1.0914 -0.8185
19128TIP3   OH278798   0.227   6.730  11.112  0.1609  0.2788  0.6711
19128TIP3    H178799   0.217   6.693  11.025 -0.2120  1.2193  0.3019
19128TIP3    H278800   0.290   6.802  11.100 -0.2165  0.6833  1.0822
19129TIP3   OH278801   2.989   4.560   1.503 -0.5058 -0.9700 -0.1168
19129TIP3    H178802   3.008   4.653   1.487 -2.0490 -0.6875 -0.3808
19129TIP3    H278803   3.010   4.517   1.420  0.6981 -0.9334  0.1672
19130TIP3   OH278804   0.166   4.304  15.635 -0.5284 -0.2033  1.0423
19130TIP3    H178805   0.111   4.357  15.692 -0.7326  0.4054  0.2960
19130TIP3    H278806   0.105   4.267  15.571 -0.3155 -0.9483  1.2631
19131TIP3   OH278807   6.259   4.121  16.336 -0.3049 -0.2768 -0.2920
19131TIP3    H178808   6.228   4.108  16.247 -0.8869 -0.5988 -0.0517
19131TIP3    H278809   6.193   4.077  16.390  1.4837 -2.5092  0.1282
19132TIP3   OH278810   5.934   5.596   2.592 -0.5851  0.1989  0.2384
19132TIP3    H178811   5.849   5.591   2.636 -1.4102 -1.0816 -1.4305
19132TIP3    H278812   5.996   5.618   2.661 -2.0562 -0.3433  1.7632
19133TIP3   OH278813   5.002   4.179   2.733  0.9602  0.3819  0.5157
19133TIP3    H178814   5.028   4.222   2.652 -0.2988  0.5354  0.1861
19133TIP3    H278815   5.083   4.176   2.785  1.7022  0.5629 -0.6010
19134TIP3   OH278816   2.540   3.488  11.979  0.4920 -0.2133 -0.2375
19134TIP3    H178817   2.514   3.512  11.890  0.4636 -0.4180 -0.2846
19134TIP3    H278818   2.580   3.402  11.970 -0.0679 -0.5060  0.0350
19135TIP3   OH278819   1.318   2.526   4.259 -0.1192 -0.4700  0.3142
19135TIP3    H178820   1.242   2.568   4.299  0.8201  1.6739 -0.0924
19135TIP3    H278821   1.281   2.477   4.185 -1.1753  0.1139  0.4426
19136TIP3   OH278822   3.069   5.105  11.848 -1.1829  0.4114 -0.0417
19136TIP3    H178823   3.093   5.084  11.758 -0.2425  2.8257 -0.4122
19136TIP3    H278824   3.098   5.196  11.859  1.5080 -0.7926  3.6445
19137TIP3   OH278825   6.311   0.011   2.276  0.3364 -0.2972  0.2035
19137TIP3    H178826   6.217   0.018   2.264  0.5603  2.5932 -0.2005
19137TIP3    H278827   6.343  -0.036   2.199 -0.6300 -0.1057 -0.3141
19138TIP3   OH278828   6.782   2.772   6.095 -0.1089 -0.0819 -0.1285
19138TIP3    H178829   6.857   2.741   6.146  1.6575 -1.0676 -3.1722
19138TIP3    H278830   6.715   2.704   6.107 -0.1109  0.2446  1.7160
19139TIP3   OH278831   4.162   2.916   3.133  0.8258  0.6065 -0.5340
19139TIP3    H178832   4.111   2.925   3.052  1.7118  2.8441 -0.8725
19139TIP3    H278833   4.097   2.892   3.200  0.0207 -0.8307 -1.8064
19140TIP3   OH278834   6.633   0.980  11.531  0.0764  0.2081 -0.4040
19140TIP3    H178835   6.644   0.895  11.489  1.3320  0.2067 -0.0938
19140TIP3    H278836   6.719   0.999  11.569 -0.4633  1.1640  0.3640
19141TIP3   OH278837   0.805   4.020   2.981  0.1841  0.0297  0.5076
19141TIP3    H178838   0.805   3.924   2.980  0.1358  0.0226 -3.0584
19141TIP3    H278839   0.715   4.044   2.999  0.0540 -0.5945  0.7098
19142TIP3   OH278840   4.668   1.847  15.288  0.3415 -0.1033  0.8582
19142TIP3    H178841   4.648   1.845  15.382  2.2638 -1.7585  1.2684
19142TIP3    H278842   4.726   1.772  15.274  0.2024  0.2079 -1.6363
19143TIP3   OH278843   1.475   6.643   1.052  0.2028 -0.2732  0.1518
19143TIP3    H178844   1.422   6.563   1.053 -0.7521  0.3437  0.6136
19143TIP3    H278845   1.454   6.685   0.968 -0.7363  0.4093  0.7133
19144TIP3   OH278846   1.782   5.658  13.546 -0.7037  0.3565  0.0046
19144TIP3    H178847   1.848   5.652  13.615 -3.1932 -0.7374  2.3777
19144TIP3    H278848   1.747   5.747  13.553 -1.8044 -0.1387  1.0091
19145TIP3   OH278849   0.917   4.674  12.399 -0.2123  0.4017  0.2624
19145TIP3    H178850   0.830   4.656  12.364 -0.6951  0.5182  1.4060
19145TIP3    H278851   0.923   4.769  12.402 -0.1974  0.3924  0.5590
19146TIP3   OH278852   3.449   2.926  14.169 -0.6937  0.5146  0.1389
19146TIP3    H178853   3.418   3.015  14.153  0.1947  0.9282  0.6900
19146TIP3    H278854   3.470   2.892  14.081 -0.7560  0.9556 -0.0497
19147TIP3   OH278855   3.893   5.153  11.119 -0.5594 -0.0555 -0.2350
19147TIP3    H178856   3.854   5.108  11.194 -2.0106 -0.9971 -1.5243
19147TIP3    H278857   3.890   5.089  11.048  2.4932  0.1753 -0.6452
19148TIP3   OH278858   6.694   0.294   5.174  0.6035 -0.0986  0.2423
19148TIP3    H178859   6.633   0.341   5.231  2.1677  1.6805  0.4607
19148TIP3    H278860   6.701   0.207   5.214  0.5065  0.6319  1.8908
19149TIP3   OH278861   4.966   4.246  13.691  0.0318 -0.0727  0.1117
19149TIP3    H178862   4.926   4.199  13.617  0.2079  2.4170 -1.6481
19149TIP3    H278863   5.035   4.186  13.723 -0.5230 -1.4974 -1.2678
19150TIP3   OH278864   2.050   6.543  11.581  1.1065 -0.0041  0.4561
19150TIP3    H178865   2.012   6.547  11.493  0.6967  0.3444  0.6461
19150TIP3    H278866   2.055   6.635  11.609  2.4903 -0.0165  0.2631
19151TIP3   OH278867   0.858   0.994  16.030  0.0882  0.5768 -0.0354
19151TIP3    H178868   0.850   1.053  15.955  0.1539 -0.7603 -1.1232
19151TIP3    H278869   0.821   0.911  15.999 -0.3647  0.1512  1.5874
19152TIP3   OH278870   1.458   1.793  10.437  0.1213  0.2798 -0.2641
19152TIP3    H178871   1.422   1.850  10.505  0.0632  1.6967 -1.4424
19152TIP3    H278872   1.426   1.831  10.355  0.8735 -0.9021 -1.1192
19153TIP3   OH278873   3.240   0.393  13.515  0.5259 -0.8760  0.6123
19153TIP3    H178874   3.319   0.420  13.468  0.8284  0.9464  2.0835
19153TIP3    H278875   3.178   0.465  13.502  0.4155 -0.5990  2.4392
19154TIP3   OH278876   5.740   5.649  11.704 -0.1221 -0.5765 -0.1999
19154TIP3    H178877   5.698   5.617  11.624 -1.9051  0.8169  0.1577
19154TIP3    H278878   5.826   5.606  11.705 -0.3049 -1.0431 -2.5611
19155TIP3   OH278879   5.847   5.720   4.580  0.3767  0.5151  1.4182
19155TIP3    H178880   5.897   5.718   4.498  0.0866  1.5796  1.2057
19155TIP3    H278881   5.780   5.788   4.565  0.1914  0.5622  2.4564
19156TIP3   OH278882   3.862   2.168  16.935  0.3401 -0.1119  0.2722
19156TIP3    H178883   3.899   2.233  16.995  0.0902 -0.2913  0.6257
19156TIP3    H278884   3.891   2.196  16.848  1.7650 -0.5631  0.5963
19157TIP3   OH278885   4.126   4.838   2.322  0.0334  0.1315 -0.8726
19157TIP3    H178886   4.113   4.886   2.404  0.8158 -1.6504  0.3259
19157TIP3    H278887   4.213   4.864   2.292  2.6283 -4.1834  2.3910
19158TIP3   OH278888   5.869   5.220  12.729 -0.3435  0.4340 -0.8726
19158TIP3    H178889   5.958   5.233  12.762  0.5949 -0.1280 -3.0410
19158TIP3    H278890   5.855   5.125  12.737 -1.1585  0.6658  0.4511
19159TIP3   OH278891   2.425   5.927  16.185  0.3109 -0.2649  0.5834
19159TIP3    H178892   2.395   6.015  16.163  1.1004 -0.2696 -0.5118
19159TIP3    H278893   2.445   5.886  16.101  0.8999 -1.1547  1.1478
19160TIP3   OH278894   5.118   1.501   4.000  0.0811  0.5235  0.0822
19160TIP3    H178895   5.106   1.486   4.094 -0.7077  0.2942 -0.0490
19160TIP3    H278896   5.051   1.565   3.978  1.1527  1.6089 -0.0609
19161TIP3   OH278897   0.535   1.569  16.864  0.0805  0.4218 -0.0033
19161TIP3    H178898   0.453   1.523  16.885  0.3977 -0.6118 -0.9907
19161TIP3    H278899   0.538   1.641  16.927 -0.6816 -0.6024  1.2421
19162TIP3   OH278900   4.369   2.591   2.771 -0.2114 -0.4387  0.0194
19162TIP3    H178901   4.293   2.591   2.713 -0.2291 -1.6747  0.0357
19162TIP3    H278902   4.338   2.632   2.852 -0.8429 -0.8700  0.0004
19163TIP3   OH278903   4.952   5.356   1.345 -0.2669 -0.7271  0.2458
19163TIP3    H178904   4.979   5.298   1.275 -0.6513 -1.9350  1.0757
19163TIP3    H278905   4.934   5.440   1.302  1.3964 -0.8973 -0.7923
19164TIP3   OH278906   1.407   6.079   4.926  0.0388  0.7016  0.4350
19164TIP3    H178907   1.407   6.031   4.843  1.0843  1.2606  0.1056
19164TIP3    H278908   1.389   6.013   4.992  0.1756  0.0807 -0.1427
19165TIP3   OH278909   0.067   0.888  15.450  0.8616 -0.2486 -0.0881
19165TIP3    H178910   0.101   0.870  15.363  2.6231  0.4601  0.4388
19165TIP3    H278911  -0.028   0.887  15.439  1.0616 -0.0977 -2.0190
19166TIP3   OH278912   4.148   5.691  13.432 -0.0505 -0.2714  0.2574
19166TIP3    H178913   4.091   5.638  13.376  1.7529 -0.2355 -1.6642
19166TIP3    H278914   4.131   5.781  13.405  0.8200 -0.2527 -0.2434
19167TIP3   OH278915   1.286   3.656   5.178  0.0895 -0.2913  0.3980
19167TIP3    H178916   1.368   3.606   5.173 -0.9528 -1.8266 -2.3351
19167TIP3    H278917   1.300   3.729   5.118 -0.8280 -1.0427 -0.7507
19168TIP3   OH278918   0.506   0.068   1.527 -0.0524 -1.2336  0.5993
19168TIP3    H178919   0.563   0.060   1.603  0.0028 -1.8303  0.4917
19168TIP3    H278920   0.537   0.147   1.482  1.9130 -2.6058 -0.4954
19169TIP3   OH278921   2.220   4.051   4.431 -0.1894 -0.6267  0.1690
19169TIP3    H178922   2.261   4.006   4.357 -0.2315 -0.9796  0.3614
19169TIP3    H278923   2.128   4.058   4.406  0.0034  0.2475 -0.3052
19170TIP3   OH278924   3.665   4.344   0.944  0.3272 -0.4172  0.1839
19170TIP3    H178925   3.749   4.380   0.917  1.0954 -1.1371  1.5485
19170TIP3    H278926   3.639   4.287   0.872  1.2093 -0.5236 -0.0544
19171TIP3   OH278927   5.893   3.203  11.468  0.6613  0.2823  0.1525
19171TIP3    H178928   5.825   3.139  11.445  0.1477  1.2040 -0.9553
19171TIP3    H278929   5.918   3.242  11.384  2.2911  0.2247  0.6041
19172TIP3   OH278930   4.428   5.812  16.248  0.4449  0.3086 -0.2720
19172TIP3    H178931   4.338   5.809  16.216  1.7533 -1.3629 -4.0207
19172TIP3    H278932   4.477   5.856  16.179  2.6823  0.3028  1.2695
19173TIP3   OH278933   5.135   2.152   2.545  0.0874  0.1454  0.4606
19173TIP3    H178934   5.206   2.114   2.597  1.3211  2.5051  0.5721
19173TIP3    H278935   5.178   2.220   2.492 -1.7127  0.0871 -1.1548
19174TIP3   OH278936   1.218   1.903   2.429  0.2433 -0.3719 -0.2540
19174TIP3    H178937   1.295   1.930   2.378  0.0603 -0.8327 -0.7773
19174TIP3    H278938   1.150   1.966   2.404 -0.2775 -1.4960 -1.7242
19175TIP3   OH278939   6.457   5.629  11.807  0.0639 -0.7837  0.9629
19175TIP3    H178940   6.410   5.616  11.725  0.2448  1.1217  0.5397
19175TIP3    H278941   6.389   5.650  11.871  0.3660  3.7295 -0.0175
19176TIP3   OH278942   2.762   4.653  15.985  0.1250 -0.4301  0.9315
19176TIP3    H178943   2.765   4.748  15.975 -0.6797 -0.6374 -1.6679
19176TIP3    H278944   2.832   4.621  15.927 -2.2380 -1.5643 -1.4106
19177TIP3   OH278945   0.114   6.137   6.282 -0.0556  0.2466 -0.0942
19177TIP3    H178946   0.185   6.088   6.323 -0.6473 -0.0062  0.6404
19177TIP3    H278947   0.149   6.226   6.272  0.5934 -0.0273 -0.3554
19178TIP3   OH278948   0.527   3.741  12.557 -0.4349 -0.2328 -0.2777
19178TIP3    H178949   0.613   3.733  12.599 -0.3882 -0.1936 -0.3657
19178TIP3    H278950   0.531   3.824  12.510 -1.5955  1.2797  2.2047
19179TIP3   OH278951   3.565   3.281  11.808  0.1715 -0.0158 -0.3193
19179TIP3    H178952   3.568   3.373  11.782  0.9156 -0.0355 -0.3128
19179TIP3    H278953   3.501   3.279  11.879  1.0257  0.7149  0.5003
19180TIP3   OH278954   2.901   5.975  11.234  0.0055  0.0421  0.1044
19180TIP3    H178955   2.893   5.886  11.199  1.4053 -0.2364  0.4705
19180TIP3    H278956   2.995   5.992  11.236 -0.2438  1.5761 -0.0530
19181TIP3   OH278957   5.829   3.398  13.986  0.0976  0.3685  1.0509
19181TIP3    H178958   5.766   3.450  14.034 -1.0863  0.8029 -0.9153
19181TIP3    H278959   5.835   3.441  13.900 -0.8538 -2.6443 -0.5867
19182TIP3   OH278960   3.892   3.954   1.200 -0.0942  0.1214  0.1737
19182TIP3    H178961   3.919   3.966   1.109  0.9661 -1.1002  0.3196
19182TIP3    H278962   3.900   3.860   1.216 -0.8341  0.2496  1.3494
19183TIP3   OH278963   0.363   3.577   4.606  0.1933 -0.2629 -0.4839
19183TIP3    H178964   0.331   3.603   4.692 -0.3769  0.8125 -1.0184
19183TIP3    H278965   0.284   3.554   4.557  0.3553  1.0259 -1.3542
19184TIP3   OH278966   0.598   4.794  11.811  0.5147  0.3592 -0.0373
19184TIP3    H178967   0.667   4.783  11.745  0.6951  1.5596 -0.0461
19184TIP3    H278968   0.639   4.766  11.893  0.4290 -0.7091 -0.3507
19185TIP3   OH278969   2.459   0.497   4.178 -0.0893  0.0210  0.0891
19185TIP3    H178970   2.525   0.430   4.197 -0.1732 -0.0792  0.0246
19185TIP3    H278971   2.379   0.448   4.163 -0.4728  0.2055  1.4097
19186TIP3   OH278972   5.592   4.907  14.014  0.3172 -0.5995 -0.0826
19186TIP3    H178973   5.663   4.961  14.049  0.2462 -0.4190 -0.2124
19186TIP3    H278974   5.635   4.848  13.952  0.3108 -0.2794 -0.3931
19187TIP3   OH278975   4.904   3.755  10.352  0.1256  0.3261  0.3220
19187TIP3    H178976   4.859   3.692  10.297  0.1858 -0.3070  0.9758
19187TIP3    H278977   4.976   3.787  10.298 -0.8904  1.0903 -0.6034
19188TIP3   OH278978   1.839   3.210  14.863  0.1384  0.2234 -0.0637
19188TIP3    H178979   1.745   3.206  14.877 -0.0630  0.4724 -1.3511
19188TIP3    H278980   1.875   3.230  14.950 -0.7107 -3.3009  1.1629
19189TIP3   OH278981   3.960   2.983   1.807  0.2016  0.4155  0.1448
19189TIP3    H178982   4.026   2.916   1.823 -0.3952 -0.5458 -1.2706
19189TIP3    H278983   3.972   3.007   1.715 -0.8652  0.8350  0.1100
19190TIP3   OH278984   5.201   6.090   0.487  0.6029 -0.1755  0.1413
19190TIP3    H178985   5.124   6.104   0.541 -0.3464 -1.9940 -0.7068
19190TIP3    H278986   5.272   6.134   0.534 -0.7795  0.8101  1.3377
19191TIP3   OH278987   4.871   6.385  11.534 -0.5284  0.1368 -0.1414
19191TIP3    H178988   4.871   6.405  11.441  1.6195 -2.7220 -0.8250
19191TIP3    H278989   4.806   6.316  11.545  0.2989 -0.6016  0.2058
19192TIP3   OH278990   1.965   1.927   2.648  0.0814  0.1110  0.2388
19192TIP3    H178991   1.911   1.969   2.715 -1.2180 -0.1367 -0.6319
19192TIP3    H278992   1.951   1.833   2.662  0.5060  0.0425  0.1910
19193TIP3   OH278993   0.509   5.001   3.002 -0.4214  0.5931  0.1976
19193TIP3    H178994   0.537   4.987   2.911  0.0539  0.3400  0.3829
19193TIP3    H278995   0.496   4.912   3.036 -0.9842  0.6964  0.2591
19194TIP3   OH278996   3.001   5.359   6.008  0.9066 -0.0685  0.4298
19194TIP3    H178997   3.034   5.275   5.977  0.2950  0.0658 -0.6333
19194TIP3    H278998   2.992   5.412   5.928 -0.0595  0.5218  0.9179
19195TIP3   OH278999   0.818   4.766   4.948 -0.0166  0.5102 -0.1459
19195TIP3    H179000   0.785   4.756   5.037  2.2926  3.1210  1.0505
19195TIP3    H279001   0.907   4.731   4.950 -0.0176  0.3800 -1.4961
19196TIP3   OH279002   0.498   2.897   4.368  0.0612 -0.1376  0.2449
19196TIP3    H179003   0.446   2.975   4.385 -1.7969 -1.3768  0.4517
19196TIP3    H279004   0.558   2.892   4.443  1.2758  1.9250 -0.5697
19197TIP3   OH279005   3.282   1.372   5.678  0.0569 -0.2561 -0.3232
19197TIP3    H179006   3.377   1.366   5.692  0.2977 -0.7955 -2.0460
19197TIP3    H279007   3.258   1.457   5.713  0.7149 -1.2055  2.6001
19198TIP3   OH279008   4.868   6.577   3.660  0.0403  0.2724 -0.0200
19198TIP3    H179009   4.869   6.622   3.575  1.1272  0.0536 -0.1332
19198TIP3    H279010   4.934   6.508   3.651 -0.8267 -0.6513  0.5308
19199TIP3   OH279011   0.447   0.651  13.190  0.2108 -0.3825 -0.0652
19199TIP3    H179012   0.469   0.743  13.202  0.3898 -0.1816 -1.8095
19199TIP3    H279013   0.519   0.616  13.138 -0.9895 -0.9515 -1.3641
19200TIP3   OH279014   0.125   0.106  16.851 -0.5565  0.1721 -0.0987
19200TIP3    H179015   0.205   0.053  16.850 -2.1597 -2.4242  2.1134
19200TIP3    H279016   0.136   0.166  16.924 -0.1044  0.6817 -0.5849
19201TIP3   OH279017   0.116   6.459   5.652  0.2742 -0.2185 -0.5039
19201TIP3    H179018   0.107   6.365   5.633  0.6321 -0.4554  0.4927
19201TIP3    H279019   0.192   6.465   5.709  0.6065  0.7511 -1.0391
19202TIP3   OH279020   6.604   4.743   4.840  0.5293 -0.0599  0.1087
19202TIP3    H179021   6.647   4.825   4.816  1.9631 -0.5234  1.0625
19202TIP3    H279022   6.628   4.682   4.770  1.9896 -0.4970  0.9716
19203TIP3   OH279023   0.106   0.302  17.033  0.2821  0.9454 -0.1487
19203TIP3    H179024   0.088   0.286  17.126  0.2457  0.8550 -0.1736
19203TIP3    H279025   0.181   0.362  17.034  0.0084  1.2841 -0.0549
19204TIP3   OH279026   0.826   2.987   1.223 -0.1514  0.3504 -0.6706
19204TIP3    H179027   0.916   2.960   1.208  0.2195  1.1467  0.0500
19204TIP3    H279028   0.810   2.968   1.315 -0.9164 -0.3191 -0.9323
19205TIP3   OH279029   4.584   6.421   2.931  0.1014  0.1221 -0.2304
19205TIP3    H179030   4.545   6.499   2.969  0.9421 -0.6669  2.3500
19205TIP3    H279031   4.518   6.353   2.943  0.4941 -0.1988  0.1161
19206TIP3   OH279032   3.306   4.130   5.366 -0.1981  0.0676  0.1096
19206TIP3    H179033   3.391   4.140   5.410  0.2910 -1.1557 -0.5335
19206TIP3    H279034   3.327   4.083   5.285 -1.2505  1.2765 -0.8745
19207TIP3   OH279035   5.648   3.028  12.593  0.0870 -0.2880  0.5320
19207TIP3    H179036   5.586   3.064  12.656  0.9029  0.1770  1.0833
19207TIP3    H279037   5.621   2.937  12.580  0.7937 -0.8184  2.6606
19208TIP3   OH279038   0.659   1.907   0.483  0.5122 -0.6410 -0.0993
19208TIP3    H179039   0.742   1.872   0.451  0.8695  1.2833 -1.3995
19208TIP3    H279040   0.654   1.994   0.444 -1.4094 -0.1487  1.1938
19209TIP3   OH279041   4.942   3.313  11.563  0.4772  0.2623  0.0008
19209TIP3    H179042   4.945   3.219  11.545  0.1388  0.3118 -0.3167
19209TIP3    H279043   5.018   3.348  11.516  0.5126  0.1679 -0.0128
19210TIP3   OH279044   5.477   2.411   6.068 -0.5175 -0.3357  0.2994
19210TIP3    H179045   5.491   2.374   6.155 -1.5635 -0.8844  0.2418
19210TIP3    H279046   5.415   2.352   6.026  0.4882 -0.4508 -1.0775
19211TIP3   OH279047   2.909   1.818  11.554  0.3103 -0.0868  0.4422
19211TIP3    H179048   2.920   1.723  11.551  0.2999 -0.0715 -0.0080
19211TIP3    H279049   2.855   1.839  11.479 -1.2710  0.0673  1.6006
19212TIP3   OH279050   4.174   1.043  12.652 -0.4324  0.7809 -0.0198
19212TIP3    H179051   4.112   0.973  12.633  0.6933 -0.2527  0.0740
19212TIP3    H279052   4.166   1.057  12.747  0.0753  0.0704  0.1303
19213TIP3   OH279053   6.593   6.389   2.029 -0.2488  0.0683  0.2773
19213TIP3    H179054   6.612   6.296   2.014 -0.1212  0.0574  0.4940
19213TIP3    H279055   6.594   6.428   1.942  1.4539  0.1921  0.3381
19214TIP3   OH279056   4.223   5.690   2.633 -0.2442 -0.1676 -0.1664
19214TIP3    H179057   4.316   5.671   2.620  0.2442  2.6609 -1.2531
19214TIP3    H279058   4.220   5.735   2.718 -0.5431  0.0685 -0.3013
19215TIP3   OH279059   5.685   6.286   3.728  0.0109 -0.1556  0.1497
19215TIP3    H179060   5.642   6.326   3.652 -0.6599 -0.5186  0.3348
19215TIP3    H279061   5.614   6.244   3.776  0.6090 -0.9304  0.3530
19216TIP3   OH279062   0.630   3.453  17.222  0.3740 -0.3929  0.5966
19216TIP3    H179063   0.586   3.369  17.222  1.6407 -1.0873  2.0697
19216TIP3    H279064   0.720   3.433  17.197  0.9460  0.3540  1.9879
19217TIP3   OH279065   2.310   4.152   4.061  0.0632  0.2412 -0.5119
19217TIP3    H179066   2.381   4.208   4.028  0.0050  0.5003 -0.2015
19217TIP3    H279067   2.230   4.199   4.039  0.0065  0.1891 -0.4151
19218TIP3   OH279068   4.962   2.034   2.129  0.3613  0.4184  0.5906
19218TIP3    H179069   4.905   2.071   2.062 -0.8633  0.2101  1.4977
19218TIP3    H279070   5.004   1.960   2.085  0.9277  1.3621 -0.4766
19219TIP3   OH279071   0.949   6.492  16.709 -0.3820  0.1498 -0.3313
19219TIP3    H179072   1.015   6.459  16.770  0.7757  0.8736 -1.1596
19219TIP3    H279073   0.890   6.545  16.762  0.9968  1.3168  0.0583
19220TIP3   OH279074   4.364   1.273  16.309  0.6553 -0.0751  0.4860
19220TIP3    H179075   4.324   1.336  16.250  1.2106 -0.6729 -0.5400
19220TIP3    H279076   4.447   1.313  16.334  1.3977 -0.7485 -0.8319
19221TIP3   OH279077   3.587   4.762   5.269  0.7027 -0.2367  1.2327
19221TIP3    H179078   3.644   4.766   5.346  0.2126  1.9756  1.5235
19221TIP3    H279079   3.622   4.830   5.210  1.0200 -1.8335 -0.4914
19222TIP3   OH279080   6.535   0.707  12.381  0.0369 -0.5422 -0.4280
19222TIP3    H179081   6.515   0.700  12.474 -2.2115  0.4798 -0.8014
19222TIP3    H279082   6.479   0.778  12.350  1.8537  0.1410 -2.2693
19223TIP3   OH279083   4.768   1.151   2.375 -0.1949 -0.2075 -0.3066
19223TIP3    H179084   4.700   1.112   2.320 -0.2405 -0.5040 -0.0442
19223TIP3    H279085   4.774   1.242   2.346 -0.1443 -0.3892 -0.8728
19224TIP3   OH279086   0.530   1.617   0.033 -0.6928 -0.0446 -0.0579
19224TIP3    H179087   0.504   1.526   0.046 -1.5516  0.2917  0.5881
19224TIP3    H279088   0.542   1.625  -0.062 -0.7128 -0.7958 -0.1287
19225TIP3   OH279089   6.087   0.580  13.401 -0.1042  0.2494  0.1027
19225TIP3    H179090   6.089   0.583  13.305  1.5886  0.7075  0.1492
19225TIP3    H279091   6.140   0.503  13.423 -1.3012 -0.4327  0.6565
19226TIP3   OH279092   0.539   1.658   0.467  0.0367 -0.1012  0.1537
19226TIP3    H179093   0.569   1.749   0.477  0.6553 -0.3403  0.4603
19226TIP3    H279094   0.487   1.642   0.546  2.0267 -0.8413  1.3315
19227TIP3   OH279095   4.674   3.922  17.068 -0.2300 -0.0858 -0.6095
19227TIP3    H179096   4.752   3.866  17.061 -0.5198 -0.4594 -0.8425
19227TIP3    H279097   4.649   3.917  17.160  0.7197  0.9782 -0.2846
19228TIP3   OH279098   6.185   4.878  16.427  0.2073  0.1619 -0.0383
19228TIP3    H179099   6.182   4.888  16.523  2.2803 -0.6865  0.1311
19228TIP3    H279100   6.279   4.878  16.406 -0.1828 -1.5800 -1.8710
19229TIP3   OH279101   0.981   6.351   5.440  0.5656  0.2853  0.2623
19229TIP3    H179102   1.072   6.322   5.442  0.1257 -1.1284  0.2343
19229TIP3    H279103   0.946   6.313   5.359  0.1993  1.6211 -0.2279
19230TIP3   OH279104   0.039   4.492  15.782 -0.2215 -0.1878  0.1263
19230TIP3    H179105   0.025   4.586  15.791  0.1306 -0.1185 -0.0616
19230TIP3    H279106  -0.017   4.453  15.849 -1.4299  0.0952 -0.6851
19231TIP3   OH279107   1.392   2.146  15.402 -0.5400  0.1532  0.4332
19231TIP3    H179108   1.407   2.222  15.459 -1.6436 -0.2570  1.2938
19231TIP3    H279109   1.479   2.116  15.378 -0.0881  1.3784  0.5191
19232TIP3   OH279110   2.674   0.485   4.834 -0.3080 -0.0051  0.7850
19232TIP3    H179111   2.680   0.579   4.850  0.9029 -0.0807  0.8111
19232TIP3    H279112   2.591   0.459   4.875 -0.8485  1.1155  0.4266
19233TIP3   OH279113   1.689   0.343   5.964 -0.2364  0.0521  0.6066
19233TIP3    H179114   1.676   0.248   5.964  0.3296 -0.0291  1.3495
19233TIP3    H279115   1.629   0.375   6.031  1.4351 -0.0548  2.1886
19234TIP3   OH279116   5.355   0.582  14.813  0.1926  0.2526 -0.3882
19234TIP3    H179117   5.340   0.586  14.719  0.4427  1.9963 -0.3725
19234TIP3    H279118   5.279   0.535  14.848  0.2921 -0.7428 -1.4892
19235TIP3   OH279119   3.618   5.328  13.339  0.0114  0.5404  0.2516
19235TIP3    H179120   3.524   5.338  13.321 -0.5201  0.2240  2.6622
19235TIP3    H279121   3.644   5.251  13.290 -1.4135 -0.4092  0.9485
19236TIP3   OH279122   1.761   2.160   4.915 -0.5524  0.1352 -0.4305
19236TIP3    H179123   1.716   2.218   4.853  0.3864  0.5721 -0.7139
19236TIP3    H279124   1.832   2.121   4.864 -1.6324 -1.8735 -0.4501
19237TIP3   OH279125   3.451   4.171   3.414  0.2744 -0.2359  0.5556
19237TIP3    H179126   3.406   4.154   3.497 -2.4141 -1.1084 -1.0031
19237TIP3    H279127   3.380   4.188   3.351  2.1844 -0.7040 -1.8203
19238TIP3   OH279128   1.362   2.483   1.501 -0.0193  0.7826  0.2030
19238TIP3    H179129   1.315   2.402   1.480 -0.0419  0.3883  1.7542
19238TIP3    H279130   1.447   2.454   1.534 -1.4947  1.1743  4.6749
19239TIP3   OH279131   0.501   3.479   1.454 -0.5895  0.0015 -0.1452
19239TIP3    H179132   0.492   3.400   1.507 -2.3118 -0.1914 -0.7168
19239TIP3    H279133   0.523   3.446   1.367 -1.6724  0.1316 -0.4697
19240TIP3   OH279134   0.478   2.299  14.096  0.2324  0.0172 -0.2036
19240TIP3    H179135   0.491   2.373  14.156  1.3438 -0.8820  0.7105
19240TIP3    H279136   0.534   2.318  14.021 -0.0213  0.4504 -0.2787
19241TIP3   OH279137   3.824   5.656   3.883 -0.7022 -0.4863 -0.0562
19241TIP3    H179138   3.809   5.695   3.797 -0.9925  0.8859  0.5961
19241TIP3    H279139   3.919   5.647   3.889 -0.7222 -1.1836 -0.7699
19242TIP3   OH279140   3.935   0.595  13.083 -0.1234  0.5757 -0.1978
19242TIP3    H179141   4.002   0.574  13.149 -0.3883  1.2086  0.2795
19242TIP3    H279142   3.857   0.618  13.134 -0.0240  2.1121 -0.7019
19243TIP3   OH279143   5.610   0.126   5.782 -0.6197  0.5875 -0.4397
19243TIP3    H179144   5.588   0.212   5.746 -1.8382  0.9345  1.1157
19243TIP3    H279145   5.537   0.070   5.756  0.1783  0.0093 -1.4601
19244TIP3   OH279146   1.636   1.043  13.002 -0.2321  0.2505  0.2551
19244TIP3    H179147   1.718   1.091  13.010  0.4361 -1.2474  3.0259
19244TIP3    H279148   1.575   1.087  13.061 -1.0207  0.4843 -0.7085
19245TIP3   OH279149   2.665   1.808  10.980 -0.0544 -0.0572 -0.1988
19245TIP3    H179150   2.709   1.738  10.932  1.2640  0.3971  0.3243
19245TIP3    H279151   2.572   1.790  10.967  0.2636 -0.6120 -1.9384
19246TIP3   OH279152   1.798   1.765   3.418  0.2446  0.0595 -0.3649
19246TIP3    H179153   1.850   1.759   3.498  1.2632 -0.7839 -1.0547
19246TIP3    H279154   1.719   1.714   3.436  0.9602 -1.0291 -0.2402
19247TIP3   OH279155   6.249   1.699   2.609 -0.5534 -0.0473  0.2650
19247TIP3    H179156   6.178   1.740   2.559  1.6842  0.7554 -2.3987
19247TIP3    H279157   6.293   1.771   2.653  0.0260 -0.2414  0.0098
19248TIP3   OH279158   2.906   3.788  13.056  0.0287 -0.9542 -0.2509
19248TIP3    H179159   2.865   3.723  13.113  1.0831 -0.3211  1.2834
19248TIP3    H279160   2.909   3.867  13.110  1.4991 -0.4762 -1.0200
19249TIP3   OH279161   5.789   3.395  13.199 -0.2521  0.2338 -0.7682
19249TIP3    H179162   5.881   3.422  13.198 -0.4778  1.1153  0.5018
19249TIP3    H279163   5.739   3.476  13.192 -0.9408 -0.1470 -0.4138
19250TIP3   OH279164   4.677   0.221  17.065  0.0300  0.6764  0.7240
19250TIP3    H179165   4.728   0.162  17.009  0.3904  1.4575  0.2165
19250TIP3    H279166   4.593   0.177  17.076 -0.2638  0.7780 -0.9360
19251TIP3   OH279167   3.952   1.631  15.570 -0.5183  0.1103 -0.4522
19251TIP3    H179168   3.972   1.613  15.479 -1.0368  0.3993 -0.6277
19251TIP3    H279169   3.861   1.662  15.569  0.2352  2.4376 -0.1392
19252TIP3   OH279170   6.594   1.034   1.352 -0.2498 -0.1509 -0.2670
19252TIP3    H179171   6.649   0.961   1.381 -0.5579 -0.6478 -0.9218
19252TIP3    H279172   6.628   1.110   1.399  1.8064 -0.2128 -1.5798
19253TIP3   OH279173   5.712   5.239  11.294  0.5742  0.2177 -0.2542
19253TIP3    H179174   5.738   5.255  11.203  1.4359 -0.3524 -0.1101
19253TIP3    H279175   5.792   5.252  11.345  0.5363 -1.3256  0.2193
19254TIP3   OH279176   6.460   1.651  14.542 -0.1726 -0.3660  0.1921
19254TIP3    H179177   6.553   1.670  14.532 -0.1652 -1.0550 -1.1170
19254TIP3    H279178   6.454   1.555  14.537 -1.3533 -0.1648 -3.5352
19255TIP3   OH279179   1.928   1.080  14.158  0.4641 -0.1154  0.2524
19255TIP3    H179180   1.904   1.168  14.128  1.7466 -0.1245 -0.8470
19255TIP3    H279181   2.009   1.061  14.112  1.2077 -1.1178  1.9337
19256TIP3   OH279182   0.039   2.549  16.532 -0.3244 -0.4515  0.2415
19256TIP3    H179183   0.060   2.602  16.455  1.1667 -1.4217 -0.0401
19256TIP3    H279184  -0.009   2.608  16.589  0.3198  0.8783 -0.5677
19257TIP3   OH279185   4.173   3.021   6.067  0.5650  0.3232 -0.2697
19257TIP3    H179186   4.184   2.926   6.065  1.3876  0.4468 -2.4808
19257TIP3    H279187   4.254   3.055   6.105  0.4572  0.1762  0.0924
19258TIP3   OH279188   6.356   3.854   2.005 -0.5430 -0.3850 -0.6128
19258TIP3    H179189   6.339   3.948   2.006  1.5867  0.0095  0.0240
19258TIP3    H279190   6.325   3.823   2.090  0.0399 -0.0053 -0.2541
19259TIP3   OH279191   5.902   1.854   2.277  0.5780 -0.3072 -0.5586
19259TIP3    H179192   5.830   1.793   2.293  0.6007 -0.6073 -1.5536
19259TIP3    H279193   5.878   1.898   2.195  2.2035 -1.4187 -1.6489
19260TIP3   OH279194   2.498   0.099  16.102 -0.0998  0.2145 -0.8241
19260TIP3    H179195   2.554   0.032  16.062  1.3755  1.3686 -0.7459
19260TIP3    H279196   2.476   0.158  16.030 -1.8990 -0.6550 -1.0186
19261TIP3   OH279197   6.141   6.679  11.900 -0.2132 -0.1574 -0.4392
19261TIP3    H179198   6.204   6.688  11.971 -0.2896 -0.3138 -0.3529
19261TIP3    H279199   6.083   6.754  11.910  0.0490  0.0685 -0.6095
19262TIP3   OH279200   1.583   1.709  13.347 -0.3110 -0.1637  0.3738
19262TIP3    H179201   1.628   1.747  13.422 -1.6045 -0.3276  1.2462
19262TIP3    H279202   1.528   1.780  13.313 -1.3819 -0.7311  0.9196
19263TIP3   OH279203   4.210   5.290  13.264 -0.8559 -0.0654 -0.3040
19263TIP3    H179204   4.238   5.199  13.267  1.1256  0.3985 -2.5895
19263TIP3    H279205   4.234   5.326  13.349 -0.4037 -1.3347  0.1095
19264TIP3   OH279206   0.957   5.464  16.907  0.0609  0.2188  0.7609
19264TIP3    H179207   0.931   5.522  16.835  0.7408 -1.2093 -0.6862
19264TIP3    H279208   1.036   5.505  16.943 -0.4875  1.1344  0.9323
19265TIP3   OH279209   3.999   3.213   6.762 -0.1112 -0.2927  0.1072
19265TIP3    H179210   4.041   3.243   6.842  0.8084  0.6252 -0.7086
19265TIP3    H279211   3.920   3.267   6.754  0.4963  0.5371 -0.3064
19266TIP3   OH279212   2.431   3.350   2.861 -0.0916  0.6612  0.1792
19266TIP3    H179213   2.376   3.389   2.928  0.3913  1.6612  0.0147
19266TIP3    H279214   2.388   3.267   2.839 -1.0460  1.0187  0.6650
19267TIP3   OH279215   1.134   4.902  13.171 -0.7272  0.3548  0.0782
19267TIP3    H179216   1.043   4.897  13.201 -0.7043 -1.3876 -0.0639
19267TIP3    H279217   1.185   4.874  13.247 -0.3567  0.5452 -0.0997
19268TIP3   OH279218   1.979   5.166  11.156 -0.0321 -0.2959 -0.3054
19268TIP3    H179219   1.965   5.074  11.135  0.9579  0.0267 -2.4591
19268TIP3    H279220   1.890   5.203  11.161 -0.5133 -1.6480  2.1191
19269TIP3   OH279221   4.489   6.685  11.105 -0.3317  0.0613 -0.4274
19269TIP3    H179222   4.471   6.744  11.178 -1.8586  0.0209 -0.7616
19269TIP3    H279223   4.582   6.698  11.086 -0.2246  1.0046  0.6835
19270TIP3   OH279224   6.726   4.755  16.351  0.3973 -0.1393  0.0260
19270TIP3    H179225   6.707   4.673  16.396  0.2271 -0.9748 -1.5277
19270TIP3    H279226   6.780   4.730  16.277 -0.4674  1.0200 -1.0183
19271TIP3   OH279227   4.776   5.745  12.922  0.1351 -0.0495 -1.1143
19271TIP3    H179228   4.805   5.715  12.836  1.9947 -0.6245 -0.3216
19271TIP3    H279229   4.743   5.666  12.965  1.0557 -0.1469 -0.5821
19272TIP3   OH279230   3.925   4.795   0.018  0.5105 -0.1152  0.3067
19272TIP3    H179231   3.987   4.786  -0.054  0.9357  1.7686  0.4021
19272TIP3    H279232   3.960   4.740   0.088 -1.0828 -3.7294 -1.6378
19273TIP3   OH279233   5.631   5.197  14.508 -0.1006 -0.3062  0.5041
19273TIP3    H179234   5.553   5.243  14.539 -0.0461  1.3657 -1.6966
19273TIP3    H279235   5.696   5.266  14.492  0.2501 -1.1650 -2.1044
19274TIP3   OH279236   3.844   4.806   2.251 -0.2387 -0.1492 -0.8945
19274TIP3    H179237   3.928   4.785   2.212  0.4943 -0.5013  0.8466
19274TIP3    H279238   3.841   4.902   2.254  0.5474 -0.1424 -0.0460
19275TIP3   OH279239   6.246   4.196  15.871  0.1287  0.4230  0.4617
19275TIP3    H179240   6.242   4.128  15.805  3.0157  0.7058 -0.0687
19275TIP3    H279241   6.165   4.246  15.859 -1.9054 -2.7164  0.7228
19276TIP3   OH279242   1.200   4.126  15.979  0.8751  0.0722 -0.1883
19276TIP3    H179243   1.206   4.070  16.056 -0.8144  1.4598  0.9936
19276TIP3    H279244   1.273   4.188  15.988 -0.1753  1.1549  1.0882
19277TIP3   OH279245   0.938   4.380   1.576 -0.4005 -0.2524 -0.3741
19277TIP3    H179246   1.019   4.420   1.545 -0.6192  0.0211 -0.5906
19277TIP3    H279247   0.912   4.320   1.506  0.1239 -1.0465  0.1105
19278TIP3   OH279248   5.678   0.402   1.552 -0.2426 -0.3005  0.2105
19278TIP3    H179249   5.727   0.323   1.532 -0.5018 -0.7875  1.4952
19278TIP3    H279250   5.691   0.416   1.645 -0.0064  1.3105 -0.0525
19279TIP3   OH279251   5.235   0.477  11.693  0.0552  0.1319 -0.0704
19279TIP3    H179252   5.326   0.499  11.714  0.0180 -0.0664  0.3094
19279TIP3    H279253   5.195   0.561  11.672  0.7491  0.0142 -1.9215
19280TIP3   OH279254   2.648   4.460  14.514 -0.3057  0.4742 -0.4780
19280TIP3    H179255   2.632   4.475  14.421 -0.8679 -1.2454 -0.6820
19280TIP3    H279256   2.600   4.530  14.559 -0.3177  1.1006 -1.4584
19281TIP3   OH279257   6.171   3.782   2.682 -0.0408 -0.0790 -0.6100
19281TIP3    H179258   6.208   3.763   2.768 -0.6393 -0.3383 -0.4060
19281TIP3    H279259   6.139   3.872   2.689  0.5153  0.1300 -0.7729
19282TIP3   OH279260   2.578   5.135  16.415  0.8490  0.2384  0.0255
19282TIP3    H179261   2.486   5.120  16.439  0.9201  1.3108  0.9998
19282TIP3    H279262   2.577   5.215  16.362  1.2944  0.5908  0.5450
19283TIP3   OH279263   4.394   6.486   4.846 -0.2216 -0.4130 -0.0649
19283TIP3    H179264   4.346   6.532   4.776  1.0144  0.8134 -0.1370
19283TIP3    H279265   4.357   6.521   4.927  0.1485  0.1200 -0.1204
19284TIP3   OH279266   3.171   2.691   6.121 -0.3973  0.6573  0.1781
19284TIP3    H179267   3.125   2.749   6.181 -0.4051  0.5174  0.3072
19284TIP3    H279268   3.151   2.603   6.152 -1.6312  0.5269 -0.9125
19285TIP3   OH279269   4.475   1.424  11.793  0.2855  0.3211  0.5197
19285TIP3    H179270   4.402   1.374  11.757  0.7193  0.9789 -1.3263
19285TIP3    H279271   4.435   1.501  11.834 -0.1458  0.0829  0.5375
19286TIP3   OH279272   0.268   6.155   1.751  0.5250 -0.2455 -0.5712
19286TIP3    H179273   0.258   6.230   1.691  1.0750 -0.8150 -1.3837
19286TIP3    H279274   0.361   6.132   1.744  0.6195 -0.2384  0.6070
19287TIP3   OH279275   0.833   6.620   2.446 -0.2068  0.1374 -0.5289
19287TIP3    H179276   0.769   6.597   2.379 -0.6656 -1.0651  0.2969
19287TIP3    H279277   0.891   6.543   2.450 -1.3593 -0.6297  1.8285
19288TIP3   OH279278   0.844   0.434  16.243 -0.0640 -0.1180  0.1790
19288TIP3    H179279   0.844   0.392  16.329  1.5957 -0.0137  0.2477
19288TIP3    H279280   0.935   0.461  16.229 -0.4817  0.6359 -1.2372
19289TIP3   OH279281   4.180   4.273   1.997  0.4260  0.1070 -0.2686
19289TIP3    H179282   4.154   4.187   1.963  1.4060  0.0544 -0.9302
19289TIP3    H279283   4.211   4.256   2.086 -1.1738  0.0797  0.3011
19290TIP3   OH279284   4.079   1.843  14.131 -0.0107  0.4584 -0.2022
19290TIP3    H179285   4.145   1.859  14.198  1.0411 -2.7896 -0.3765
19290TIP3    H279286   4.108   1.896  14.056 -0.0904  2.5156  1.1812
19291TIP3   OH279287   6.250   0.908  12.074 -0.6905  0.2903  0.0518
19291TIP3    H179288   6.182   0.959  12.117 -1.1349 -0.3227  0.0854
19291TIP3    H279289   6.212   0.880  11.991 -1.1709 -1.6133  0.8868
19292TIP3   OH279290   4.219   1.648   6.618 -0.3540  0.0877  0.2527
19292TIP3    H179291   4.226   1.742   6.630  2.0832  0.1838 -1.6956
19292TIP3    H279292   4.164   1.637   6.540 -0.1191 -0.0889  0.1112
19293TIP3   OH279293   0.247   1.392   1.724  0.0002  0.1214  0.0366
19293TIP3    H179294   0.177   1.381   1.788 -0.5758 -0.1192 -0.6261
19293TIP3    H279295   0.292   1.307   1.722  0.8980  0.5688  1.1445
19294TIP3   OH279296   1.220   4.738   5.695 -0.1323 -0.0844  0.3547
19294TIP3    H179297   1.264   4.653   5.693  0.2443  0.1095 -2.1184
19294TIP3    H279298   1.141   4.726   5.642  0.2814  1.2663 -0.6094
19295TIP3   OH279299   2.243   2.036   5.924 -0.4504 -0.4974 -0.3140
19295TIP3    H179300   2.319   2.067   5.874 -1.2922  1.6016 -0.3103
19295TIP3    H279301   2.235   1.944   5.899  2.0530 -0.7583 -0.3684
19296TIP3   OH279302   1.928   6.306   2.175  0.0166  0.0858 -0.1656
19296TIP3    H179303   2.023   6.317   2.183 -0.0553  1.3100 -0.9033
19296TIP3    H279304   1.892   6.382   2.221 -0.5711  0.7772 -1.7429
19297TIP3   OH279305   4.264   6.600  12.725 -0.6945 -0.6993  0.0410
19297TIP3    H179306   4.290   6.639  12.642  1.6197 -1.8523  0.1929
19297TIP3    H279307   4.172   6.574  12.712 -0.8999  0.7597 -1.5143
19298TIP3   OH279308   3.026   1.379  15.014  0.3607  0.1342  0.0658
19298TIP3    H179309   3.096   1.314  15.000  0.5567  0.3413  0.0806
19298TIP3    H279310   3.002   1.369  15.106  1.1317  0.8135  0.3476
19299TIP3   OH279311   0.776   0.152  11.717 -0.8643 -0.3166 -0.0919
19299TIP3    H179312   0.843   0.220  11.721 -0.7870 -0.3705 -0.4805
19299TIP3    H279313   0.697   0.199  11.687 -0.8035 -0.4034 -0.3885
19300TIP3   OH279314   2.001   0.841  13.376  0.1835 -0.5092 -0.0279
19300TIP3    H179315   2.047   0.786  13.439 -0.1860  1.3659  1.9783
19300TIP3    H279316   1.966   0.781  13.311  0.6837 -2.5071  1.5179
19301TIP3   OH279317   1.942   6.152  12.358 -0.0633  0.3051  0.0205
19301TIP3    H179318   1.848   6.170  12.362 -0.2819 -0.9087  0.7246
19301TIP3    H279319   1.961   6.108  12.441  1.5712  2.5124  0.8486
19302TIP3   OH279320   0.742   6.647   4.344 -0.4509  0.4707  0.0671
19302TIP3    H179321   0.691   6.581   4.298  1.4526 -1.3504  0.4720
19302TIP3    H279322   0.775   6.704   4.275  1.2110 -1.3976 -0.7284
19303TIP3   OH279323   5.552   3.881  13.895 -0.6114  0.2363 -0.2755
19303TIP3    H179324   5.532   3.968  13.859 -0.2190  0.8807  1.0287
19303TIP3    H279325   5.494   3.873  13.971  0.7131  0.1662  0.7417
19304TIP3   OH279326   6.238   5.690  14.072  0.2956 -0.2690 -0.5906
19304TIP3    H179327   6.205   5.628  14.137  1.0098 -0.5115 -0.4510
19304TIP3    H279328   6.325   5.655  14.048  1.1264  1.2285  0.2159
19305TIP3   OH279329   3.506   2.652   6.052  0.1385 -0.1532  0.2756
19305TIP3    H179330   3.456   2.574   6.027 -1.0545  1.8009 -3.7978
19305TIP3    H279331   3.574   2.660   5.985  1.9494  0.8481  2.1637
19306TIP3   OH279332   0.955   2.005   1.045 -0.3616  0.0607 -0.0679
19306TIP3    H179333   0.893   2.025   1.116 -0.9503  1.6250 -1.0066
19306TIP3    H279334   1.011   1.936   1.081 -3.1476 -1.9844  0.5497
19307TIP3   OH279335   2.788   3.636  16.530 -0.7843  0.6766 -0.1450
19307TIP3    H179336   2.743   3.635  16.615 -1.0166  1.0325 -0.2599
19307TIP3    H279337   2.722   3.605  16.468 -1.2690  2.3453 -0.4941
19308TIP3   OH279338   1.884   4.871  10.842 -0.2424 -0.0037  0.6475
19308TIP3    H179339   1.978   4.856  10.838 -0.2378 -0.0061  0.7588
19308TIP3    H279340   1.850   4.833  10.761 -0.0052  1.0106  0.0669
19309TIP3   OH279341   5.611   6.417   5.745  0.3902 -0.7495  0.2073
19309TIP3    H179342   5.674   6.490   5.741 -0.1944 -0.3522 -1.9218
19309TIP3    H279343   5.534   6.455   5.787  0.0047 -0.0683 -1.0982
19310TIP3   OH279344   1.701   4.360   1.920  0.0006 -0.5141  0.3711
19310TIP3    H179345   1.623   4.357   1.864  0.1846  0.8842  0.0244
19310TIP3    H279346   1.771   4.323   1.865  0.4737  2.0593 -0.8705
19311TIP3   OH279347   1.702   0.840  13.212 -0.6573  0.5720 -0.6674
19311TIP3    H179348   1.774   0.790  13.174 -2.2026 -1.6905 -0.6627
19311TIP3    H279349   1.639   0.850  13.141 -1.2110  0.8623 -0.1412
19312TIP3   OH279350   2.601   1.579   6.453  0.3794 -0.6091  0.1952
19312TIP3    H179351   2.561   1.518   6.515  0.8792 -0.4558  0.6615
19312TIP3    H279352   2.549   1.659   6.460  1.2026 -0.1724  1.3076
19313TIP3   OH279353   1.260   4.956  16.726  0.2687  0.0771  0.4015
19313TIP3    H179354   1.221   5.040  16.701  0.0555 -0.3647 -0.7852
19313TIP3    H279355   1.297   4.971  16.812  0.7599  1.5625 -0.0666
19314TIP3   OH279356   6.015   3.516  15.415 -0.2706  0.8046  0.7135
19314TIP3    H179357   5.964   3.435  15.416 -0.0503  0.6662  2.6380
19314TIP3    H279358   6.092   3.497  15.468  1.2171  1.3857 -1.2243
19315TIP3   OH279359   5.385   3.748   3.799 -0.2654 -0.2761  0.0645
19315TIP3    H179360   5.372   3.677   3.737  2.4945 -0.9552  0.2029
19315TIP3    H279361   5.325   3.817   3.770 -1.8727 -2.0756 -0.9579
19316TIP3   OH279362   0.232   0.003   1.200 -0.4325 -0.0956 -0.0610
19316TIP3    H179363   0.206  -0.084   1.171 -0.4715  0.3449 -1.3653
19316TIP3    H279364   0.328   0.004   1.193 -0.4008 -0.1654  0.3388
19317TIP3   OH279365   5.954   5.458   5.212  0.1134  0.5163  0.4973
19317TIP3    H179366   6.019   5.393   5.239  0.8141  0.9240 -0.1880
19317TIP3    H279367   5.985   5.489   5.127 -1.5393 -0.0418 -0.3207
19318TIP3   OH279368   2.779   4.376   4.003  0.1384  0.0373 -0.2803
19318TIP3    H179369   2.745   4.416   3.923  2.0470  0.0647 -1.0969
19318TIP3    H279370   2.816   4.449   4.052 -1.1134  0.0333  0.6910
19319TIP3   OH279371   5.746   0.174  15.368 -0.0263 -0.2010 -0.1710
19319TIP3    H179372   5.697   0.208  15.293 -1.6965  0.4788  1.1889
19319TIP3    H279373   5.688   0.189  15.442  1.2622 -1.6259  1.1421
19320TIP3   OH279374   0.405   5.653  11.992 -0.5831 -0.3380  0.1818
19320TIP3    H179375   0.401   5.726  11.930  0.0413 -0.6832 -0.2649
19320TIP3    H279376   0.345   5.679  12.062  2.6224  2.4883  2.0576
19321TIP3   OH279377   4.607   3.609  11.802 -0.3354 -0.0379  0.0012
19321TIP3    H179378   4.669   3.541  11.826  0.5188  1.0519  0.9449
19321TIP3    H279379   4.583   3.589  11.712  3.5709  1.1197 -1.4016
19322TIP3   OH279380   4.959   4.029   3.394  0.1250  0.9655 -0.6243
19322TIP3    H179381   4.914   4.005   3.314 -0.4488 -1.3434  0.3806
19322TIP3    H279382   5.050   4.002   3.380  0.2286  1.4084 -0.8351
19323TIP3   OH279383   3.342   0.408  14.555 -0.0831  0.5968  0.5658
19323TIP3    H179384   3.368   0.477  14.494 -0.0499  0.5641  0.5421
19323TIP3    H279385   3.328   0.331  14.499 -3.2010  1.3825  0.1572
19324TIP3   OH279386   1.986   1.211  11.864  0.8924 -0.2010 -0.2235
19324TIP3    H179387   2.058   1.237  11.922 -0.4936 -1.9463  2.4029
19324TIP3    H279388   1.914   1.270  11.887  0.4081 -0.7458 -0.3269
19325TIP3   OH279389   2.462   6.351   3.259 -0.3298  0.0918 -0.0200
19325TIP3    H179390   2.433   6.264   3.284 -0.3564  0.2441  0.4914
19325TIP3    H279391   2.407   6.410   3.310 -1.0903  0.4289 -1.2242
19326TIP3   OH279392   4.229   4.327   1.550  0.6564 -0.3940  0.4293
19326TIP3    H179393   4.292   4.393   1.523  0.3263 -0.1507  0.2419
19326TIP3    H279394   4.144   4.365   1.527  0.5169 -1.3146 -0.6262
19327TIP3   OH279395   6.066   4.133  16.820  0.4112  0.8504 -0.2631
19327TIP3    H179396   6.020   4.050  16.833  1.2810  0.3280 -0.4068
19327TIP3    H279397   6.116   4.146  16.901  0.9950  0.7544 -0.6018
19328TIP3   OH279398   0.666   1.524  15.045  0.2851 -0.4148 -0.0688
19328TIP3    H179399   0.635   1.481  14.966  1.3849 -1.7982  0.2343
19328TIP3    H279400   0.762   1.524  15.037  0.4429 -1.2631  1.5985
19329TIP3   OH279401   0.173   5.343  10.921 -0.4847  0.0261 -0.0892
19329TIP3    H179402   0.242   5.320  10.859 -1.0162 -0.9944 -0.3059
19329TIP3    H279403   0.109   5.273  10.914 -1.8931  1.3086 -0.3674
19330TIP3   OH279404   2.403   4.485  11.850 -0.1681  0.0810  0.6528
19330TIP3    H179405   2.373   4.574  11.864 -2.1473 -0.2990 -0.9180
19330TIP3    H279406   2.337   4.430  11.892 -0.2782 -0.6953 -0.5086
19331TIP3   OH279407   2.278   6.208   5.165 -0.4495 -0.0307  0.9290
19331TIP3    H179408   2.187   6.219   5.193 -0.5788  2.2713 -0.2675
19331TIP3    H279409   2.306   6.296   5.140  1.6773 -0.9490 -0.0165
19332TIP3   OH279410   5.067   1.479   6.726  0.6003  0.0509  0.8165
19332TIP3    H179411   4.990   1.474   6.782  0.3780 -1.2035  0.4191
19332TIP3    H279412   5.038   1.528   6.649  0.6987  1.1206  1.4585
19333TIP3   OH279413   4.591   4.225  10.823  0.5963  0.4676 -0.5800
19333TIP3    H179414   4.673   4.262  10.855  0.8825 -0.4265 -0.2743
19333TIP3    H279415   4.562   4.287  10.756  0.7986  1.5152  0.2861
19334TIP3   OH279416   1.954   5.367  11.410 -0.6904 -0.1117 -0.1384
19334TIP3    H179417   1.933   5.408  11.326  4.0812 -3.4366 -3.1962
19334TIP3    H279418   2.002   5.435  11.458 -0.3721  0.6842 -1.5511
19335TIP3   OH279419   3.158   4.653  15.303  0.0979 -0.1156 -0.0387
19335TIP3    H179420   3.201   4.571  15.330 -0.3945 -0.3303  0.0988
19335TIP3    H279421   3.066   4.629  15.292 -0.0856  0.4772  0.2180
19336TIP3   OH279422   2.076   5.825  11.055 -0.3827 -0.1880  0.3555
19336TIP3    H179423   2.159   5.790  11.086  0.0353  1.0865  0.6939
19336TIP3    H279424   2.094   5.855  10.966 -0.4254  0.3050  0.5148
19337TIP3   OH279425   6.326   0.253   5.047  0.2992 -0.0731 -0.3696
19337TIP3    H179426   6.406   0.266   4.996 -0.5746  2.0817 -1.2093
19337TIP3    H279427   6.300   0.163   5.027  2.3984 -0.7473 -0.2218
19338TIP3   OH279428   6.344   2.955  14.583  0.2728 -0.2473  0.0562
19338TIP3    H179429   6.306   3.037  14.552  0.1018 -0.5310 -0.4948
19338TIP3    H279430   6.328   2.955  14.678 -0.4011 -0.0002 -0.0580
19339TIP3   OH279431   4.064   1.490  11.435 -0.0050 -0.4468  0.3831
19339TIP3    H179432   4.032   1.423  11.375  0.0384 -0.5014  0.4214
19339TIP3    H279433   4.014   1.568  11.413  0.2862 -0.3613  0.0107
19340TIP3   OH279434   1.302   6.044  11.339 -0.1284 -0.0258 -0.3393
19340TIP3    H179435   1.261   5.961  11.362  0.4315  0.1498  1.3504
19340TIP3    H279436   1.280   6.057  11.247 -0.0619 -2.1289 -0.6633
19341TIP3   OH279437   3.651   6.271   1.141  0.1722  0.3280  0.0846
19341TIP3    H179438   3.579   6.334   1.145 -1.8108 -1.8890  1.1041
19341TIP3    H279439   3.677   6.270   1.048  0.0395  2.3741  0.0119
19342TIP3   OH279440   1.882   3.360  14.613 -0.3187  0.5472  0.3667
19342TIP3    H179441   1.876   3.328  14.703  1.5080  1.0257  0.6730
19342TIP3    H279442   1.971   3.338  14.586 -0.8336  0.4639 -1.3104
19343TIP3   OH279443   5.912   2.713   2.030 -0.5795 -0.1100 -0.3112
19343TIP3    H179444   5.909   2.694   2.124 -1.4808  0.2159 -0.2633
19343TIP3    H279445   5.859   2.793   2.021  2.2551  1.7793 -0.6323
19344TIP3   OH279446   1.719   2.779   2.019 -0.2538  0.3415  0.0534
19344TIP3    H179447   1.697   2.846   2.084 -1.8995  1.8158 -1.9818
19344TIP3    H279448   1.770   2.825   1.953 -1.1803 -0.4745 -1.2400
19345TIP3   OH279449   0.171   4.612  10.907  0.0870  0.5909  0.3427
19345TIP3    H179450   0.157   4.621  10.813 -0.4594 -0.5268  0.3100
19345TIP3    H279451   0.258   4.650  10.921  1.1194 -1.1325 -0.9673
19346TIP3   OH279452   2.734   4.968   5.813  0.4826  0.0609  0.2367
19346TIP3    H179453   2.738   4.893   5.872  0.4318  0.7036  1.0602
19346TIP3    H279454   2.681   4.937   5.739  0.7688 -0.8309  0.3963
19347TIP3   OH279455   5.088   3.164  17.235  0.1227 -0.0282  0.0632
19347TIP3    H179456   5.135   3.223  17.176 -0.0921 -0.3910 -0.4776
19347TIP3    H279457   5.095   3.205  17.321  1.9892 -0.4180  0.1066
19348TIP3   OH279458   5.031   1.825  13.586  0.4318  0.2840  0.8689
19348TIP3    H179459   4.954   1.862  13.628  1.0617 -0.0628  2.3560
19348TIP3    H279460   4.997   1.756  13.528 -0.3700  0.1917  1.4514
19349TIP3   OH279461   3.878   4.181   1.335  0.0611 -0.4883 -0.1846
19349TIP3    H179462   3.874   4.159   1.428  2.3344  0.6548  0.2329
19349TIP3    H279463   3.880   4.097   1.290 -0.7143 -1.0487  0.8148
19350TIP3   OH279464   4.350   5.745  14.598 -0.3435  0.4368  0.0006
19350TIP3    H179465   4.328   5.695  14.676 -0.2550  0.5495  0.0974
19350TIP3    H279466   4.445   5.736  14.590 -0.2896  0.8446  0.1913
19351TIP3   OH279467   1.171   3.622   5.453  0.7572 -0.3743  0.6053
19351TIP3    H179468   1.235   3.693   5.458  0.4818 -0.0525 -0.2598
19351TIP3    H279469   1.163   3.604   5.359 -1.1021  0.2215  0.6308
19352TIP3   OH279470   2.171   5.100  13.432 -0.6810  0.2243 -0.2270
19352TIP3    H179471   2.243   5.041  13.411  0.3827  0.9975  1.1775
19352TIP3    H279472   2.120   5.106  13.351  0.7510 -0.4367 -1.1852
19353TIP3   OH279473   4.974   0.207   2.732 -0.1086  0.1942  0.5884
19353TIP3    H179474   5.032   0.151   2.783  0.0755 -0.1735 -0.0127
19353TIP3    H279475   5.027   0.285   2.714  0.6038 -0.5914 -0.8729
19354TIP3   OH279476   3.649   6.386   5.038 -0.2036 -0.1236 -0.1280
19354TIP3    H179477   3.739   6.377   5.008  0.2623 -1.8369  1.6693
19354TIP3    H279478   3.653   6.456   5.103 -0.3727  0.4885 -0.7691
19355TIP3   OH279479   2.842   4.784   0.690 -0.2821  0.3600  0.1616
19355TIP3    H179480   2.803   4.751   0.771 -1.4668 -2.0104 -1.3270
19355TIP3    H279481   2.918   4.728   0.675  0.0965  0.9724 -0.2477
19356TIP3   OH279482   5.207   1.796  11.583 -0.8043 -0.4148 -0.6173
19356TIP3    H179483   5.160   1.866  11.629 -0.3538  0.2326 -1.1313
19356TIP3    H279484   5.162   1.716  11.609 -0.7573 -0.0243  0.6844
19357TIP3   OH279485   6.053   0.605   3.126 -0.4098 -0.3292  0.0944
19357TIP3    H179486   6.059   0.700   3.131  2.9729 -0.4757 -0.2547
19357TIP3    H279487   6.057   0.576   3.217 -1.3274 -0.1723  0.1937
19358TIP3   OH279488   0.644   6.060   5.505  0.7500  1.1851 -0.5531
19358TIP3    H179489   0.572   6.094   5.559  0.5791 -0.2671  0.1427
19358TIP3    H279490   0.646   6.118   5.429 -1.8707  0.5777 -1.1220
19359TIP3   OH279491   3.078   0.902   2.836  0.2457  0.1544  0.0071
19359TIP3    H179492   3.129   0.884   2.757 -1.0359  0.7554 -0.9754
19359TIP3    H279493   3.012   0.833   2.838 -0.2154  0.5900  0.1009
19360TIP3   OH279494   1.021   3.133  13.423  0.1147 -0.0346  0.0891
19360TIP3    H179495   1.040   3.055  13.369  0.5134  2.1563 -3.0866
19360TIP3    H279496   0.948   3.105  13.478 -0.2704 -2.4648 -1.5181
19361TIP3   OH279497   5.100   0.209   0.216  1.0885  0.1742  0.1664
19361TIP3    H179498   5.107   0.304   0.221  2.9744  0.0217  1.0323
19361TIP3    H279499   5.149   0.185   0.137 -0.0895 -0.0246 -0.5140
19362TIP3   OH279500   3.178   6.201  11.634 -0.2113 -0.2782 -0.1358
19362TIP3    H179501   3.267   6.169  11.649 -0.1136 -0.1959 -0.5226
19362TIP3    H279502   3.176   6.224  11.541 -0.5551 -0.0239 -0.0697
19363TIP3   OH279503   6.312   5.742   0.995 -0.2340  0.0267 -0.2544
19363TIP3    H179504   6.297   5.692   1.075 -1.6365  1.8688  0.6702
19363TIP3    H279505   6.407   5.744   0.986 -0.1138 -4.4506 -1.4259
19364TIP3   OH279506   1.687   3.531   5.876 -0.0969 -0.1145  0.2449
19364TIP3    H179507   1.599   3.531   5.838 -0.3418  0.0010  0.8179
19364TIP3    H279508   1.692   3.613   5.924  0.8703  0.6096 -1.0499
19365TIP3   OH279509   3.906   1.712   5.153  0.0849  0.2985 -0.0518
19365TIP3    H179510   3.943   1.790   5.111  0.3437  0.3765  0.3166
19365TIP3    H279511   3.939   1.639   5.102  0.9420  0.3549  0.4157
19366TIP3   OH279512   0.824   1.010   1.476 -0.0349 -0.3358 -0.5085
19366TIP3    H179513   0.775   1.053   1.406 -1.5583  0.7595  1.2096
19366TIP3    H279514   0.759   0.957   1.522  1.3925 -2.8604 -1.2777
19367TIP3   OH279515   5.081   5.071   4.387  0.2663 -0.0862  0.0209
19367TIP3    H179516   5.162   5.065   4.438  0.2313 -1.5641 -0.0938
19367TIP3    H279517   5.107   5.042   4.299 -0.4218 -0.6971  0.0190
19368TIP3   OH279518   5.162   2.331  12.221 -1.0204  0.3299  0.0518
19368TIP3    H179519   5.219   2.294  12.154  1.1223  1.8386  0.9689
19368TIP3    H279520   5.082   2.356  12.174 -0.4249 -0.6190 -1.4975
19369TIP3   OH279521   2.928   0.118  16.829  0.1186  0.0389  0.3429
19369TIP3    H179522   2.948   0.209  16.809 -2.4693  0.6001  0.1043
19369TIP3    H279523   3.004   0.069  16.798  0.2500  1.8209 -2.2894
19370TIP3   OH279524   1.604   5.962   2.325  0.0042 -0.3400  0.0616
19370TIP3    H179525   1.622   5.902   2.397 -1.3555 -0.1625  0.5522
19370TIP3    H279526   1.689   6.000   2.304  0.7479 -1.8661  0.2504
19371TIP3   OH279527   4.858   5.414  13.281 -0.3353 -0.3342 -0.1669
19371TIP3    H179528   4.946   5.410  13.318 -0.4948 -1.9388  0.0769
19371TIP3    H279529   4.817   5.489  13.324  0.3872 -0.5372  0.8967
19372TIP3   OH279530   6.225   3.608  14.579  0.4672  0.8033 -0.4448
19372TIP3    H179531   6.159   3.650  14.635  0.2647  0.3268 -0.3230
19372TIP3    H279532   6.239   3.522  14.619  0.7230  0.6703 -0.8164
19373TIP3   OH279533   4.227   3.123   1.031  0.2135 -0.0614  0.0117
19373TIP3    H179534   4.281   3.071   0.972  0.2085 -1.0570  0.8729
19373TIP3    H279535   4.269   3.113   1.117 -1.1707 -0.6054  0.6359
19374TIP3   OH279536   4.083   5.360  11.093 -0.0704  0.6226  0.0696
19374TIP3    H179537   4.020   5.288  11.093  0.2807  0.3068  1.7200
19374TIP3    H279538   4.069   5.403  11.009 -0.8984 -0.8335 -0.5668
19375TIP3   OH279539   2.881   5.573   5.265 -0.1533  0.0294  0.6540
19375TIP3    H179540   2.922   5.609   5.186 -0.9932 -0.0510  0.1769
19375TIP3    H279541   2.950   5.520   5.306  0.7027  1.1821  0.7111
19376TIP3   OH279542   3.669   5.102   2.022  0.1284  0.5775 -0.0194
19376TIP3    H179543   3.643   5.016   1.988 -1.6241  0.6080  1.2075
19376TIP3    H279544   3.757   5.087   2.057  0.4257 -0.3586 -1.1182
19377TIP3   OH279545   1.060   2.049   2.681 -0.0310  0.1486  0.3116
19377TIP3    H179546   1.039   2.102   2.604 -0.4818  1.3597  1.2419
19377TIP3    H279547   0.975   2.023   2.716  0.1770 -0.6733  0.2238
19378TIP3   OH279548   1.031   3.125  13.088  0.3983 -0.1996  0.7004
19378TIP3    H179549   0.970   3.197  13.110  0.4761 -0.4327  1.6939
19378TIP3    H279550   1.012   3.058  13.153  0.0983 -1.2238 -0.4331
19379TIP3   OH279551   0.747   4.844   4.702  0.0991  0.3972  0.5629
19379TIP3    H179552   0.799   4.924   4.702  3.4480 -1.7041  1.0648
19379TIP3    H279553   0.760   4.807   4.789 -1.5774 -0.6381  0.4044
19380TIP3   OH279554   4.156   4.067  10.437  0.1766 -0.4160 -0.1775
19380TIP3    H179555   4.102   4.132  10.482  0.3402 -0.8774  0.7065
19380TIP3    H279556   4.237   4.113  10.415 -0.7826  0.4457 -2.0242
19381TIP3   OH279557   6.471   6.725   5.790  0.3279  0.1797 -0.1242
19381TIP3    H179558   6.477   6.673   5.710  0.4151 -0.1997  0.1267
19381TIP3    H279559   6.473   6.816   5.760  0.1367  0.0372 -0.5655
19382TIP3   OH279560   3.701   4.950   4.819  0.0319  0.3114  0.4854
19382TIP3    H179561   3.619   4.956   4.771 -0.1335  3.0658  1.0355
19382TIP3    H279562   3.767   4.985   4.759  0.1993  1.5384  1.3637
19383TIP3   OH279563   1.081   2.970  13.753  0.2318 -0.2087 -0.2926
19383TIP3    H179564   1.164   2.952  13.710 -0.3802 -1.4160 -0.9976
19383TIP3    H279565   1.059   3.060  13.727 -0.0875 -0.8917 -2.4660
19384TIP3   OH279566   4.367   2.244   0.023  0.0310  0.5639  0.1141
19384TIP3    H179567   4.345   2.336   0.041 -0.3063  0.3673  0.7400
19384TIP3    H279568   4.299   2.215  -0.039  0.0637  0.7011  0.0138
19385TIP3   OH279569   5.634   0.834   1.699  0.3630  0.3134 -0.3689
19385TIP3    H179570   5.728   0.847   1.703  0.3244  0.4447  0.1397
19385TIP3    H279571   5.603   0.855   1.787  0.3064 -3.4502  0.5793
19386TIP3   OH279572   5.275   3.825   3.191  0.2399  0.4226 -0.3706
19386TIP3    H179573   5.301   3.874   3.269 -2.3033 -0.4531  1.0932
19386TIP3    H279574   5.196   3.870   3.161 -0.2482 -0.7979 -0.9171
19387TIP3   OH279575   1.746   5.782   1.153 -0.6304  0.2198 -0.1247
19387TIP3    H179576   1.663   5.741   1.128 -1.1775  1.7094 -0.8248
19387TIP3    H279577   1.721   5.848   1.218  0.5772 -2.4255  3.1405
19388TIP3   OH279578   5.089   6.302  15.806 -0.0384  0.0354  0.0927
19388TIP3    H179579   5.121   6.386  15.773 -0.9498 -0.1059 -1.1492
19388TIP3    H279580   4.994   6.307  15.797 -0.0059 -1.6879 -1.3234
19389TIP3   OH279581   2.832   5.721  11.835 -0.2754 -0.7878  0.0205
19389TIP3    H179582   2.796   5.639  11.802  0.0023 -0.3622 -1.3990
19389TIP3    H279583   2.903   5.742  11.774 -0.2435  0.4229  0.4563
19390TIP3   OH279584   2.335   5.065  17.165 -0.3713  0.3947 -0.7047
19390TIP3    H179585   2.356   5.007  17.091 -0.2374  0.6516 -0.8640
19390TIP3    H279586   2.239   5.069  17.165 -0.3322  2.2603 -2.3095
19391TIP3   OH279587   2.648   3.556  12.324 -0.6499 -0.7480 -0.4143
19391TIP3    H179588   2.642   3.461  12.328  0.8279 -0.8635 -0.5147
19391TIP3    H279589   2.669   3.575  12.232  2.0407 -0.5595  0.1744
19392TIP3   OH279590   4.355   2.685   3.360 -0.5838 -0.0324  0.4428
19392TIP3    H179591   4.404   2.707   3.439  1.7052 -0.4028 -0.7982
19392TIP3    H279592   4.393   2.601   3.332 -1.1686  0.2288 -1.1703
19393TIP3   OH279593   3.253   0.732   4.271 -0.2100 -0.5347 -0.0235
19393TIP3    H179594   3.248   0.692   4.357 -2.9650  1.6128  0.8785
19393TIP3    H279595   3.282   0.822   4.287 -2.3700  0.3956 -1.1373
19394TIP3   OH279596   3.954   6.410  13.802 -0.2631 -0.0834  0.1399
19394TIP3    H179597   3.959   6.328  13.751  0.4280  1.5262 -2.4999
19394TIP3    H279598   3.865   6.442  13.785 -0.1081  0.3379  0.1316
19395TIP3   OH279599   0.938   3.769  15.728 -0.0070  0.1457  0.3705
19395TIP3    H179600   0.966   3.677  15.725  0.8397  0.4023  0.3753
19395TIP3    H279601   0.873   3.771  15.799  2.1957  0.1354  2.4667
19396TIP3   OH279602   5.718   5.154  11.590 -0.1234 -0.0449  0.0845
19396TIP3    H179603   5.643   5.100  11.616  0.4646 -0.7060  0.4342
19396TIP3    H279604   5.729   5.135  11.496 -0.0842 -0.3302  0.1459
19397TIP3   OH279605   5.694   0.601   6.006  0.2046 -0.1860 -1.2195
19397TIP3    H179606   5.756   0.646   5.949 -0.9717  1.7439 -1.0332
19397TIP3    H279607   5.744   0.529   6.043  2.4301  1.4857 -0.8356
19398TIP3   OH279608   5.823   0.520  12.189  0.1387 -0.1116 -0.0890
19398TIP3    H179609   5.917   0.516  12.172  0.2475 -0.6176  0.5847
19398TIP3    H279610   5.816   0.522  12.285 -0.5536 -0.7955 -0.1157
19399TIP3   OH279611   5.674   2.697   2.478  0.1473 -0.7281 -0.6870
19399TIP3    H179612   5.650   2.783   2.511  1.5048 -0.1579 -1.1908
19399TIP3    H279613   5.598   2.670   2.427 -0.0143  0.4578 -1.0865
19400TIP3   OH279614   0.213   6.467  12.151  0.3120  0.0072  0.2113
19400TIP3    H179615   0.264   6.420  12.216 -2.1058 -2.6078  0.3097
19400TIP3    H279616   0.228   6.419  12.069 -1.5041 -0.4941  0.1387
19401TIP3   OH279617   2.493   5.590  17.095  0.2144  0.1110 -0.0079
19401TIP3    H179618   2.401   5.584  17.120 -0.8906  2.6139 -3.0439
19401TIP3    H279619   2.514   5.504  17.059 -1.0022 -0.4149  0.5280
19402TIP3   OH279620   0.550   6.635   2.743  0.2951  0.3104  0.3442
19402TIP3    H179621   0.526   6.562   2.686  1.0105 -0.9139  1.5709
19402TIP3    H279622   0.514   6.712   2.700  1.8060 -0.4215 -2.3667
19403TIP3   OH279623   0.344   1.313   1.979 -0.3265 -0.1548 -0.1433
19403TIP3    H179624   0.365   1.399   2.015  1.0014 -0.0087 -1.2176
19403TIP3    H279625   0.248   1.310   1.977 -0.4027  0.5566  1.6136
19404TIP3   OH279626   0.908   4.541  13.956  0.1026 -0.2080 -0.2812
19404TIP3    H179627   0.928   4.457  13.997  0.7619 -1.0791 -2.3359
19404TIP3    H279628   0.979   4.555  13.894 -0.0759  1.8133 -0.0613
19405TIP3   OH279629   3.752   1.636   3.194  0.3585 -0.1028  0.4256
19405TIP3    H179630   3.803   1.704   3.150  0.7072  1.1491  2.6636
19405TIP3    H279631   3.723   1.677   3.276 -0.6472 -2.1962  1.1673
19406TIP3   OH279632   6.745   6.586  14.138  0.2528  0.6245  0.1889
19406TIP3    H179633   6.753   6.680  14.120 -0.4570  0.9715  1.6410
19406TIP3    H279634   6.835   6.557  14.152  0.3594  1.3576  1.0511
19407TIP3   OH279635   1.229   3.353  12.635  1.0299  0.3123 -0.2318
19407TIP3    H179636   1.197   3.330  12.723 -0.7647  1.2082 -0.6296
19407TIP3    H279637   1.290   3.425  12.651 -0.3593  1.4428  0.2029
19408TIP3   OH279638   4.169   0.988  17.008  0.1086  0.4390  0.2988
19408TIP3    H179639   4.088   0.941  16.988  0.9868 -0.5888 -0.9034
19408TIP3    H279640   4.184   1.045  16.933  0.6596  0.3960  0.3722
19409TIP3   OH279641   1.735   5.331  11.139 -0.0003 -0.3055  0.3927
19409TIP3    H179642   1.692   5.359  11.058  1.5883  1.2261  0.0385
19409TIP3    H279643   1.673   5.270  11.179 -1.3900 -0.0696 -1.3145
19410TIP3   OH279644   2.915   4.981  15.229 -0.3359  0.0504 -0.3356
19410TIP3    H179645   2.972   5.056  15.245  0.8046 -0.5729 -1.3808
19410TIP3    H279646   2.855   4.980  15.303 -0.5571  2.1680 -0.4505
19411TIP3   OH279647   6.138   4.376  14.372  0.1068  0.7971  0.5648
19411TIP3    H179648   6.137   4.299  14.316  1.4089  0.8555  0.4474
19411TIP3    H279649   6.052   4.376  14.415 -0.5161  0.2037 -0.6681
19412TIP3   OH279650   6.236   3.549  13.345 -0.4937  0.2852 -0.0996
19412TIP3    H179651   6.276   3.633  13.368  0.3323 -0.5041  1.4152
19412TIP3    H279652   6.224   3.504  13.429 -5.4267  0.8304 -0.3684
19413TIP3   OH279653   0.222   1.656  17.020  0.0600  0.0787  0.5067
19413TIP3    H179654   0.227   1.730  17.080 -0.8695  0.6082 -0.0474
19413TIP3    H279655   0.293   1.598  17.047  0.2086  0.7258  1.5420
19414TIP3   OH279656   1.072   2.275   0.315 -0.1640  0.5556 -0.5820
19414TIP3    H179657   1.070   2.368   0.339  1.4670  0.4663 -0.0390
19414TIP3    H279658   0.980   2.252   0.299 -0.3586  2.8511 -3.0756
19415TIP3   OH279659   4.766   0.491   5.383  0.1514 -0.1590 -0.4676
19415TIP3    H179660   4.731   0.444   5.307 -0.0737  0.1100 -0.5321
19415TIP3    H279661   4.697   0.552   5.407  0.2710 -0.1629 -0.1173
19416TIP3   OH279662   5.428   5.486   3.123  0.0571 -0.4921 -0.1012
19416TIP3    H179663   5.381   5.542   3.186  2.8811  0.4893  1.2597
19416TIP3    H279664   5.439   5.541   3.046  1.5472  0.3638  0.6961
19417TIP3   OH279665   3.593   2.651  12.441  0.0160 -0.0540  0.5362
19417TIP3    H179666   3.629   2.586  12.381  3.4036 -0.2092  2.6095
19417TIP3    H279667   3.538   2.600  12.501  0.0822 -0.5292  0.1926
19418TIP3   OH279668   2.992   4.487  11.805 -0.1113 -0.0691  0.5363
19418TIP3    H179669   3.043   4.407  11.805  0.0150  0.0101  0.5628
19418TIP3    H279670   2.951   4.489  11.892  0.3363  0.1760  0.7470
19419TIP3   OH279671   6.347   3.328   3.823 -0.4793  0.1265 -0.3935
19419TIP3    H179672   6.344   3.387   3.898  1.7694 -0.2290  0.0278
19419TIP3    H279673   6.411   3.368   3.764 -0.2663 -0.9499 -0.9043
19420TIP3   OH279674   2.247   0.275  12.615  0.1956  0.6219 -0.3511
19420TIP3    H179675   2.152   0.286  12.618  0.2622  1.0664  0.2732
19420TIP3    H279676   2.272   0.261  12.707  0.8118  1.1787 -0.4346
19421TIP3   OH279677   6.111   3.215  10.842  0.0977  0.3731  0.5855
19421TIP3    H179678   6.176   3.162  10.796  1.1100  0.2251  2.1414
19421TIP3    H279679   6.056   3.251  10.773 -1.0087 -3.1754 -0.4597
19422TIP3   OH279680   3.486   2.870   3.996 -1.0495 -0.0439 -0.7626
19422TIP3    H179681   3.458   2.961   4.012 -0.6103 -0.3889  2.0981
19422TIP3    H279682   3.435   2.844   3.919 -1.6608  2.4093 -1.2556
19423TIP3   OH279683   6.310   3.175  16.634 -0.1452 -0.0399  0.5498
19423TIP3    H179684   6.318   3.108  16.566  0.0027  1.0562 -0.5201
19423TIP3    H279685   6.387   3.231  16.623 -0.4974  0.5768  1.1497
19424TIP3   OH279686   2.298   5.224   4.992 -0.7450  0.1349  0.5925
19424TIP3    H179687   2.231   5.246   4.927 -2.3733 -1.6183  1.6216
19424TIP3    H279688   2.334   5.309   5.018 -2.8587  1.1786  0.3089
19425TIP3   OH279689   5.710   2.171  12.014  0.0176  0.1134  0.2891
19425TIP3    H179690   5.650   2.227  11.965 -0.0584 -0.4901 -0.3191
19425TIP3    H279691   5.737   2.223  12.090 -0.5846  0.7085  0.0883
19426TIP3   OH279692   6.147   3.930   3.978  0.1712 -0.6173  0.1301
19426TIP3    H179693   6.053   3.911   3.985 -0.0456 -0.0639 -1.1175
19426TIP3    H279694   6.180   3.922   4.068 -1.1116 -0.5975  0.6162
19427TIP3   OH279695   5.633   6.754   4.189 -0.0552  0.3975 -0.5369
19427TIP3    H179696   5.607   6.833   4.238 -0.2666 -0.4957  0.8164
19427TIP3    H279697   5.550   6.716   4.160  0.1051  1.5197 -2.6118
19428TIP3   OH279698   0.569   2.280   5.190 -0.1995  0.0382 -0.0402
19428TIP3    H179699   0.658   2.244   5.190 -0.4084 -0.4853  0.5525
19428TIP3    H279700   0.528   2.243   5.112 -0.1641 -0.3876  0.1441
19429TIP3   OH279701   0.777   4.445   5.541 -0.0141  1.0903  0.3308
19429TIP3    H179702   0.706   4.425   5.602 -0.6247  2.6607  0.1439
19429TIP3    H279703   0.733   4.473   5.461  0.8119  2.7869  0.4557
19430TIP3   OH279704   2.308   6.747  14.429 -0.0120  0.3891  0.0173
19430TIP3    H179705   2.280   6.739  14.520  0.8081 -0.8691  0.1647
19430TIP3    H279706   2.403   6.759  14.434  0.0672  0.0734 -0.6780
19431TIP3   OH279707   2.359   3.095  12.406  0.4188  0.4353  0.1234
19431TIP3    H179708   2.348   3.159  12.477 -0.7863  1.4045 -0.9065
19431TIP3    H279709   2.281   3.107  12.351  0.8404 -1.0067 -0.8100
19432TIP3   OH279710   4.525   0.182   1.223  0.0068  0.2106 -0.1175
19432TIP3    H179711   4.480   0.099   1.240  0.9820 -0.3911 -0.4189
19432TIP3    H279712   4.461   0.249   1.244  0.1066 -0.5697  2.8558
19433TIP3   OH279713   0.539   2.345   0.227  0.1581 -0.1908  0.4996
19433TIP3    H179714   0.457   2.356   0.178  0.4735 -0.0934 -0.0191
19433TIP3    H279715   0.520   2.275   0.289 -0.0318 -0.8518 -0.2815
19434TIP3   OH279716   5.319   6.328   3.674  0.0751 -0.8246 -0.2318
19434TIP3    H179717   5.336   6.393   3.742 -0.3053 -0.2659 -0.6717
19434TIP3    H279718   5.389   6.341   3.610 -0.9934  0.3114 -1.1779
19435TIP3   OH279719   0.895   1.581  16.151  0.0511  0.8586 -0.3062
19435TIP3    H179720   0.969   1.551  16.203 -0.5763 -1.4105 -0.6509
19435TIP3    H279721   0.930   1.587  16.062 -0.0275  0.2519 -0.3859
19436TIP3   OH279722   3.817   5.389   2.405  0.0743 -0.5888 -0.0186
19436TIP3    H179723   3.859   5.308   2.376 -2.2957 -1.8274 -0.1138
19436TIP3    H279724   3.809   5.380   2.500 -1.1051 -0.9177 -0.1459
19437TIP3   OH279725   3.044   0.041   3.293 -0.3148 -0.5726  0.4300
19437TIP3    H179726   3.121  -0.004   3.326 -0.4701 -2.0293 -1.1394
19437TIP3    H279727   3.068   0.134   3.293  0.7752 -0.8478  1.6524
19438TIP3   OH279728   6.149   2.147   1.873  0.0746  0.2246  0.1601
19438TIP3    H179729   6.152   2.202   1.952  0.5074  1.2975 -0.5990
19438TIP3    H279730   6.240   2.144   1.843 -0.2574  0.6712 -0.8883
19439TIP3   OH279731   2.769   0.912   5.863 -0.4176  0.2304  0.3998
19439TIP3    H179732   2.764   0.817   5.876  1.0135  0.1216  0.1703
19439TIP3    H279733   2.701   0.947   5.921 -0.7965 -0.9065  0.6712
19440TIP3   OH279734   2.649   2.418  12.950 -0.0113  0.0681 -0.0046
19440TIP3    H179735   2.692   2.400  12.866 -0.1124  0.1931 -0.0830
19440TIP3    H279736   2.677   2.346  13.007 -0.9055 -0.6850 -0.5034
19441TIP3   OH279737   2.293   6.001  13.597  0.1275 -0.2579  0.1601
19441TIP3    H179738   2.334   6.060  13.534  0.3758  1.2144  1.6638
19441TIP3    H279739   2.315   5.913  13.566  0.8689  0.4562 -1.3787
19442TIP3   OH279740   0.989   1.244   5.322  0.1806 -0.3058 -0.3575
19442TIP3    H179741   0.905   1.201   5.312  0.7174 -1.6322  0.8166
19442TIP3    H279742   1.024   1.213   5.405  0.2627  2.9349  0.9152
19443TIP3   OH279743   3.682   2.421   4.031  0.0287 -0.0055  0.3929
19443TIP3    H179744   3.587   2.433   4.030 -0.0044 -0.2518 -1.9693
19443TIP3    H279745   3.713   2.480   4.099 -1.7851  0.3726  0.9176
19444TIP3   OH279746   5.477   4.890   0.568 -0.2514 -0.0120 -0.4361
19444TIP3    H179747   5.407   4.863   0.508 -2.8119 -0.5774  2.6703
19444TIP3    H279748   5.451   4.976   0.600  0.9686  0.1898  0.0666
19445TIP3   OH279749   6.594   3.383  16.609  0.0525 -0.5577  0.8623
19445TIP3    H179750   6.668   3.444  16.612 -0.0070 -0.4872  0.8806
19445TIP3    H279751   6.582   3.365  16.516  0.5607 -1.1365  0.9029
19446TIP3   OH279752   5.912   4.564   3.132 -0.3584 -0.6301  0.1121
19446TIP3    H179753   5.877   4.543   3.045  0.6103 -0.6970 -0.2755
19446TIP3    H279754   5.848   4.528   3.193 -0.7808 -1.0633 -0.5714
19447TIP3   OH279755   5.990   0.717   6.144  0.0452 -0.3206 -1.2218
19447TIP3    H179756   6.020   0.717   6.053  0.3555  0.7649 -1.1281
19447TIP3    H279757   5.949   0.802   6.156  1.9261  0.4024  0.2680
19448TIP3   OH279758   3.203   1.517   6.350 -0.3968 -0.1532  0.6000
19448TIP3    H179759   3.162   1.571   6.417 -1.4548 -0.1178 -0.0643
19448TIP3    H279760   3.254   1.578   6.296  0.5589 -0.2007  1.4344
19449TIP3   OH279761   5.137   1.791  13.865  0.1650 -0.2345  0.4073
19449TIP3    H179762   5.155   1.880  13.834 -2.5090  1.1334  2.6774
19449TIP3    H279763   5.145   1.737  13.786  0.8860  2.1177 -1.1962
19450TIP3   OH279764   5.262   5.423   1.560  0.1736  0.0065  0.4598
19450TIP3    H179765   5.203   5.368   1.612  1.1370 -0.1013  1.4523
19450TIP3    H279766   5.252   5.510   1.599  1.2455 -0.1666  1.1378
19451TIP3   OH279767   3.505   5.133  15.169  0.5133 -0.1709 -0.8332
19451TIP3    H179768   3.531   5.041  15.166  0.6973 -0.0867 -2.5356
19451TIP3    H279769   3.551   5.173  15.095  0.4028  1.2796 -0.1301
19452TIP3   OH279770   2.331   6.108  12.053 -0.7668  0.0727  0.4062
19452TIP3    H179771   2.362   6.084  12.140  0.3408  0.0412  0.0114
19452TIP3    H279772   2.407   6.146  12.010 -0.8596 -1.4476 -1.1353
19453TIP3   OH279773   0.225   5.080   5.100 -0.5107 -0.8399  0.2323
19453TIP3    H179774   0.194   5.001   5.056 -1.1378 -0.6812  0.3878
19453TIP3    H279775   0.145   5.124   5.131 -0.2574  0.4624 -0.9053
19454TIP3   OH279776   4.948   2.533   5.508 -0.0827  0.0678  0.1565
19454TIP3    H179777   5.040   2.514   5.525 -0.0321 -0.7571 -1.0026
19454TIP3    H279778   4.943   2.540   5.413 -0.7554  2.5017  0.3388
19455TIP3   OH279779   0.281   2.183   2.867  0.5927 -0.0691 -0.0289
19455TIP3    H179780   0.289   2.229   2.950  1.1657 -1.7880  0.8847
19455TIP3    H279781   0.189   2.157   2.862  0.2451  1.2575 -0.5983
19456TIP3   OH279782   5.280   0.904   0.812  0.7116 -0.4755 -0.3075
19456TIP3    H179783   5.334   0.899   0.733  0.8495 -1.8893 -0.1297
19456TIP3    H279784   5.342   0.925   0.882  0.2574  3.3670 -0.9061
19457TIP3   OH279785   3.723   3.631   5.482  1.2626  0.2256  0.2308
19457TIP3    H179786   3.653   3.612   5.545 -0.1337  1.1262 -1.0440
19457TIP3    H279787   3.783   3.556   5.490 -0.3091 -1.0004  0.6524
19458TIP3   OH279788   2.185   4.554   0.489  0.0619  0.0727  0.9864
19458TIP3    H179789   2.157   4.465   0.512  1.3239 -0.7762 -0.6480
19458TIP3    H279790   2.276   4.544   0.462 -0.6766  1.3300 -2.2078
19459TIP3   OH279791   0.902   5.567  14.981  0.7057  0.2170  0.0507
19459TIP3    H179792   0.913   5.583  15.075  0.7672 -2.1406  0.4818
19459TIP3    H279793   0.991   5.568  14.946  0.7418  0.3367  0.1448
19460TIP3   OH279794   6.295   5.572  12.632 -0.4272  0.1117 -0.4595
19460TIP3    H179795   6.240   5.625  12.691 -0.9429 -0.8428 -0.0740
19460TIP3    H279796   6.243   5.564  12.552 -1.3984 -1.7901  0.3244
19461TIP3   OH279797   2.688   6.427  14.470 -0.0840  0.5503 -0.4289
19461TIP3    H179798   2.660   6.377  14.547 -1.3328  0.7754 -0.7167
19461TIP3    H279799   2.620   6.408  14.404 -0.4170  2.3866 -0.6420
19462TIP3   OH279800   0.807   1.076  12.263  0.8540 -0.1049 -0.2473
19462TIP3    H179801   0.774   1.144  12.204 -0.0354 -0.8972 -0.6966
19462TIP3    H279802   0.824   1.001  12.205  2.6520  0.0148  0.1170
19463TIP3   OH279803   3.721   0.905  14.305 -0.3184 -0.6584  0.3442
19463TIP3    H179804   3.686   0.842  14.367 -1.7740  0.8526  1.1010
19463TIP3    H279805   3.648   0.963  14.286  0.2314 -0.7991 -2.4277
19464TIP3   OH279806   6.567   3.913  10.352 -0.5848  0.2469 -0.1145
19464TIP3    H179807   6.650   3.898  10.306 -1.8503 -0.3790 -2.2798
19464TIP3    H279808   6.514   3.963  10.289 -2.2027 -0.2323  0.8513
19465TIP3   OH279809   3.502   6.144  14.035 -0.0480 -0.5207  0.0636
19465TIP3    H179810   3.429   6.206  14.036  0.0030 -0.3510 -2.5864
19465TIP3    H279811   3.564   6.179  14.099 -0.1651  2.0079 -1.1430
19466TIP3   OH279812   4.971   5.622  15.478 -0.4437  0.0776 -0.0138
19466TIP3    H179813   4.941   5.578  15.557 -0.6460 -0.1307 -0.2068
19466TIP3    H279814   5.027   5.693  15.510  0.8282 -1.0296  0.2711
19467TIP3   OH279815   4.266   2.990   1.479  0.1183 -0.1437  0.0740
19467TIP3    H179816   4.317   2.912   1.454 -0.0277 -0.4683  0.7957
19467TIP3    H279817   4.279   3.050   1.406  0.4502 -0.7422 -0.3717
19468TIP3   OH279818   2.229   4.323  15.900  0.3180  0.5589 -0.1323
19468TIP3    H179819   2.171   4.385  15.946  0.6946  0.4041  0.5628
19468TIP3    H279820   2.197   4.323  15.810 -2.0953 -1.0758  0.6683
19469TIP3   OH279821   4.548   2.043   3.086 -0.8577 -0.9529 -0.1330
19469TIP3    H179822   4.581   1.991   3.013  2.8440 -0.9122  1.3725
19469TIP3    H279823   4.516   1.979   3.149 -1.5004 -1.1325 -0.6455
19470TIP3   OH279824   1.426   4.647  13.762  0.0766 -0.1791 -0.0529
19470TIP3    H179825   1.419   4.653  13.667 -0.8458  0.0410  0.0321
19470TIP3    H279826   1.514   4.682  13.780 -0.0991  0.6688 -0.7465
19471TIP3   OH279827   0.819   0.128   2.135  0.2760  0.5526 -0.1759
19471TIP3    H179828   0.805   0.048   2.084  1.2191  0.1562  0.1647
19471TIP3    H279829   0.749   0.186   2.108 -0.1874 -0.2465 -0.7315
19472TIP3   OH279830   2.633   3.480  16.326  0.0834  0.4223 -0.1976
19472TIP3    H179831   2.549   3.490  16.281 -0.2650  3.2394  0.9814
19472TIP3    H279832   2.696   3.524  16.268  0.4674 -0.2589 -0.2969
19473TIP3   OH279833   5.777   2.732  13.917 -0.0891  0.3831 -0.2890
19473TIP3    H179834   5.778   2.667  13.988  1.0189  1.2140  0.4901
19473TIP3    H279835   5.806   2.813  13.960  1.6392  0.6532 -1.9308
19474TIP3   OH279836   1.099   2.446  15.525 -0.5347 -0.1839  0.2663
19474TIP3    H179837   1.007   2.474  15.533 -0.0227  1.1961  1.6670
19474TIP3    H279838   1.120   2.410  15.611  0.1477 -0.7756 -0.1529
19475TIP3   OH279839   3.409   6.446   0.011  0.1026 -0.0886  0.6038
19475TIP3    H179840   3.467   6.473   0.082 -0.4675  1.7948  0.3765
19475TIP3    H279841   3.424   6.510  -0.058  0.2114 -1.5533 -0.7748
19476TIP3   OH279842   1.175   5.821  11.743  0.5214  0.1651 -0.2926
19476TIP3    H179843   1.135   5.803  11.828 -1.7837  0.0405 -1.3689
19476TIP3    H279844   1.206   5.736  11.712 -0.5861 -0.1452 -0.5472
19477TIP3   OH279845   5.783   6.107  12.239 -0.3071  0.3275  0.0497
19477TIP3    H179846   5.787   6.168  12.313 -0.4962 -2.0561  2.0866
19477TIP3    H279847   5.867   6.116  12.195  0.6870  0.1902  1.8952
19478TIP3   OH279848   2.231   4.140   3.054 -0.1660  0.2717  0.6219
19478TIP3    H179849   2.282   4.069   3.093 -0.6610 -0.9091 -0.8106
19478TIP3    H279850   2.242   4.127   2.959 -0.7506  1.7525  0.3428
19479TIP3   OH279851   4.599   1.302   4.679 -0.1317 -0.2334  0.0192
19479TIP3    H179852   4.612   1.243   4.605 -0.7488 -0.6879  0.2660
19479TIP3    H279853   4.669   1.280   4.740  0.9652  0.8046 -0.8378
19480TIP3   OH279854   2.099   4.822  11.703  0.3655  1.0731 -0.2630
19480TIP3    H179855   2.137   4.785  11.782  0.8113  0.4876 -0.7419
19480TIP3    H279856   2.070   4.910  11.728  0.9769  1.0850  0.4004
19481TIP3   OH279857   4.489   5.178  15.083 -0.4586 -0.4183  0.1776
19481TIP3    H179858   4.521   5.115  15.018  0.1289  0.8663 -0.7998
19481TIP3    H279859   4.564   5.193  15.141 -1.2713 -2.3001  1.7667
19482TIP3   OH279860   2.124   1.504  16.929 -0.5964 -0.1168  0.3805
19482TIP3    H179861   2.089   1.513  17.018 -1.8199 -0.1893 -0.0801
19482TIP3    H279862   2.070   1.436  16.889  1.6358 -1.9338  0.3953
19483TIP3   OH279863   5.958   2.369  12.065 -0.4216 -0.3446 -0.4537
19483TIP3    H179864   5.898   2.340  12.134  1.3752 -1.0732  0.8374
19483TIP3    H279865   6.020   2.426  12.110 -0.1626  0.4444 -1.7789
19484TIP3   OH279866   2.750   1.179   4.684  0.3883  0.4073 -0.2782
19484TIP3    H179867   2.768   1.104   4.627  2.3252  0.6359 -0.0178
19484TIP3    H279868   2.758   1.255   4.626  0.6747  0.5427 -0.0606
19485TIP3   OH279869   5.162   1.531  11.765 -0.0784  0.3758  0.3403
19485TIP3    H179870   5.135   1.440  11.753  2.5882 -0.4406  0.1117
19485TIP3    H279871   5.087   1.574  11.804 -1.7784 -1.6721 -0.5855
19486TIP3   OH279872   2.293   2.069  17.077 -0.4352  0.0144  0.2348
19486TIP3    H179873   2.324   1.979  17.092  0.1747 -0.3817 -3.0429
19486TIP3    H279874   2.347   2.122  17.136  2.5467 -1.3108 -1.1520
19487TIP3   OH279875   3.424   0.444  10.535 -0.3782 -0.1194 -0.1848
19487TIP3    H179876   3.493   0.396  10.490  0.2729  0.5127  0.1226
19487TIP3    H279877   3.371   0.483  10.465  0.0467  0.0493 -0.4134
19488TIP3   OH279878   1.204   0.183  14.003  0.0306  0.0102 -0.0542
19488TIP3    H179879   1.195   0.177  13.908 -0.5004 -0.7583  0.0392
19488TIP3    H279880   1.237   0.272  14.018 -0.6070  0.4034 -0.9010
19489TIP3   OH279881   5.335   6.119  15.378  0.1030 -0.2963  0.7031
19489TIP3    H179882   5.337   6.210  15.349 -0.5928 -0.9893 -1.6304
19489TIP3    H279883   5.242   6.097  15.385  0.2591 -1.1767  0.1233
19490TIP3   OH279884   6.688   6.619   1.061  0.0371  0.2001  0.0852
19490TIP3    H179885   6.626   6.668   1.007 -0.1544  0.1678  0.2730
19490TIP3    H279886   6.701   6.536   1.015  1.0684  0.7936 -0.7054
19491TIP3   OH279887   1.084   5.619   5.098  0.0405 -0.1209 -0.2522
19491TIP3    H179888   1.091   5.543   5.157 -0.5282  0.0938  0.0906
19491TIP3    H279889   1.004   5.663   5.125  0.4369  0.6747 -0.3776
19492TIP3   OH279890   5.374   0.521  15.786 -0.3834 -0.3084  0.3929
19492TIP3    H179891   5.448   0.462  15.773  0.1291  0.5286 -0.5385
19492TIP3    H279892   5.406   0.585  15.849 -1.2569 -1.5541  2.1427
19493TIP3   OH279893   3.266   6.541  14.633  1.1473 -0.3431  0.0671
19493TIP3    H179894   3.359   6.528  14.616  0.5796 -2.4276 -1.7081
19493TIP3    H279895   3.226   6.545  14.546 -0.4868 -0.0402  0.8102
19494TIP3   OH279896   0.274   1.809   4.377 -0.4174  0.1586 -0.0390
19494TIP3    H179897   0.182   1.816   4.352 -0.1388 -1.0617 -1.4836
19494TIP3    H279898   0.295   1.716   4.366  1.2717  0.6070 -0.7621
19495TIP3   OH279899   0.983   0.289  11.547 -0.1856 -0.2631  0.1359
19495TIP3    H179900   0.945   0.220  11.492  1.4941 -0.4288 -0.8393
19495TIP3    H279901   1.051   0.246  11.598 -1.3496  0.0129  1.9753
19496TIP3   OH279902   5.866   4.772   2.554  0.1306 -0.1137  0.3570
19496TIP3    H179903   5.907   4.832   2.616 -0.2542 -0.6451  1.1231
19496TIP3    H279904   5.799   4.727   2.604  0.0885 -0.8439 -0.3459
19497TIP3   OH279905   0.199   4.806  10.658 -0.6293  0.3428  0.3905
19497TIP3    H179906   0.241   4.848  10.733 -0.2872  2.1093 -0.7439
19497TIP3    H279907   0.266   4.748  10.623  0.0910  1.3789  0.0039
19498TIP3   OH279908   4.007   3.263  17.056  0.0242  0.5119  0.4711
19498TIP3    H179909   4.023   3.204  17.129  0.9474 -1.5279 -1.3220
19498TIP3    H279910   3.965   3.339  17.095  0.3714 -0.5946  3.0885
19499TIP3   OH279911   4.999   0.717  14.143 -0.3474 -0.2074 -0.5303
19499TIP3    H179912   5.056   0.664  14.088  0.7630  1.1794 -0.7335
19499TIP3    H279913   4.951   0.772  14.081 -0.0776  0.3976 -0.2047
19500TIP3   OH279914   5.645   1.886   3.806  0.6582 -0.2239 -0.6802
19500TIP3    H179915   5.604   1.926   3.729  1.5132 -0.5275 -1.3035
19500TIP3    H279916   5.656   1.959   3.867  0.2634  0.0850 -0.9683
19501TIP3   OH279917   6.022   4.618   1.384  0.5221 -0.3741 -0.4441
19501TIP3    H179918   6.093   4.574   1.432 -0.8466 -0.7524  1.2942
19501TIP3    H279919   5.966   4.547   1.354  1.0509 -0.0954 -2.1243
19502TIP3   OH279920   0.728   0.563  17.155  0.3366 -0.1219  0.1539
19502TIP3    H179921   0.807   0.517  17.126  0.9403  0.7466  0.3915
19502TIP3    H279922   0.676   0.496  17.199  1.7044 -0.3463  1.4548
19503TIP3   OH279923   5.854   4.435   1.005  0.0762  0.0711 -0.1559
19503TIP3    H179924   5.855   4.528   1.024  0.8582  0.0875 -0.2786
19503TIP3    H279925   5.820   4.394   1.085 -0.5414  0.4801 -0.2072
19504TIP3   OH279926   4.639   0.100   5.491 -0.3911  0.0635  0.3904
19504TIP3    H179927   4.578   0.141   5.553 -0.7114 -1.0132  0.7962
19504TIP3    H279928   4.598   0.111   5.406 -0.7498  0.0922  0.5643
19505TIP3   OH279929   3.968   3.505   5.882  0.1457 -0.2183  0.2325
19505TIP3    H179930   3.898   3.560   5.847 -0.8654 -1.0132  1.0026
19505TIP3    H279931   4.038   3.511   5.817 -1.1447 -0.5012 -1.1836
19506TIP3   OH279932   6.211   5.881   1.980  0.0283 -0.6262 -0.4512
19506TIP3    H179933   6.269   5.937   2.032 -0.8606 -1.1344  1.1245
19506TIP3    H279934   6.123   5.916   1.996 -0.1448 -0.0597 -2.5657
19507TIP3   OH279935   6.171   2.546   4.706 -0.1770  0.4659  0.2279
19507TIP3    H179936   6.260   2.581   4.697  1.0190 -2.3699  0.3144
19507TIP3    H279937   6.123   2.584   4.632  1.5878  0.6864 -0.8365
19508TIP3   OH279938   2.155   1.803   3.201 -0.7229 -0.0964  0.1998
19508TIP3    H179939   2.153   1.781   3.295  0.1707  1.2063  0.5311
19508TIP3    H279940   2.204   1.885   3.197  1.6947 -1.5968 -1.7294
19509TIP3   OH279941   1.229   0.489  12.483  0.2816  0.1593 -0.3596
19509TIP3    H179942   1.149   0.483  12.534  1.3807 -1.7936  1.1656
19509TIP3    H279943   1.223   0.417  12.420  0.6921  0.2334 -0.4843
19510TIP3   OH279944   3.024   6.118  14.044 -0.1046 -0.1997  0.9185
19510TIP3    H179945   2.992   6.031  14.018 -0.1409 -0.8955  3.1240
19510TIP3    H279946   3.061   6.104  14.132 -2.7991  2.5990  2.5975
19511TIP3   OH279947   3.962   1.267   5.626  0.0992  0.2535 -0.3488
19511TIP3    H179948   4.005   1.352   5.616  3.1073 -1.1529  0.3395
19511TIP3    H279949   4.011   1.208   5.569 -1.5983 -1.1875 -0.3703
19512TIP3   OH279950   2.600   6.117  12.029 -0.2257 -0.3114 -0.3162
19512TIP3    H179951   2.600   6.157  11.942 -1.6798 -0.0784 -0.2246
19512TIP3    H279952   2.621   6.025  12.014 -0.8278 -0.3436 -0.9536
19513TIP3   OH279953   3.341   6.456  10.914  0.0545 -0.5115  0.1868
19513TIP3    H179954   3.361   6.544  10.882 -0.5893 -0.5662 -0.3758
19513TIP3    H279955   3.343   6.401  10.836  2.2403 -1.3352  0.7943
19514TIP3   OH279956   2.571   5.804   3.132 -0.2110  0.0409 -0.2229
19514TIP3    H179957   2.639   5.869   3.146  0.0731 -0.3548  0.2444
19514TIP3    H279958   2.573   5.787   3.037 -1.4430  1.9612 -0.6192
19515TIP3   OH279959   0.707   4.309  12.659 -0.2489 -0.3308 -0.3750
19515TIP3    H179960   0.770   4.379  12.641 -0.5691  0.1799  0.4434
19515TIP3    H279961   0.656   4.341  12.733 -1.0839 -0.9947 -0.6459
19516TIP3   OH279962   1.182   4.528   1.483  0.3985  0.1265 -0.1294
19516TIP3    H179963   1.229   4.612   1.482  1.3737 -0.4177 -0.4631
19516TIP3    H279964   1.231   4.473   1.543 -1.2240  0.3239  1.4408
19517TIP3   OH279965   4.072   2.293  12.768  0.0660  0.6836  0.0530
19517TIP3    H179966   3.995   2.240  12.750  0.9840 -0.8516  0.5316
19517TIP3    H279967   4.084   2.287  12.863  1.6825 -0.4167 -0.2001
19518TIP3   OH279968   4.075   1.437  16.499  0.7706  0.1609  0.5786
19518TIP3    H179969   4.048   1.399  16.416 -1.8064 -0.4693  1.6528
19518TIP3    H279970   4.068   1.532  16.486  0.8638  0.0759 -0.0715
19519TIP3   OH279971   2.565   5.493   3.755 -0.0938  0.7184  0.0247
19519TIP3    H179972   2.598   5.582   3.771 -1.9735  1.3963  0.3346
19519TIP3    H279973   2.550   5.490   3.661 -1.5199  1.3062  0.2107
19520TIP3   OH279974   0.059   6.674  16.433  0.1860  0.0856  0.2273
19520TIP3    H179975  -0.008   6.739  16.415  1.1266  0.6299 -1.4701
19520TIP3    H279976   0.108   6.666  16.350  1.9450 -0.5903  1.2977
19521TIP3   OH279977   3.121   4.075   0.366  0.8457 -0.0346  0.7561
19521TIP3    H179978   3.035   4.036   0.380  0.7287 -1.0580 -2.4703
19521TIP3    H279979   3.179   4.027   0.426 -0.3150 -1.3068  0.8912
19522TIP3   OH279980   1.292   4.405  11.310  0.0023 -0.3319 -0.0173
19522TIP3    H179981   1.359   4.464  11.275 -0.8950  0.3591 -0.5950
19522TIP3    H279982   1.223   4.405  11.244  0.0825 -2.2147 -0.1229
19523TIP3   OH279983   4.580   6.726   4.686 -0.0598  0.1259  0.3518
19523TIP3    H179984   4.520   6.719   4.760  0.5893 -0.5657  0.8089
19523TIP3    H279985   4.564   6.647   4.634 -0.8322  0.8218 -0.4913
19524TIP3   OH279986   1.411   3.144   3.784 -0.1772  0.0736 -1.3789
19524TIP3    H179987   1.458   3.080   3.732  1.3128 -0.4430  0.5507
19524TIP3    H279988   1.368   3.093   3.852  1.6736  1.1297  0.6580
19525TIP3   OH279989   2.129   6.121  15.339  0.1258 -0.1374  0.3054
19525TIP3    H179990   2.084   6.074  15.269  0.4224 -0.7925  0.5487
19525TIP3    H279991   2.222   6.101  15.326  0.0386 -1.7056  1.9292
19526TIP3   OH279992   6.594   2.241  17.137  0.5832 -0.0175 -0.0189
19526TIP3    H179993   6.644   2.216  17.059  0.2936  2.0969 -0.9296
19526TIP3    H279994   6.661   2.261  17.203  0.8345 -1.4072  0.1589
19527TIP3   OH279995   5.515   1.684  13.503 -0.0337  0.2495 -0.3388
19527TIP3    H179996   5.518   1.622  13.575  0.6186  1.4410  0.6650
19527TIP3    H279997   5.423   1.683  13.474 -0.2740 -0.2885  0.4472
19528TIP3   OH279998   0.003   3.603   1.361 -0.7849 -0.5462  0.1449
19528TIP3    H179999   0.088   3.594   1.404 -1.1978 -2.9359  0.5478
19528TIP3    H280000   0.024   3.634   1.273  0.3201  1.0262  0.9329
19529TIP3   OH280001   5.489   6.649  11.068  0.2198  0.0628 -0.5850
19529TIP3    H180002   5.580   6.678  11.069 -0.5835  2.6662 -0.7135
19529TIP3    H280003   5.462   6.655  10.976 -0.2705 -0.1161 -0.4602
19530TIP3   OH280004   2.801   1.415  11.928 -0.2033 -0.0188  0.0080
19530TIP3    H180005   2.873   1.388  11.984 -0.1749 -0.9204 -0.4491
19530TIP3    H280006   2.815   1.508  11.914  0.6892 -0.1201  0.1852
19531TIP3   OH280007   1.870   4.564   2.596 -0.2858  0.5195  0.4290
19531TIP3    H180008   1.806   4.592   2.662 -0.8602 -0.0634  0.1218
19531TIP3    H280009   1.818   4.543   2.519  0.3326  0.6057 -0.0151
19532TIP3   OH280010   2.299   4.199  16.732  0.3062  0.1717 -0.3626
19532TIP3    H180011   2.298   4.248  16.649  2.6289  1.7352  0.4935
19532TIP3    H280012   2.344   4.118  16.711  1.1945  0.7097 -0.5657
19533TIP3   OH280013   6.750   6.016  16.985  0.5864  0.0504 -0.0586
19533TIP3    H180014   6.735   6.089  16.925 -1.4625 -0.1531  0.1824
19533TIP3    H280015   6.754   6.057  17.072 -0.2343 -0.0780  0.0433
19534TIP3   OH280016   0.774   6.036  12.483 -0.4343 -0.0382 -0.3645
19534TIP3    H180017   0.691   6.071  12.515 -0.6841  0.8796 -1.9846
19534TIP3    H280018   0.753   5.950  12.447 -0.6274  0.0556 -0.4750
19535TIP3   OH280019   1.415   3.716  14.411 -0.7705  0.0655  0.8363
19535TIP3    H180020   1.462   3.688  14.489  1.1613  1.3311  0.1688
19535TIP3    H280021   1.335   3.756  14.444  1.1358  2.7790  2.3549
19536TIP3   OH280022   5.061   1.592   5.317  0.4157 -0.2238 -0.0271
19536TIP3    H180023   5.015   1.607   5.400  0.2309  0.9158 -0.3367
19536TIP3    H280024   5.135   1.536   5.341  0.6813  0.5587  1.0024
19537TIP3   OH280025   4.626   2.784  17.022 -0.1638  0.3751  0.3195
19537TIP3    H180026   4.601   2.876  17.033  1.6616  0.7010  2.0659
19537TIP3    H280027   4.722   2.785  17.027 -0.0247 -1.3812 -1.6768
19538TIP3   OH280028   0.338   6.219  11.701 -0.1951  0.2320  0.5035
19538TIP3    H180029   0.300   6.249  11.618  0.1112  0.4634  0.4425
19538TIP3    H280030   0.399   6.149  11.675 -2.0633 -1.5470  0.7934
19539TIP3   OH280031   2.468   0.050   2.271  0.0907  0.0731 -0.1650
19539TIP3    H180032   2.560   0.054   2.246  0.0720  0.8215 -0.1047
19539TIP3    H280033   2.465  -0.015   2.342  0.8018  1.1702  0.8724
19540TIP3   OH280034   0.435   4.930  12.972  0.4214  0.1919  0.2662
19540TIP3    H180035   0.493   5.001  12.946  2.3112 -0.6502  2.0294
19540TIP3    H280036   0.389   4.963  13.049  2.0154 -0.7806  1.6832
19541TIP3   OH280037   6.166   1.491   4.358 -0.0674 -0.0028 -0.1281
19541TIP3    H180038   6.112   1.458   4.430  1.4931 -0.0174  1.0553
19541TIP3    H280039   6.135   1.580   4.343 -0.2661  0.0750  0.7179
19542TIP3   OH280040   4.618   0.116   0.448  0.4058  0.8913  0.4393
19542TIP3    H180041   4.569   0.196   0.430  1.7276  1.4685 -0.7404
19542TIP3    H280042   4.672   0.103   0.369  0.0993 -1.2461  0.5396
19543TIP3   OH280043   5.569   0.851  14.476  0.3565 -0.8188 -0.3197
19543TIP3    H180044   5.648   0.804  14.502 -0.6066 -2.3144 -0.0035
19543TIP3    H280045   5.569   0.846  14.380  0.3316 -1.3607 -0.2950
19544TIP3   OH280046   2.978   2.244  11.778 -0.5772  0.0743  0.3744
19544TIP3    H180047   2.947   2.154  11.768  0.7386 -0.3070 -0.4197
19544TIP3    H280048   2.916   2.296  11.727 -0.1950 -0.6222 -0.8233
19545TIP3   OH280049   0.413   1.925  11.015  0.3046 -0.7619 -0.3001
19545TIP3    H180050   0.482   1.859  11.015 -1.0488 -2.1980 -0.3342
19545TIP3    H280051   0.422   1.970  11.099  1.8153 -0.3473 -0.6665
19546TIP3   OH280052   3.745   2.235   1.306  0.0460  0.4545 -0.1898
19546TIP3    H180053   3.740   2.283   1.224 -4.1669 -0.0594 -0.3554
19546TIP3    H280054   3.724   2.145   1.282 -2.1312  0.4647  1.5301
19547TIP3   OH280055   0.337   6.463   4.384 -0.4653 -0.0604  0.3365
19547TIP3    H180056   0.309   6.551   4.359 -1.3161 -0.6639 -0.8957
19547TIP3    H280057   0.424   6.454   4.346 -0.4030  0.2370  0.4087
19548TIP3   OH280058   5.690   4.499   0.282 -1.0999  1.0804 -0.1540
19548TIP3    H180059   5.656   4.563   0.344 -1.1577  1.6840 -0.8089
19548TIP3    H280060   5.653   4.416   0.311  0.0295  1.1414  1.4797
19549TIP3   OH280061   4.680   1.162  14.838  0.3185  0.2300 -0.2323
19549TIP3    H180062   4.643   1.171  14.926  1.0679  0.6121  0.0490
19549TIP3    H280063   4.613   1.198  14.781  0.4684  1.4059  0.3207
19550TIP3   OH280064   4.512   6.542   0.236 -1.0541  0.1451 -0.1137
19550TIP3    H180065   4.531   6.630   0.203 -0.0531 -0.9054 -2.4639
19550TIP3    H280066   4.458   6.502   0.168  1.4904 -2.2598 -0.8133
19551TIP3   OH280067   6.261   4.735   0.499 -0.3829  0.2829 -0.9466
19551TIP3    H180068   6.329   4.688   0.547 -0.8900  0.8093  0.3046
19551TIP3    H280069   6.179   4.709   0.541 -0.7177  1.8073 -0.6428
19552TIP3   OH280070   4.799   2.560   3.762 -0.0831  0.0038  0.3483
19552TIP3    H180071   4.828   2.480   3.717 -0.8830  0.7832 -1.6046
19552TIP3    H280072   4.870   2.581   3.822  1.0918 -0.9786 -0.6696
19553TIP3   OH280073   6.393   6.173   3.589 -0.6769 -0.1173  0.6279
19553TIP3    H180074   6.366   6.091   3.629 -0.5044 -0.4742  0.0110
19553TIP3    H280075   6.487   6.178   3.607 -0.5766 -0.3352  0.1626
19554TIP3   OH280076   0.297   1.270   5.655  0.2543 -0.0055 -0.4339
19554TIP3    H180077   0.221   1.287   5.711 -0.1464  2.7389 -1.6938
19554TIP3    H280078   0.259   1.247   5.570  0.8553 -2.7738  0.0099
19555TIP3   OH280079   5.329   4.432   0.361 -0.4460  0.3202 -0.7284
19555TIP3    H180080   5.292   4.350   0.330 -2.3297 -0.7949  3.9791
19555TIP3    H280081   5.416   4.409   0.392  0.2090  0.7692 -2.2080
19556TIP3   OH280082   0.326   4.146   5.148  0.0108  0.5593 -0.3067
19556TIP3    H180083   0.295   4.202   5.220 -1.3288 -1.7235  0.9512
19556TIP3    H280084   0.253   4.147   5.085 -0.3001 -0.3222  0.0395
19557TIP3   OH280085   2.964   0.919  17.145  0.0126 -0.3970 -0.6013
19557TIP3    H180086   2.950   1.013  17.142 -0.4865 -0.4953 -1.4383
19557TIP3    H280087   3.017   0.899  17.068  2.9710 -0.3607  1.3301
19558TIP3   OH280088   0.801   3.557   5.329  0.2276  0.8469  0.4848
19558TIP3    H180089   0.850   3.567   5.411 -0.9235  0.5682  1.2137
19558TIP3    H280090   0.849   3.611   5.266  0.4060  2.0686  1.6518
19559TIP3   OH280091   4.748   0.232   1.380  0.5031  0.0788 -0.2628
19559TIP3    H180092   4.660   0.213   1.347  0.4119 -3.0409  1.5466
19559TIP3    H280093   4.806   0.184   1.321  0.8957  0.7461 -0.4259
19560TIP3   OH280094   5.225   4.915   2.619 -0.1188  0.4784 -0.0804
19560TIP3    H180095   5.306   4.865   2.612 -0.5548 -0.3292  0.5439
19560TIP3    H280096   5.251   5.005   2.601  0.7069  0.0617 -1.0760
19561TIP3   OH280097   5.878   5.950  11.631  0.1168  0.0427 -0.2190
19561TIP3    H180098   5.910   5.917  11.547 -1.2292  0.7456 -1.0325
19561TIP3    H280099   5.804   5.892  11.653  0.8168 -0.4894  0.7686
19562TIP3   OH280100   1.620   6.128  16.010  0.5166  0.6746  0.3225
19562TIP3    H180101   1.525   6.113  16.012  0.6624 -0.1140  1.9049
19562TIP3    H280102   1.630   6.214  15.971 -0.6810 -0.7692 -3.4123
19563TIP3   OH280103   2.440   4.758   4.381 -0.4522  0.2776  0.0479
19563TIP3    H180104   2.443   4.793   4.293  1.8969 -0.4963 -0.2247
19563TIP3    H280105   2.411   4.831   4.436 -0.2829  1.2388 -1.1314
19564TIP3   OH280106   2.304   6.769  16.686 -0.0793 -0.1515 -0.0288
19564TIP3    H180107   2.331   6.861  16.683 -1.2344  0.1460 -2.4201
19564TIP3    H280108   2.216   6.769  16.649 -0.2872 -2.1573  0.4318
19565TIP3   OH280109   2.556   6.390  12.975  0.7144  0.0232  0.1875
19565TIP3    H180110   2.512   6.406  13.059 -0.2612  0.4539 -0.4072
19565TIP3    H280111   2.551   6.474  12.929  1.5293 -0.1261 -0.1858
19566TIP3   OH280112   1.552   3.705  15.658 -0.2264  0.3558  0.6519
19566TIP3    H180113   1.469   3.659  15.673 -0.6792  1.3944  1.4215
19566TIP3    H280114   1.541   3.747  15.573  1.4750 -3.6640 -1.7295
19567TIP3   OH280115   0.973   3.114   0.321  0.4869  0.2330  0.5695
19567TIP3    H180116   0.947   3.092   0.411  0.1497  1.6474  0.8313
19567TIP3    H280117   0.889   3.127   0.276  0.6760  1.8675  0.6617
19568TIP3   OH280118   2.594   4.125  16.207 -0.0468  0.3360 -0.4373
19568TIP3    H180119   2.546   4.193  16.160 -2.1625 -1.5838 -1.1356
19568TIP3    H280120   2.593   4.050  16.148  0.2139 -1.0483  1.2854
19569TIP3   OH280121   4.025   3.913  17.135  0.3910 -0.1169  0.1016
19569TIP3    H180122   3.962   3.926  17.206 -0.1679  1.6078 -0.6679
19569TIP3    H280123   4.107   3.948  17.170 -0.0924  1.5710 -0.3833
19570TIP3   OH280124   2.131   2.162  15.593  0.4127  0.1882 -0.2356
19570TIP3    H180125   2.123   2.248  15.634  2.0780  0.1455  0.2208
19570TIP3    H280126   2.057   2.112  15.627  1.1555  0.5001  1.9324
19571TIP3   OH280127   4.539   1.471  15.499 -0.5208 -0.0199  0.4923
19571TIP3    H180128   4.479   1.510  15.436  0.8001 -0.9141 -1.3628
19571TIP3    H280129   4.482   1.423  15.559 -1.7532  0.2835 -0.4164
19572TIP3   OH280130   2.820   2.429   2.955  0.1405 -0.2710 -0.2217
19572TIP3    H180131   2.855   2.354   3.003  1.6741  0.1444 -0.6665
19572TIP3    H280132   2.897   2.484   2.937 -0.6332  0.3065 -1.8411
19573TIP3   OH280133   2.709   5.443   0.794 -0.2633 -0.6855 -0.0598
19573TIP3    H180134   2.645   5.479   0.732 -2.1663  0.5645  2.5550
19573TIP3    H280135   2.676   5.356   0.815 -0.5208 -0.4632  0.4600
19574TIP3   OH280136   1.048   2.591  16.819 -0.0016  0.3969  0.0748
19574TIP3    H180137   1.056   2.677  16.861 -0.3684  0.0547  0.8686
19574TIP3    H280138   1.092   2.531  16.880 -0.6757 -0.1367  0.0372
19575TIP3   OH280139   5.107   4.670   3.483  0.3182 -0.3688  0.6588
19575TIP3    H180140   5.143   4.742   3.536 -0.6319  2.0918 -1.9147
19575TIP3    H280141   5.183   4.634   3.437  0.5336  0.2254  0.5391
19576TIP3   OH280142   5.376   3.301  10.984 -0.2572  0.4243  0.2834
19576TIP3    H180143   5.322   3.228  11.015 -0.1469 -0.3147 -1.1903
19576TIP3    H280144   5.392   3.281  10.891  0.5600  1.8480  0.0992
19577TIP3   OH280145   0.521   1.623  10.984 -0.6705  0.3588 -0.3213
19577TIP3    H180146   0.436   1.603  10.945 -0.8493 -0.9153  0.6764
19577TIP3    H280147   0.576   1.548  10.959  0.0957  1.0754 -0.7868
19578TIP3   OH280148   6.705   1.599  10.909  0.0021 -0.2388 -0.3733
19578TIP3    H180149   6.693   1.670  10.846 -0.1867 -0.0570 -0.1351
19578TIP3    H280150   6.776   1.546  10.873 -0.8565 -0.7721 -1.3012
19579TIP3   OH280151   2.141   6.229   4.383 -0.2689  0.5277 -0.0358
19579TIP3    H180152   2.225   6.246   4.426 -0.1886  1.3778 -0.5192
19579TIP3    H280153   2.165   6.191   4.299 -0.3838  0.3871 -0.0050
19580TIP3   OH280154   0.146   0.553   3.690 -0.4600  0.0608  0.0371
19580TIP3    H180155   0.117   0.643   3.706 -1.0624 -0.5416  2.6415
19580TIP3    H280156   0.197   0.530   3.767  0.4280 -1.5453 -1.0015
19581TIP3   OH280157   2.471   4.001  17.203  0.2153  0.5081 -0.1873
19581TIP3    H180158   2.551   3.977  17.156 -0.3641 -0.7237 -0.5769
19581TIP3    H280159   2.437   4.077  17.156  0.2300 -0.0389 -1.0887
19582TIP3   OH280160   4.937   2.888  12.174  0.1458 -0.3618 -0.0107
19582TIP3    H180161   4.850   2.849  12.175  0.5487 -1.2997 -0.5192
19582TIP3    H280162   4.988   2.836  12.236  1.0340 -1.4968 -1.6606
19583TIP3   OH280163   2.436   0.830  15.716 -0.3230  0.0109 -0.0828
19583TIP3    H180164   2.435   0.736  15.731  1.9345  0.1579  1.3567
19583TIP3    H280165   2.503   0.863  15.776 -1.3544  2.5899 -0.2730
19584TIP3   OH280166   5.021   6.157  12.668  0.1632  0.3577  0.7452
19584TIP3    H180167   5.110   6.132  12.691  0.0921 -1.7597 -1.1182
19584TIP3    H280168   5.028   6.196  12.581 -0.7437  0.0187  0.5136
19585TIP3   OH280169   3.195   4.715   3.388  0.4194  0.0013 -0.2561
19585TIP3    H180170   3.129   4.775   3.423 -1.5361 -1.3233 -1.5280
19585TIP3    H280171   3.249   4.770   3.331  0.5517  1.1470  0.9465
19586TIP3   OH280172   0.627   4.495  17.180 -0.0010  0.1778 -0.4989
19586TIP3    H180173   0.669   4.540  17.107  0.9578  0.9443  0.5175
19586TIP3    H280174   0.652   4.403  17.170  1.5629  0.5579 -0.1531
19587TIP3   OH280175   0.488   3.621   3.032  0.1546 -0.4442 -0.1174
19587TIP3    H180176   0.409   3.666   3.063  0.5467  0.8673 -1.0052
19587TIP3    H280177   0.534   3.596   3.113 -0.4641  0.0371  0.3907
19588TIP3   OH280178   0.419   1.327  15.416 -0.0849 -0.0107 -0.3446
19588TIP3    H180179   0.415   1.241  15.376  0.3513 -0.6623  0.9885
19588TIP3    H280180   0.339   1.334  15.467  0.5727 -0.2332  0.7349
19589TIP3   OH280181   5.468   0.890   1.005 -0.0076  0.1396 -0.1601
19589TIP3    H180182   5.457   0.811   1.058 -1.9670  0.1619 -0.4919
19589TIP3    H280183   5.561   0.891   0.982  0.5541 -0.6554  2.0249
19590TIP3   OH280184   3.089   4.904   2.215  0.4003 -0.3616  0.6945
19590TIP3    H180185   2.995   4.893   2.232 -0.1978  2.9340 -0.1336
19590TIP3    H280186   3.105   4.853   2.136 -0.2357 -2.5536  1.9369
19591TIP3   OH280187   0.808   3.327   4.436  0.4481 -1.0196  0.2376
19591TIP3    H180188   0.724   3.331   4.392 -0.6235 -0.4312  2.2568
19591TIP3    H280189   0.793   3.271   4.512  1.4525  0.2644  1.4264
19592TIP3   OH280190   2.217   4.805   1.372 -0.3865  0.2899  0.6131
19592TIP3    H180191   2.264   4.724   1.351  0.6030  0.9447  0.2415
19592TIP3    H280192   2.211   4.806   1.467  0.3927  0.2133  0.6654
19593TIP3   OH280193   3.731   0.171  16.750  0.2030  0.0864  0.1732
19593TIP3    H180194   3.761   0.256  16.782  0.7888 -0.0408 -0.0271
19593TIP3    H280195   3.759   0.169  16.658 -0.7109  0.0978 -0.1093
19594TIP3   OH280196   6.294   5.571  17.210  0.0112  0.0917 -0.0939
19594TIP3    H180197   6.280   5.493  17.155 -2.2151  1.2959 -1.2999
19594TIP3    H280198   6.382   5.560  17.245  1.0757 -1.2657 -3.0441
19595TIP3   OH280199   5.668   1.839   1.407 -0.4469  0.3829  0.0943
19595TIP3    H180200   5.582   1.874   1.384 -0.3804  1.5888  1.6308
19595TIP3    H280201   5.664   1.824   1.501  0.5114 -1.0514 -0.0714
19596TIP3   OH280202   0.289   0.548   1.770  0.4405 -0.1621 -0.0962
19596TIP3    H180203   0.374   0.515   1.740  1.2556  0.9695  0.9551
19596TIP3    H280204   0.228   0.520   1.702  1.5513 -1.4850 -0.5828
19597TIP3   OH280205   4.228   5.583  15.177 -0.0408  0.6925  0.0930
19597TIP3    H180206   4.146   5.544  15.148  0.3968 -0.2700  0.1214
19597TIP3    H280207   4.296   5.534  15.130  0.6295 -0.1367  1.8879
19598TIP3   OH280208   2.715   6.326   3.355 -0.6383  0.6147  0.3785
19598TIP3    H180209   2.777   6.303   3.285 -0.2398 -1.9211  1.4975
19598TIP3    H280210   2.630   6.331   3.311 -0.3308 -0.5282 -0.3694
19599TIP3   OH280211   1.338   1.669   3.895 -0.5430 -0.0969 -0.4247
19599TIP3    H180212   1.357   1.594   3.951 -0.0646 -0.4701 -1.0663
19599TIP3    H280213   1.260   1.709   3.933 -1.2474 -1.3609 -0.5069
19600TIP3   OH280214   1.135   0.401  10.801 -0.2579 -0.1542 -0.0254
19600TIP3    H180215   1.105   0.341  10.733 -0.1777  0.6844 -0.8033
19600TIP3    H280216   1.060   0.408  10.861 -0.5336 -0.4467 -0.3292
19601TIP3   OH280217   5.894   0.470   0.889 -0.2406 -0.1291  0.3207
19601TIP3    H180218   5.861   0.384   0.865 -0.3895 -0.2617  0.9769
19601TIP3    H280219   5.876   0.525   0.813 -1.0879 -0.4388  0.2879
19602TIP3   OH280220   1.366   4.144   5.066  0.6882  0.5199 -0.1189
19602TIP3    H180221   1.397   4.176   5.151  1.5182 -0.2706 -0.1090
19602TIP3    H280222   1.271   4.141   5.075  0.7064  1.3700  0.4458
19603TIP3   OH280223   2.409   5.441  13.475 -0.4728 -0.2991 -0.1126
19603TIP3    H180224   2.417   5.495  13.396 -1.8242 -0.0489 -0.0788
19603TIP3    H280225   2.316   5.419  13.481 -0.3725 -0.4057  1.3556
19604TIP3   OH280226   2.871   1.048   1.659 -0.3486  0.2562 -0.0564
19604TIP3    H180227   2.918   1.033   1.742 -2.9826  0.4490  1.5100
19604TIP3    H280228   2.852   0.960   1.626  1.5283  0.1710 -0.9672
19605TIP3   OH280229   3.354   4.169  11.130  0.2053 -0.2784 -0.2103
19605TIP3    H180230   3.286   4.110  11.164  0.1946  0.3302  0.8281
19605TIP3    H280231   3.420   4.110  11.093 -1.1134 -0.8671 -1.6833
19606TIP3   OH280232   0.139   2.597   5.206  0.0045 -0.4307 -0.3023
19606TIP3    H180233   0.209   2.561   5.261  0.6949  1.4952  0.1390
19606TIP3    H280234   0.170   2.584   5.117  0.0007 -1.3885 -0.1682
19607TIP3   OH280235   4.889   4.244  11.220  0.2537 -0.1093  0.3499
19607TIP3    H180236   4.813   4.301  11.230  0.0776 -0.0583 -1.2702
19607TIP3    H280237   4.865   4.165  11.269 -1.7901 -1.0007 -1.9906
19608TIP3   OH280238   0.912   4.030   1.156 -0.0770 -0.1177  0.0730
19608TIP3    H180239   0.931   3.963   1.090  1.7493  0.8242 -0.3874
19608TIP3    H280240   0.874   3.981   1.229  2.0540 -1.8136  0.0954
19609TIP3   OH280241   1.372   3.494  15.853 -0.0671  0.0101  0.1926
19609TIP3    H180242   1.326   3.500  15.937 -0.1742 -0.0066  0.1358
19609TIP3    H280243   1.354   3.405  15.822 -1.3200  0.5145 -0.5744
19610TIP3   OH280244   6.787   1.072  12.703 -0.1446  0.3589  0.3965
19610TIP3    H180245   6.791   1.127  12.624 -1.3546  1.0139  0.7668
19610TIP3    H280246   6.831   1.123  12.770  1.2566 -0.3816  0.0569
19611TIP3   OH280247   2.767   4.159   5.922  0.3342  0.3023  0.0579
19611TIP3    H180248   2.781   4.065   5.933 -2.6250 -0.1139  0.4931
19611TIP3    H280249   2.740   4.168   5.831 -0.4808  0.6113  0.3352
19612TIP3   OH280250   6.294   4.002   5.012 -0.2040 -0.2530 -0.2563
19612TIP3    H180251   6.317   4.065   5.080  1.4635 -2.7435  1.6004
19612TIP3    H280252   6.217   3.957   5.046  0.0165 -0.8004 -0.4736
19613TIP3   OH280253   2.242   5.271   0.338  0.5458  0.2915 -0.0012
19613TIP3    H180254   2.323   5.321   0.329  1.0725 -0.8036 -1.5199
19613TIP3    H280255   2.263   5.184   0.304 -0.9532 -0.3562  0.6529
19614TIP3   OH280256   3.169   6.361   1.235 -0.0900  0.1894  0.1006
19614TIP3    H180257   3.138   6.414   1.162  0.2481 -0.0511 -0.2168
19614TIP3    H280258   3.168   6.271   1.202 -1.7952 -0.1483  1.0165
19615TIP3   OH280259   5.156   3.447   5.349 -0.1836  0.3492 -0.0777
19615TIP3    H180260   5.113   3.387   5.288  0.2449 -0.5320  0.4904
19615TIP3    H280261   5.197   3.391   5.414  2.9652  1.0936 -1.3425
19616TIP3   OH280262   0.590   1.322  13.262  0.5446  0.1636 -0.3428
19616TIP3    H180263   0.510   1.361  13.298  0.6226 -1.0894  1.2484
19616TIP3    H280264   0.599   1.361  13.175 -0.8388  1.6320  0.1546
19617TIP3   OH280265   3.939   0.109  14.917  0.1617  0.5953  0.1437
19617TIP3    H180266   3.941   0.056  14.837  1.6622  0.5506  0.1928
19617TIP3    H280267   4.017   0.165  14.910  0.3473  0.5312  1.6112
19618TIP3   OH280268   4.392   0.522   2.032  0.3844  0.5248  0.1314
19618TIP3    H180269   4.487   0.537   2.030  0.0454  2.8274 -0.8031
19618TIP3    H280270   4.359   0.592   2.089 -0.8969  0.7766 -0.9009
19619TIP3   OH280271   4.527   2.904  13.024 -0.4055 -0.2097  0.0411
19619TIP3    H180272   4.504   2.959  12.949  0.5177  1.2109  0.7997
19619TIP3    H280273   4.563   2.824  12.984 -0.4779  0.2819 -1.0317
19620TIP3   OH280274   0.098   4.507  14.346 -0.6200 -0.0547 -0.0207
19620TIP3    H180275   0.080   4.508  14.252  1.1060  0.3723 -0.3608
19620TIP3    H280276   0.193   4.520  14.353 -0.8163  0.5643  1.8001
19621TIP3   OH280277   1.930   4.814   0.361 -0.6537  0.3047 -0.1047
19621TIP3    H180278   1.872   4.878   0.402 -1.0122 -0.2191  0.2208
19621TIP3    H280279   1.999   4.866   0.321 -0.3098  0.8313  1.1487
19622TIP3   OH280280   2.842   5.705  10.642 -0.4448 -0.3490 -0.0143
19622TIP3    H180281   2.779   5.634  10.642  1.2927 -1.9471  0.6839
19622TIP3    H280282   2.848   5.733  10.733 -0.0003 -0.3215 -0.0505
19623TIP3   OH280283   5.893   1.396   4.093 -0.3890  0.2441 -0.1937
19623TIP3    H180284   5.978   1.356   4.111  0.2530  0.9355 -1.6544
19623TIP3    H280285   5.848   1.332   4.039 -0.7911 -0.0943  0.5275
19624TIP3   OH280286   4.450   1.946   2.263  0.1371 -0.2839 -0.0037
19624TIP3    H180287   4.487   1.868   2.223  0.7943  0.9094 -1.7940
19624TIP3    H280288   4.525   1.996   2.293  0.1474  2.3577 -4.0510
19625TIP3   OH280289   4.880   4.132  14.474  0.2663 -0.4607  0.1184
19625TIP3    H180290   4.788   4.148  14.496 -0.3002 -1.5176 -1.3828
19625TIP3    H280291   4.910   4.066  14.536 -0.5118 -1.3878 -0.4738
19626TIP3   OH280292   1.026   1.520   3.725  0.5542  0.3225  0.4627
19626TIP3    H180293   1.088   1.524   3.797 -0.0368 -0.4731  1.0191
19626TIP3    H280294   0.953   1.468   3.758 -0.0257  0.5215 -0.4748
19627TIP3   OH280295   2.120   0.273  11.830  0.2799  0.0517 -0.0178
19627TIP3    H180296   2.148   0.244  11.917  1.4126  0.4986 -0.2269
19627TIP3    H280297   2.083   0.360  11.844 -0.1483 -0.1500  0.1150
19628TIP3   OH280298   0.199   4.208   1.864  0.0914  0.1917  0.2375
19628TIP3    H180299   0.192   4.291   1.818 -0.6430  1.3628  2.3897
19628TIP3    H280300   0.114   4.166   1.851  0.1067  0.2314  0.0070
19629TIP3   OH280301   3.224   2.681  12.055  0.5868 -0.2457  0.2534
19629TIP3    H180302   3.211   2.666  11.961  1.9609 -1.4329  0.2471
19629TIP3    H280303   3.307   2.729  12.060 -1.4581  3.4949  0.6055
19630TIP3   OH280304   3.333   0.600  14.214 -0.3198  0.3166  0.2345
19630TIP3    H180305   3.239   0.588  14.229 -0.2823 -0.2182  0.0594
19630TIP3    H280306   3.343   0.592  14.119 -0.0526  0.0550  0.2859
19631TIP3   OH280307   0.449   4.616  10.540 -0.0230 -0.7219 -0.6476
19631TIP3    H180308   0.400   4.560  10.601 -1.3696 -0.6438 -1.6434
19631TIP3    H280309   0.420   4.589  10.453 -0.5680  1.4012 -1.1475
19632TIP3   OH280310   5.592   2.176  11.158  0.3219 -0.2474  0.1134
19632TIP3    H180311   5.637   2.160  11.241  0.7625 -0.9283 -0.2481
19632TIP3    H280312   5.662   2.194  11.096  0.1080 -1.4714 -0.4886
19633TIP3   OH280313   4.443   3.612  15.577 -0.2870  0.1229 -0.0442
19633TIP3    H180314   4.372   3.675  15.585 -1.6852 -1.3920 -0.1590
19633TIP3    H280315   4.488   3.615  15.662  0.1005  1.7738 -0.3054
19634TIP3   OH280316   2.649   6.452   0.849  0.5734 -0.3449  0.9038
19634TIP3    H180317   2.578   6.387   0.846  0.2765  0.0252 -0.1855
19634TIP3    H280318   2.626   6.508   0.923 -1.8398  1.5271 -1.1737
19635TIP3   OH280319   0.186   4.610   3.669 -0.6559 -0.0052 -0.5529
19635TIP3    H180320   0.113   4.594   3.729 -1.3718  0.2258 -1.3541
19635TIP3    H280321   0.186   4.705   3.657  0.5492  0.1316  0.3958
19636TIP3   OH280322   3.383   6.554  15.694  0.6676 -0.0580  0.1208
19636TIP3    H180323   3.399   6.643  15.663 -0.9950  0.4576  0.6926
19636TIP3    H280324   3.293   6.535  15.668  0.5266 -1.0327  1.2642
19637TIP3   OH280325   1.157   2.506   2.632  0.3904  0.3381  0.3808
19637TIP3    H180326   1.107   2.574   2.588 -0.9718  1.4792  3.5757
19637TIP3    H280327   1.238   2.550   2.659  0.7270 -0.0708  0.0569
19638TIP3   OH280328   2.065   0.498   0.615  0.0011  0.3418 -0.1585
19638TIP3    H180329   2.038   0.581   0.655 -0.1031  0.0386  0.4000
19638TIP3    H280330   2.001   0.434   0.646 -0.1852  0.1406 -0.9536
19639TIP3   OH280331   2.688   2.226  13.371 -0.0684 -0.4837 -0.5984
19639TIP3    H180332   2.594   2.244  13.381 -0.0014  0.6899 -1.8994
19639TIP3    H280333   2.697   2.133  13.391 -1.7637 -0.9693 -1.9852
19640TIP3   OH280334   4.042   3.271  11.391  0.0866 -0.1045 -0.4176
19640TIP3    H180335   3.953   3.275  11.357  0.4365  2.9391 -1.1692
19640TIP3    H280336   4.087   3.208  11.335 -1.5457 -1.5322 -0.1245
19641TIP3   OH280337   3.804   4.649   0.988 -0.7034  0.2381 -0.0912
19641TIP3    H180338   3.818   4.577   0.928  0.2019 -0.2215  0.6486
19641TIP3    H280339   3.821   4.728   0.937 -1.3472 -0.0871 -0.8050
19642TIP3   OH280340   2.390   5.756   0.296  0.4081 -0.3218 -0.0307
19642TIP3    H180341   2.429   5.669   0.289 -0.3185 -0.4832 -3.2945
19642TIP3    H280342   2.359   5.762   0.386 -0.5406 -3.9232 -0.0352
19643TIP3   OH280343   0.306   2.722  15.213 -0.1182  0.4860 -0.2448
19643TIP3    H180344   0.397   2.745  15.196 -0.0652  0.2906 -0.2250
19643TIP3    H280345   0.258   2.755  15.138  0.1005 -0.2969 -0.7406
19644TIP3   OH280346   0.243   3.249   5.313  0.0255  0.1756 -0.2246
19644TIP3    H180347   0.273   3.297   5.236 -0.4176 -0.4965 -0.8213
19644TIP3    H280348   0.148   3.260   5.313 -0.2184 -1.6286 -1.0213
19645TIP3   OH280349   2.114   5.138   5.387  0.1261  0.1352 -0.0553
19645TIP3    H180350   2.079   5.168   5.471 -2.5078  1.1507 -1.4819
19645TIP3    H280351   2.061   5.182   5.321  0.2190 -2.9377 -2.2670
19646TIP3   OH280352   1.295   1.808   0.422 -0.5407  0.9748  0.1718
19646TIP3    H180353   1.382   1.770   0.408 -0.1785  1.4166  1.2163
19646TIP3    H280354   1.311   1.902   0.427 -1.5116  1.3795 -3.0876
19647TIP3   OH280355   4.515   0.839  14.682 -0.0530 -0.6605  0.1887
19647TIP3    H180356   4.526   0.817  14.590 -0.8935 -1.6312  0.3153
19647TIP3    H280357   4.595   0.807  14.724 -0.1758 -1.2467 -0.0194
19648TIP3   OH280358   5.031   4.504   2.655  0.0014  0.3125  0.1383
19648TIP3    H180359   5.021   4.427   2.599 -2.7180  0.7047  0.0130
19648TIP3    H280360   5.056   4.468   2.741  1.6260 -0.4631 -0.6334
19649TIP3   OH280361   0.137   4.849   5.509 -0.3959 -0.2687  0.0271
19649TIP3    H180362   0.124   4.785   5.439 -0.7486 -0.0571 -0.0950
19649TIP3    H280363   0.224   4.885   5.492  1.0332 -2.7273  1.6788
19650TIP3   OH280364   5.229   5.223   5.166 -0.0935  0.1214 -0.1857
19650TIP3    H180365   5.174   5.203   5.242  0.9552  0.6539  0.7338
19650TIP3    H280366   5.318   5.202   5.195  0.3818  0.9375 -1.0441
19651TIP3   OH280367   6.035   1.646  10.892  0.2886  0.2674 -0.2905
19651TIP3    H180368   6.046   1.557  10.924  0.4987  0.4048  0.0258
19651TIP3    H280369   5.941   1.658  10.884  0.3335 -0.7259 -2.4425
19652TIP3   OH280370   3.328   3.474   2.289  0.4700  0.3525 -0.2743
19652TIP3    H180371   3.405   3.436   2.330  1.9250  1.8117 -1.5757
19652TIP3    H280372   3.273   3.502   2.362  0.3174 -2.3214  0.6730
19653TIP3   OH280373   0.687   5.729   4.715  0.0384  0.0206 -0.0064
19653TIP3    H180374   0.646   5.653   4.756 -0.4398  1.1204  1.5829
19653TIP3    H280375   0.772   5.738   4.759  0.0594  0.4680 -0.1334
19654TIP3   OH280376   3.006   6.113  15.708  0.3275 -0.3068 -0.3325
19654TIP3    H180377   3.090   6.122  15.663  0.9505 -1.2091  0.6213
19654TIP3    H280378   3.022   6.150  15.795  0.1608 -1.7694  0.3315
19655TIP3   OH280379   0.587   4.107   3.132  0.1048 -0.2997  0.1204
19655TIP3    H180380   0.519   4.174   3.138 -1.0601 -1.5628  1.3943
19655TIP3    H280381   0.635   4.115   3.215  0.9932  0.0158 -0.4143
19656TIP3   OH280382   4.315   3.078   5.589 -0.0488  0.1135 -0.1312
19656TIP3    H180383   4.289   3.126   5.667  0.3486  0.3425 -0.1430
19656TIP3    H280384   4.378   3.013   5.620  0.2836  0.3578 -0.3019
19657TIP3   OH280385   4.880   1.367   2.621  0.2270 -0.2314 -0.0459
19657TIP3    H180386   4.832   1.446   2.643  0.3855  0.4159 -1.9244
19657TIP3    H280387   4.848   1.301   2.683 -2.4271  0.4098 -0.6761
19658TIP3   OH280388   6.201   0.962   1.709  0.0535  0.3892 -0.2683
19658TIP3    H180389   6.291   0.938   1.687 -0.1292 -0.5608  0.0185
19658TIP3    H280390   6.169   0.890   1.763 -1.3084  0.0934 -1.4516
19659TIP3   OH280391   6.338   0.851   3.327  0.4490 -0.1973 -0.2298
19659TIP3    H180392   6.415   0.850   3.271  0.1507  0.0685 -0.6464
19659TIP3    H280393   6.264   0.857   3.267  0.0073 -2.2368  0.0735
19660TIP3   OH280394   3.870   5.057  16.500 -0.4197 -0.4661 -0.1571
19660TIP3    H180395   3.787   5.082  16.542 -0.5672  0.0026 -0.7306
19660TIP3    H280396   3.922   5.137  16.499 -0.8329 -0.2083 -1.8531
19661TIP3   OH280397   0.034   3.908  12.102 -0.5718 -0.2955 -0.9205
19661TIP3    H180398   0.092   3.982  12.084 -1.1099  0.0450 -1.2891
19661TIP3    H280399   0.078   3.859  12.170 -0.4134  0.6052 -0.3639
19662TIP3   OH280400   2.017   5.757  16.199 -0.0150 -0.7921  0.0753
19662TIP3    H180401   2.047   5.689  16.139  0.6241  1.0204 -1.7500
19662TIP3    H280402   2.083   5.759  16.268  0.3705 -1.5150 -0.2663
19663TIP3   OH280403   6.066   6.580  17.189 -0.3040  0.4938  0.8697
19663TIP3    H180404   6.144   6.619  17.150 -0.3918 -1.0853 -0.9805
19663TIP3    H280405   5.996   6.642  17.170 -0.0659  0.4343 -0.2059
19664TIP3   OH280406   2.171   2.405   2.924  0.0113  0.1890  0.4825
19664TIP3    H180407   2.140   2.440   2.841 -0.2952 -3.7787 -1.2194
19664TIP3    H280408   2.262   2.435   2.931  0.8910 -1.5444 -2.6536
19665TIP3   OH280409   1.672   0.045  12.585  0.3163 -0.6867 -0.3763
19665TIP3    H180410   1.586   0.006  12.597  0.0856 -0.2021 -0.4438
19665TIP3    H280411   1.712   0.043  12.672  0.6628 -1.9015 -0.5557
19666TIP3   OH280412   6.205   2.047  14.334  0.1649  1.0433  0.1076
19666TIP3    H180413   6.189   1.998  14.253 -0.3409  0.7327  0.3907
19666TIP3    H280414   6.259   1.989  14.387 -0.3887  0.8078  0.4203
19667TIP3   OH280415   4.849   2.319   1.983  0.2819 -0.0830 -0.3544
19667TIP3    H180416   4.799   2.272   1.916  1.8050  0.0264 -1.6054
19667TIP3    H280417   4.930   2.344   1.939  1.8292 -1.0094  1.8645
19668TIP3   OH280418   3.480   2.958  15.489 -0.6878 -0.2275  0.5321
19668TIP3    H180419   3.549   2.959  15.556  0.1127 -0.5736 -0.2741
19668TIP3    H280420   3.399   2.949  15.539  0.0198 -2.3377  1.3766
19669TIP3   OH280421   1.766   2.276   5.953  0.1538  0.3299 -0.0539
19669TIP3    H180422   1.757   2.316   6.040  0.1028 -0.4374  0.2982
19669TIP3    H280423   1.786   2.184   5.971  3.0071  0.7531 -0.8256
19670TIP3   OH280424   5.082   5.256   0.703  0.1502  0.0083 -0.2995
19670TIP3    H180425   5.016   5.187   0.705  0.4635 -0.3034 -0.4779
19670TIP3    H280426   5.085   5.284   0.611 -0.4792  0.7564 -0.0993
19671TIP3   OH280427   6.714   1.569  12.179  0.0333  0.1537 -0.5811
19671TIP3    H180428   6.710   1.604  12.269  0.2084  1.4672 -1.0647
19671TIP3    H280429   6.793   1.608  12.142  0.1805 -0.7113 -1.1829
19672TIP3   OH280430   6.212   0.534   3.928  0.3546 -0.0543 -0.1540
19672TIP3    H180431   6.191   0.587   4.004 -0.1307 -2.0698  1.1653
19672TIP3    H280432   6.283   0.580   3.884  0.3795  1.3139  1.3126
19673TIP3   OH280433   4.774   1.259   4.876  0.3076  0.8554  0.2113
19673TIP3    H180434   4.859   1.293   4.902  1.3064 -0.3079 -1.4946
19673TIP3    H280435   4.760   1.183   4.933  0.0667  1.4943  1.0059
19674TIP3   OH280436   1.935   0.403  11.159  0.2086  0.4526 -0.1176
19674TIP3    H180437   1.967   0.370  11.074 -0.3943 -2.1901  0.6433
19674TIP3    H280438   1.983   0.352  11.224 -0.8268  1.0264  1.1152
19675TIP3   OH280439   3.684   0.890   5.954  0.0313  0.0123  0.6511
19675TIP3    H180440   3.756   0.826   5.952  0.1216  0.1373 -0.8213
19675TIP3    H280441   3.623   0.855   6.018  0.3137 -1.3082  0.2212
19676TIP3   OH280442   4.360   6.102   5.100  0.0070 -0.0586 -0.8729
19676TIP3    H180443   4.320   6.168   5.156  0.2788  0.0870 -0.8510
19676TIP3    H280444   4.451   6.098   5.129  0.0789 -0.1829 -1.1172
19677TIP3   OH280445   1.768   6.679  10.651  0.0080 -0.1425  0.0700
19677TIP3    H180446   1.738   6.767  10.631 -0.5014 -0.2687  0.2726
19677TIP3    H280447   1.688   6.626  10.652  0.2111 -0.4418  0.8108
19678TIP3   OH280448   1.905   4.211  15.394  0.2220 -0.7352  0.0689
19678TIP3    H180449   1.939   4.245  15.312 -0.5710 -0.7195 -0.2611
19678TIP3    H280450   1.812   4.233  15.392  0.1995 -0.7204  0.9778
19679TIP3   OH280451   5.581   3.843   3.353  0.3213 -0.2997  0.5543
19679TIP3    H180452   5.652   3.849   3.289  0.7558 -0.4841  1.0191
19679TIP3    H280453   5.535   3.762   3.331  0.7465 -0.5969  0.7569
19680TIP3   OH280454   3.602   0.551   0.193  0.4281  0.0265  0.8221
19680TIP3    H180455   3.691   0.549   0.228  0.8866  0.0144 -0.3303
19680TIP3    H280456   3.546   0.551   0.270  1.4053 -0.9574  1.5487
19681TIP3   OH280457   2.506   6.379   3.912 -0.2429  0.4576  0.0588
19681TIP3    H180458   2.572   6.381   3.844 -1.5863 -0.2204 -1.2846
19681TIP3    H280459   2.475   6.289   3.914 -0.7157  0.6271  1.0939
19682TIP3   OH280460   6.227   2.013  14.991  0.5167 -0.4984 -0.3477
19682TIP3    H180461   6.147   2.055  14.960  0.3225  0.6802  1.6933
19682TIP3    H280462   6.290   2.028  14.920  0.4355  3.2447  0.2527
19683TIP3   OH280463   4.442   0.158   5.282 -0.1211 -0.1543  0.3207
19683TIP3    H180464   4.365   0.121   5.325 -0.5862  1.9962  1.3676
19683TIP3    H280465   4.434   0.129   5.191 -0.9952 -1.7728  0.8911
19684TIP3   OH280466   4.011   3.092   0.316 -0.3874  0.0941  0.3657
19684TIP3    H180467   4.051   3.124   0.397 -1.7140  0.8439  0.7406
19684TIP3    H280468   4.016   3.166   0.256 -0.7086  0.0129  0.2356
19685TIP3   OH280469   3.160   4.462  14.050  0.1415  0.5031  1.0357
19685TIP3    H180470   3.104   4.458  13.972  2.6285  1.7706 -0.9106
19685TIP3    H280471   3.106   4.426  14.120 -2.5638  0.3034 -1.0435
19686TIP3   OH280472   3.795   4.293   0.306 -0.7422 -0.7053  0.5971
19686TIP3    H180473   3.736   4.369   0.306  0.6467  0.3798  0.7375
19686TIP3    H280474   3.845   4.301   0.387  1.3355 -0.2541 -0.6900
19687TIP3   OH280475   3.996   6.417  13.271 -0.0188 -0.1839  0.1289
19687TIP3    H180476   4.023   6.509  13.274  0.9795 -0.4462 -0.5298
19687TIP3    H280477   3.906   6.418  13.303  0.2601  0.9140  0.9389
19688TIP3   OH280478   5.323   0.868  12.338 -0.4975 -0.0030  0.5711
19688TIP3    H180479   5.285   0.812  12.406 -1.9739 -0.9953 -1.0409
19688TIP3    H280480   5.314   0.817  12.257  3.7068 -0.0118 -0.0129
19689TIP3   OH280481   6.058   3.762  14.103  0.3187 -0.0411 -1.1491
19689TIP3    H180482   5.967   3.782  14.084  0.3064  0.8298 -0.2374
19689TIP3    H280483   6.106   3.793  14.026  0.0575  1.4503 -0.7218
19690TIP3   OH280484   0.167   5.028   2.867 -0.4700  0.3930  0.0587
19690TIP3    H180485   0.188   5.033   2.960 -0.6832  1.7150  0.0350
19690TIP3    H280486   0.210   4.947   2.837  0.4082  0.4758  1.0866
19691TIP3   OH280487   3.242   1.037  12.759 -0.7381 -0.0101  0.5582
19691TIP3    H180488   3.215   1.052  12.669 -1.1778 -2.1317  0.3112
19691TIP3    H280489   3.166   1.061  12.812 -0.6049  0.8802  0.3549
19692TIP3   OH280490   4.891   6.633   1.773 -0.6119  0.9323 -0.3764
19692TIP3    H180491   4.888   6.702   1.839 -1.3690  1.2789 -0.7636
19692TIP3    H280492   4.859   6.676   1.693  0.5565  0.6004 -1.0342
19693TIP3   OH280493   1.344   6.408  15.070  0.2457  0.3290  0.3025
19693TIP3    H180494   1.271   6.346  15.069  1.3944 -1.0400  0.6355
19693TIP3    H280495   1.305   6.490  15.038 -1.0240 -0.8229 -1.2277
19694TIP3   OH280496   3.739   5.394  14.884  0.0950  0.2738  0.4492
19694TIP3    H180497   3.756   5.403  14.790 -1.6122  0.1725  0.1149
19694TIP3    H280498   3.708   5.480  14.912 -0.9619 -0.1306  0.5616
19695TIP3   OH280499   1.699   2.200   5.265 -0.0281 -0.2698 -0.5516
19695TIP3    H180500   1.710   2.172   5.356 -0.1405 -1.0383 -0.7646
19695TIP3    H280501   1.630   2.142   5.231 -0.0004  0.0279 -1.1167
19696TIP3   OH280502   5.843   6.677   6.176 -0.1645 -0.3589  0.2575
19696TIP3    H180503   5.836   6.621   6.099 -1.8028 -0.5055  0.4848
19696TIP3    H280504   5.758   6.720   6.181  0.9106  1.8199  0.3496
19697TIP3   OH280505   5.478   5.158   5.198 -0.0910 -0.0720  0.0759
19697TIP3    H180506   5.512   5.125   5.281 -0.1660 -0.3775 -0.0164
19697TIP3    H280507   5.552   5.206   5.159  0.3007 -0.9157 -0.2228
19698TIP3   OH280508   5.553   4.913   4.042  0.7228  0.0241 -0.3656
19698TIP3    H180509   5.468   4.957   4.034  1.0405  0.6908 -0.1085
19698TIP3    H280510   5.567   4.873   3.956 -0.0546 -0.4536 -0.2684
19699TIP3   OH280511   4.223   4.657  10.145  0.1395  0.2584 -1.1462
19699TIP3    H180512   4.285   4.632  10.076  0.1605  0.7905 -1.3234
19699TIP3    H280513   4.215   4.579  10.199  0.1680 -0.1482 -1.7237
19700TIP3   OH280514   1.394   1.848   3.303 -0.0037 -0.8493  0.1907
19700TIP3    H180515   1.431   1.892   3.226 -0.1429  1.9425  1.6839
19700TIP3    H280516   1.299   1.856   3.293  0.0037  2.0140  2.0119
19701TIP3   OH280517   3.498   0.231  16.375  0.3713  0.0588 -0.0487
19701TIP3    H180518   3.479   0.313  16.420  0.7215  0.1331 -0.0333
19701TIP3    H280519   3.554   0.256  16.301 -3.4879  0.4969 -2.9588
19702TIP3   OH280520   6.273   3.754   0.790  0.0392 -0.7180  0.0491
19702TIP3    H180521   6.301   3.839   0.754  1.7786 -1.6023 -0.7644
19702TIP3    H280522   6.214   3.777   0.862  1.0875  1.2097  0.3490
19703TIP3   OH280523   2.868   4.454   2.942 -0.1806 -0.2947  0.3141
19703TIP3    H180524   2.867   4.451   3.037 -1.8592  0.1112  0.3307
19703TIP3    H280525   2.806   4.386   2.915  1.4039 -1.4345 -0.5385
19704TIP3   OH280526   6.075   0.544  14.002  0.0675  0.2414 -0.7704
19704TIP3    H180527   6.093   0.459  14.042  0.0330  0.1233 -1.0025
19704TIP3    H280528   6.162   0.580  13.984  0.0793  0.1002 -0.9966
19705TIP3   OH280529   5.776   3.292   2.290 -0.7591 -0.1630  0.1436
19705TIP3    H180530   5.692   3.324   2.257 -0.6414 -0.5001 -0.4977
19705TIP3    H280531   5.766   3.197   2.291 -0.7131 -0.1621  0.9662
19706TIP3   OH280532   3.545   4.851  13.319 -0.0875 -0.1125  0.1995
19706TIP3    H180533   3.467   4.903  13.338 -0.0335 -1.1785  3.6011
19706TIP3    H280534   3.608   4.877  13.386  1.7200 -0.8778 -1.1721
19707TIP3   OH280535   0.141   1.791  14.537 -0.2976  0.1854  0.0833
19707TIP3    H180536   0.189   1.819  14.615  0.5060  0.9310 -0.6766
19707TIP3    H280537   0.201   1.732  14.492  0.0850  1.4610 -1.0937
19708TIP3   OH280538   4.496   3.142  15.797 -0.6623 -0.0827  0.5654
19708TIP3    H180539   4.465   3.131  15.707  1.0743  0.1089 -0.0742
19708TIP3    H280540   4.504   3.052  15.830  0.3326 -0.2330 -0.0540
19709TIP3   OH280541   1.752   3.433   4.456  0.7703 -0.1000 -0.2068
19709TIP3    H180542   1.760   3.338   4.460 -1.4598 -0.2964  0.4614
19709TIP3    H280543   1.664   3.448   4.420  1.1486  1.7151 -0.4397
19710TIP3   OH280544   4.377   2.203   5.261  0.1719  0.0090 -0.3816
19710TIP3    H180545   4.330   2.270   5.311 -0.4213  1.3003 -2.5772
19710TIP3    H280546   4.317   2.128   5.258 -0.2200  0.3097 -0.0326
19711TIP3   OH280547   6.679   1.114  11.260  0.0352  0.0279  0.2930
19711TIP3    H180548   6.725   1.064  11.326  1.8290 -0.3580 -1.2090
19711TIP3    H280549   6.716   1.085  11.177 -3.3950 -0.8094 -1.0416
19712TIP3   OH280550   3.753   5.536   5.299 -0.0940 -0.2513 -0.0762
19712TIP3    H180551   3.721   5.543   5.389  0.3828 -0.1316  0.0891
19712TIP3    H280552   3.684   5.575   5.245 -0.0347  0.4012  0.3095
19713TIP3   OH280553   3.035   2.172   5.664 -0.2028 -0.7065 -0.0659
19713TIP3    H180554   3.074   2.190   5.750  0.9128 -0.4978 -0.6078
19713TIP3    H280555   2.955   2.225   5.662  0.0611 -0.2791  0.6185
19714TIP3   OH280556   0.198   6.112  12.192  0.7570  0.0011 -0.3193
19714TIP3    H180557   0.139   6.048  12.232 -0.1410  1.1956  0.2688
19714TIP3    H280558   0.201   6.087  12.099  1.6422 -1.8250  0.1710
19715TIP3   OH280559   0.711   0.704  13.493 -0.2261 -0.3999 -0.3216
19715TIP3    H180560   0.723   0.798  13.504 -0.4646 -0.4419  0.3639
19715TIP3    H280561   0.800   0.669  13.483  0.0154 -0.3198  1.3448
19716TIP3   OH280562   2.547   5.435  14.714 -0.3838  0.0889 -0.8639
19716TIP3    H180563   2.452   5.427  14.723 -0.3396 -0.4211 -0.8019
19716TIP3    H280564   2.561   5.462  14.624 -0.5935  0.3043 -0.8343
19717TIP3   OH280565   0.295   2.937   2.027  0.3271  0.1589  0.1672
19717TIP3    H180566   0.257   2.869   2.082  0.7528 -0.4485 -0.2823
19717TIP3    H280567   0.226   3.003   2.019  0.3380  0.3470  1.5715
19718TIP3   OH280568   0.755   1.466  12.467 -0.8394  0.3078  0.4351
19718TIP3    H180569   0.701   1.399  12.509 -0.5216  0.6970  1.4792
19718TIP3    H280570   0.837   1.463  12.515 -0.1501  0.1622 -0.7332
19719TIP3   OH280571   4.543   1.607   5.561 -0.7174 -0.4325 -0.5860
19719TIP3    H180572   4.612   1.664   5.595 -0.7026 -1.4540  1.1488
19719TIP3    H280573   4.489   1.665   5.507  0.2243  0.8604 -0.1684
19720TIP3   OH280574   5.664   1.159   3.453  0.6330  0.0461 -0.1806
19720TIP3    H180575   5.680   1.189   3.363  0.6648 -0.8864 -0.4912
19720TIP3    H280576   5.750   1.163   3.494  0.6110  0.5205 -0.1724
19721TIP3   OH280577   3.419   1.809   3.620  0.4551  0.1490 -0.5341
19721TIP3    H180578   3.366   1.786   3.696  0.8063  0.2854 -0.2459
19721TIP3    H280579   3.465   1.889   3.646  1.8234 -0.7097 -0.2849
19722TIP3   OH280580   6.594   2.983   5.047 -0.5276 -0.0569 -0.1672
19722TIP3    H180581   6.652   2.950   5.115 -4.2319  0.0352  3.2766
19722TIP3    H280582   6.614   3.077   5.041  1.8282 -0.6143 -1.3614
19723TIP3   OH280583   4.415   0.331  16.828  0.4144 -0.2619  0.6195
19723TIP3    H180584   4.379   0.294  16.748  1.1090 -1.0309  0.6530
19723TIP3    H280585   4.417   0.426  16.812  1.0439 -0.4506 -0.4784
19724TIP3   OH280586   3.386   2.653  13.463 -0.0807  0.5104  0.1457
19724TIP3    H180587   3.328   2.608  13.400  0.6018 -0.1776 -0.0043
19724TIP3    H280588   3.473   2.642  13.426  0.2873  0.4051  1.0421
19725TIP3   OH280589   1.423   5.216  15.327  0.4946 -0.2419 -0.3268
19725TIP3    H180590   1.391   5.216  15.418  1.4884  1.4852  0.0353
19725TIP3    H280591   1.353   5.172  15.278  0.3402 -1.9930  1.3922
19726TIP3   OH280592   5.861   3.962  16.279 -0.3015 -0.3513 -0.5669
19726TIP3    H180593   5.781   3.962  16.226 -1.0038 -3.6437  0.4075
19726TIP3    H280594   5.902   3.877  16.262  1.3839  0.0478  1.3153
19727TIP3   OH280595   1.664   4.011   0.100 -0.1648  0.2389  0.0643
19727TIP3    H180596   1.683   4.084   0.159 -0.6506 -0.1340  0.6897
19727TIP3    H280597   1.574   4.027   0.072 -0.7365 -0.8272  1.2494
19728TIP3   OH280598   5.876   0.620   4.243 -0.3271  0.0159 -0.1237
19728TIP3    H180599   5.839   0.640   4.157 -1.7327  0.0681  0.4836
19728TIP3    H280600   5.963   0.661   4.241 -1.4000  2.3778 -0.5312
19729TIP3   OH280601   2.408   6.553  10.161 -0.0979  0.3397  0.3194
19729TIP3    H180602   2.501   6.571  10.166 -0.2312  1.6580 -1.4407
19729TIP3    H280603   2.366   6.628  10.204 -0.3780  0.4561 -0.1436
19730TIP3   OH280604   5.979   6.405  16.559 -0.2576 -0.2058  0.6308
19730TIP3    H180605   6.028   6.464  16.616 -2.8172  1.3658  1.3245
19730TIP3    H280606   5.989   6.319  16.598  1.8452  0.0981  0.7950
19731TIP3   OH280607   2.744   3.349   3.389  0.3165 -0.4353 -0.4184
19731TIP3    H180608   2.650   3.333   3.388 -0.1803  2.2754 -0.4860
19731TIP3    H280609   2.754   3.435   3.429  2.6375  0.0335 -1.8652
19732TIP3   OH280610   1.313   2.960  16.217 -0.2060 -0.1408  0.3000
19732TIP3    H180611   1.310   2.946  16.312 -2.7064  0.5853  0.3762
19732TIP3    H280612   1.227   2.932  16.187  0.4477 -0.0304 -1.7180
19733TIP3   OH280613   5.578   0.652   5.721  0.0185  0.0574  0.3330
19733TIP3    H180614   5.627   0.732   5.742 -0.3968  0.3214  0.2912
19733TIP3    H280615   5.495   0.683   5.685 -0.3650 -0.3923  0.8247
19734TIP3   OH280616   2.632   2.516  15.146  0.0544  0.5343 -0.5938
19734TIP3    H180617   2.627   2.580  15.217 -1.3253  0.1978 -0.3773
19734TIP3    H280618   2.663   2.436  15.188 -1.8158  0.0255 -0.1377
19735TIP3   OH280619   0.669   2.084  16.080  0.5565 -0.0418  0.0358
19735TIP3    H180620   0.739   2.149  16.080  0.7650 -0.2610 -0.7183
19735TIP3    H280621   0.610   2.112  16.011  1.0742 -1.1032 -0.8483
19736TIP3   OH280622   1.176   3.138   0.122  0.3744 -0.0455  0.3873
19736TIP3    H180623   1.125   3.117   0.201 -0.1739 -1.8942 -0.4374
19736TIP3    H280624   1.136   3.217   0.088  1.2275  1.3485  2.4898
19737TIP3   OH280625   0.982   4.629  16.834  0.4173 -0.1772 -0.5651
19737TIP3    H180626   1.074   4.609  16.820  1.1586  1.3926  1.6926
19737TIP3    H280627   0.958   4.685  16.760  0.5024 -2.7407 -2.5843
19738TIP3   OH280628   1.351   3.068   4.983 -0.1610  0.5233  0.0191
19738TIP3    H180629   1.410   2.999   5.013  1.1166  2.1761  1.3886
19738TIP3    H280630   1.277   3.064   5.042  0.9173  1.7183  1.4980
19739TIP3   OH280631   5.342   3.507   2.911 -0.1204  0.1899 -0.1391
19739TIP3    H180632   5.281   3.467   2.973  2.8811 -0.6767  2.4508
19739TIP3    H280633   5.341   3.600   2.933 -0.0556  0.0818  0.3314
19740TIP3   OH280634   2.076   0.541   5.937 -0.0677 -0.5654  0.0701
19740TIP3    H180635   1.999   0.596   5.952 -0.1134 -0.9160  1.1533
19740TIP3    H280636   2.118   0.535   6.022  1.4903  0.0901 -0.6335
19741TIP3   OH280637   4.275   0.580   0.209 -0.2383 -0.1085 -0.1164
19741TIP3    H180638   4.369   0.593   0.204 -0.3935  0.7612 -1.1100
19741TIP3    H280639   4.262   0.487   0.190  0.4332 -0.2916  0.3081
19742TIP3   OH280640   4.134   1.552  13.356  0.7309 -0.3371  0.1282
19742TIP3    H180641   4.108   1.636  13.320  0.3415 -0.7952 -0.6531
19742TIP3    H280642   4.062   1.527  13.414  2.2766  1.4013  2.9502
19743TIP3   OH280643   3.579   5.712  16.419  0.1834  0.5750 -0.5651
19743TIP3    H180644   3.498   5.726  16.467  0.0446  1.1316 -0.9712
19743TIP3    H280645   3.647   5.707  16.487 -0.1226  0.5733 -0.2632
19744TIP3   OH280646   3.761   2.760  16.620 -0.9372  0.0257 -0.6384
19744TIP3    H180647   3.736   2.846  16.653 -1.7599 -0.8209  1.0480
19744TIP3    H280648   3.796   2.776  16.533 -0.1108  2.1883  0.0688
19745TIP3   OH280649   3.227   4.715  13.424 -0.0550  0.2495 -0.3720
19745TIP3    H180650   3.164   4.664  13.475 -0.0396 -0.1284 -0.7325
19745TIP3    H280651   3.299   4.730  13.485 -1.2361  2.1838  0.6102
19746TIP3   OH280652   5.686   5.276   5.075  0.7820  0.0696 -0.3069
19746TIP3    H180653   5.731   5.275   4.991  1.2051  2.4972 -0.1567
19746TIP3    H280654   5.735   5.214   5.129  2.6994  1.1257 -0.7852
19747TIP3   OH280655   1.914   6.746   0.927  0.9147 -0.2566 -0.2123
19747TIP3    H180656   1.837   6.779   0.881  0.5978 -1.4966 -0.5827
19747TIP3    H280657   1.944   6.671   0.875  2.0027 -0.1652  0.2604
19748TIP3   OH280658   3.075   5.141   0.377  0.0257 -0.4436  0.0869
19748TIP3    H180659   3.014   5.085   0.425  0.8685 -1.5413 -0.1111
19748TIP3    H280660   3.138   5.170   0.443 -0.1123 -0.1283  0.0836
19749TIP3   OH280661   4.434   0.509  14.388 -0.3279  0.0928 -0.1942
19749TIP3    H180662   4.397   0.495  14.301 -0.9493 -0.6952  0.1911
19749TIP3    H280663   4.492   0.434  14.402  0.1928  0.5011 -0.1464
19750TIP3   OH280664   0.550   4.620   3.149  0.7156  0.4583  0.0118
19750TIP3    H180665   0.492   4.690   3.179  2.0777 -0.1302  4.3146
19750TIP3    H280666   0.523   4.543   3.199  1.8794 -1.1282 -1.7021
19751TIP3   OH280667   5.763   0.303   4.857 -0.5217  0.5697  0.0600
19751TIP3    H180668   5.685   0.247   4.856 -0.4285  0.4352  0.2158
19751TIP3    H280669   5.730   0.391   4.870 -0.5551  0.3541  1.5084
19752TIP3   OH280670   2.910   3.545   6.035  0.0829 -0.4715  0.2975
19752TIP3    H180671   2.956   3.556   6.118 -0.3973  2.9275  0.1696
19752TIP3    H280672   2.817   3.541   6.059 -0.1958  2.3551 -0.1560
19753TIP3   OH280673   5.888   4.189   2.284 -0.3419  0.4475 -0.4787
19753TIP3    H180674   5.925   4.211   2.370 -0.6673 -1.2544  0.1098
19753TIP3    H280675   5.812   4.134   2.304  0.7626 -1.6500 -1.9233
19754TIP3   OH280676   1.378   3.498  12.955  0.2587 -0.9535  0.3537
19754TIP3    H180677   1.425   3.528  13.033 -0.4391  1.6070 -0.1455
19754TIP3    H280678   1.420   3.415  12.932  2.4742 -0.2634  1.7024
19755TIP3   OH280679   0.742   5.004  10.794 -0.3794 -0.0758 -0.7741
19755TIP3    H180680   0.748   5.082  10.739 -0.9897  0.5585  0.0470
19755TIP3    H280681   0.769   5.033  10.881  0.9390 -1.1603 -0.8055
19756TIP3   OH280682   4.006   0.914   0.082 -0.2025  0.2770 -0.4303
19756TIP3    H180683   4.062   0.982   0.044 -0.3402  0.9398  0.5245
19756TIP3    H280684   4.029   0.834   0.034  2.1984  0.3470  0.5468
19757TIP3   OH280685   1.904   6.048  12.969 -0.5791  0.0895 -0.3348
19757TIP3    H180686   1.945   6.132  12.950  1.0523 -0.6718 -0.2315
19757TIP3    H280687   1.915   5.997  12.889  0.3148 -0.7500  0.3027
19758TIP3   OH280688   6.364   4.662   3.978 -0.4527 -0.5780 -0.2620
19758TIP3    H180689   6.405   4.600   3.917 -1.1109 -1.7962  0.4971
19758TIP3    H280690   6.353   4.742   3.927  0.7884 -0.9580 -1.1467
19759TIP3   OH280691   1.786   1.805  16.431 -0.1066  0.5731  0.2530
19759TIP3    H180692   1.717   1.815  16.365  0.2572 -0.0175 -0.2242
19759TIP3    H280693   1.848   1.876  16.411  0.4050 -0.0889 -0.5501
19760TIP3   OH280694   5.517   3.072  13.684 -0.4475  0.1485  0.1032
19760TIP3    H180695   5.457   3.004  13.715  0.5297 -0.7183  0.1137
19760TIP3    H280696   5.558   3.105  13.764 -0.0402 -0.0820 -0.0120
19761TIP3   OH280697   0.349   1.075  14.598 -0.3733  0.2758  0.7380
19761TIP3    H180698   0.373   1.143  14.661  0.6919  0.1193  0.5100
19761TIP3    H280699   0.330   0.998  14.653 -0.5916  0.4711  0.9365
19762TIP3   OH280700   3.508   4.775   1.931  0.6070 -0.2976 -0.1005
19762TIP3    H180701   3.552   4.820   1.859 -0.7590 -0.6541 -1.1931
19762TIP3    H280702   3.579   4.745   1.988  1.6470  1.0398 -0.6689
19763TIP3   OH280703   3.020   4.940  10.988 -0.1392  0.0029 -0.6376
19763TIP3    H180704   3.019   5.036  10.977 -0.2926  0.1417  0.5082
19763TIP3    H280705   3.095   4.924  11.045 -0.1706 -0.5621 -0.7572
19764TIP3   OH280706   0.325   0.734   5.376  0.2232  0.5493  0.2007
19764TIP3    H180707   0.271   0.774   5.443 -0.7365 -1.5667  0.7338
19764TIP3    H280708   0.318   0.640   5.392  1.1358  0.0716 -1.9703
19765TIP3   OH280709   6.684   4.732   4.578  0.0065 -0.6095 -0.0588
19765TIP3    H180710   6.614   4.683   4.535  0.5363 -2.1239  0.7687
19765TIP3    H280711   6.759   4.725   4.518 -0.3657  0.5508 -0.6852
19766TIP3   OH280712   4.567   3.051  10.881 -0.1839 -0.0675 -0.1142
19766TIP3    H180713   4.496   3.109  10.910  0.4618  2.0615 -2.6310
19766TIP3    H280714   4.627   3.049  10.956 -0.5586  1.9812  0.2903
19767TIP3   OH280715   6.094   3.815   0.978 -0.4431  0.1248  0.0488
19767TIP3    H180716   6.035   3.830   0.904 -2.2463 -1.9442  1.0194
19767TIP3    H280717   6.080   3.892   1.035  1.3729  1.9982 -1.9745
19768TIP3   OH280718   0.351   4.139  11.389  0.2827  0.0846  0.3260
19768TIP3    H180719   0.352   4.098  11.475 -0.6998 -0.7214 -0.0502
19768TIP3    H280720   0.444   4.153  11.368  0.5075  0.6200  1.6710
19769TIP3   OH280721   5.945   1.043   1.423 -0.4163  0.5300 -0.2514
19769TIP3    H180722   6.019   1.102   1.438 -0.5566  0.8261 -0.7218
19769TIP3    H280723   5.983   0.956   1.426 -0.0686  0.6763 -0.3454
19770TIP3   OH280724   5.100   5.423  14.831 -0.6155 -0.2030 -0.2212
19770TIP3    H180725   5.114   5.337  14.791  2.3770  0.1871 -0.1274
19770TIP3    H280726   5.114   5.485  14.760  0.2034  0.3119  0.3835
19771TIP3   OH280727   6.595   5.235  15.303 -0.3203  0.6445  0.6495
19771TIP3    H180728   6.568   5.323  15.329  2.1683  1.4310  0.6141
19771TIP3    H280729   6.673   5.216  15.354  0.4466 -0.6762 -0.9327
19772TIP3   OH280730   4.158   6.590  12.250 -0.2762  0.0084  0.4201
19772TIP3    H180731   4.157   6.686  12.251 -1.3534  0.0061  3.4339
19772TIP3    H280732   4.214   6.567  12.324 -0.7252 -1.7079  0.2280
19773TIP3   OH280733   2.418   0.968   5.843 -0.1973  0.2552 -0.4165
19773TIP3    H180734   2.476   1.003   5.910 -1.3792  0.2962  0.6142
19773TIP3    H280735   2.379   0.890   5.883 -1.1082  0.4294 -0.9478
19774TIP3   OH280736   1.794   4.617   3.722 -0.2265  0.2543 -0.2255
19774TIP3    H180737   1.709   4.660   3.725 -0.4441 -0.1369 -0.7291
19774TIP3    H280738   1.780   4.539   3.670  0.3789  0.0392 -0.0749
19775TIP3   OH280739   0.920   1.274   0.452 -0.2684 -0.1560 -1.6164
19775TIP3    H180740   0.902   1.180   0.449  0.2758 -0.2465 -2.1688
19775TIP3    H280741   0.882   1.304   0.535 -1.2935 -0.6879 -1.8936
19776TIP3   OH280742   0.198   6.098   2.472 -0.3061  0.0096  0.4442
19776TIP3    H180743   0.284   6.106   2.515 -0.4605 -0.3367  0.8137
19776TIP3    H280744   0.140   6.065   2.540 -0.9548  1.1733  0.4592
19777TIP3   OH280745   3.766   6.192   5.622  0.6997  0.0826  0.1682
19777TIP3    H180746   3.719   6.196   5.539  1.3837 -0.9631 -0.2821
19777TIP3    H280747   3.854   6.163   5.598  0.9106 -0.1853  1.2539
19778TIP3   OH280748   6.399   1.236   3.932  0.2139  0.3137 -0.1724
19778TIP3    H180749   6.434   1.257   4.019 -0.7193 -0.6877  0.4597
19778TIP3    H280750   6.471   1.254   3.872  1.6945 -1.3404  1.0666
19779TIP3   OH280751   1.035   3.282  14.148 -0.1942 -0.1188 -0.4020
19779TIP3    H180752   1.126   3.253  14.159  0.6629  2.6203  0.0326
19779TIP3    H280753   0.987   3.236  14.217  0.9971 -0.9073 -0.0774
19780TIP3   OH280754   3.798   2.243   3.586 -0.7025 -0.0655 -0.2251
19780TIP3    H180755   3.775   2.305   3.654  2.5713  0.4456  0.4759
19780TIP3    H280756   3.844   2.173   3.631 -1.8059 -1.6120 -1.4172
19781TIP3   OH280757   4.338   5.685  15.763  0.1273  0.0969  0.3479
19781TIP3    H180758   4.432   5.697  15.753  0.1649  0.1790  0.7799
19781TIP3    H280759   4.299   5.767  15.734  0.2014  0.1378  0.3675
19782TIP3   OH280760   5.283   0.031  16.104  0.1316 -0.0675 -0.6690
19782TIP3    H180761   5.314   0.063  16.188  2.7448 -0.0221 -1.6153
19782TIP3    H280762   5.210   0.089  16.082  1.5504  2.0297 -0.0005
19783TIP3   OH280763   3.960   3.341   7.046 -0.2516 -0.4415  0.0433
19783TIP3    H180764   3.875   3.316   7.010 -0.8770 -0.3383  1.4045
19783TIP3    H280765   3.988   3.415   6.992 -1.1689 -0.2905 -0.2340
19784TIP3   OH280766   3.977   3.121  12.447 -0.6620 -0.6271 -0.2458
19784TIP3    H180767   3.885   3.103  12.428 -0.6174 -0.2472 -0.8286
19784TIP3    H280768   4.017   3.034  12.458 -1.9454 -0.7293  4.2062
19785TIP3   OH280769   5.164   6.191  12.044  0.5009  0.1608  0.2001
19785TIP3    H180770   5.207   6.221  11.963 -1.3580 -1.5066 -1.4574
19785TIP3    H280771   5.070   6.199  12.026  0.0275 -2.1205  1.4400
19786TIP3   OH280772   0.948   0.097  15.756  0.0522 -0.1379 -0.2793
19786TIP3    H180773   1.031   0.116  15.799  1.1040 -1.9886 -1.4524
19786TIP3    H280774   0.895   0.054  15.824  0.3587  0.3018  0.2342
19787TIP3   OH280775   2.227   5.797  11.535  0.0101 -0.3826  0.3228
19787TIP3    H180776   2.143   5.795  11.489 -0.3776  1.0964  0.9238
19787TIP3    H280777   2.208   5.764  11.622  0.8428 -3.6398 -0.6820
19788TIP3   OH280778   5.541   0.934   5.294 -0.0134  0.0289  0.0192
19788TIP3    H180779   5.628   0.968   5.314  0.1903 -1.5077  1.8132
19788TIP3    H280780   5.496   0.933   5.379 -1.2113 -0.7746 -0.6197
19789TIP3   OH280781   6.231   2.359  14.282  0.2199  0.6981  0.1154
19789TIP3    H180782   6.143   2.394  14.276 -0.3021 -0.8896 -2.3179
19789TIP3    H280783   6.220   2.273  14.323  0.7091  0.7699  0.4014
19790TIP3   OH280784   5.595   3.508   6.696 -0.2563 -0.6290 -0.7108
19790TIP3    H180785   5.680   3.527   6.657  0.2313 -0.4081  0.4394
19790TIP3    H280786   5.538   3.488   6.621  0.4466  0.6111 -1.5984
19791TIP3   OH280787   0.081   5.306  17.230 -0.0653  0.2439  0.3943
19791TIP3    H180788   0.067   5.401  17.235 -0.4916  0.1928  0.1581
19791TIP3    H280789   0.070   5.285  17.138  0.4156  0.0211  0.3841
19792TIP3   OH280790   2.757   4.371   2.628  0.0569 -0.0285 -0.6053
19792TIP3    H180791   2.825   4.422   2.672  0.9451  0.0018 -1.9834
19792TIP3    H280792   2.711   4.326   2.698 -0.8206  2.7573  0.6707
19793TIP3   OH280793   4.641   3.044  14.033  0.4393  0.2081 -0.4492
19793TIP3    H180794   4.674   3.131  14.052  1.5181 -0.2221 -0.3306
19793TIP3    H280795   4.561   3.036  14.086  1.4986  0.3307  1.2108
19794TIP3   OH280796   0.226   5.436  13.117  0.3440  0.3392 -0.3814
19794TIP3    H180797   0.225   5.385  13.036  0.2554 -0.6707  0.2428
19794TIP3    H280798   0.192   5.376  13.183 -2.2848  2.0670 -0.1160
19795TIP3   OH280799   6.084   3.431  14.051  0.0502  0.5379 -0.6399
19795TIP3    H180800   6.117   3.454  13.965 -0.1161 -2.2422 -1.4764
19795TIP3    H280801   5.990   3.421  14.039 -0.0019  0.3374 -0.0869
19796TIP3   OH280802   0.115   5.817  13.273 -0.3830 -0.0340 -0.4785
19796TIP3    H180803   0.144   5.745  13.329 -1.1231  0.0012 -0.0447
19796TIP3    H280804   0.196   5.856  13.241  0.0301 -0.8574 -0.4632
19797TIP3   OH280805   1.311   1.692  16.678  0.0579 -0.4965  0.1097
19797TIP3    H180806   1.399   1.657  16.687 -0.0066 -1.0601 -1.3046
19797TIP3    H280807   1.318   1.758  16.609 -0.5880 -0.4042  0.1267
19798TIP3   OH280808   0.562   3.382   3.911  0.8082 -0.8910 -0.1638
19798TIP3    H180809   0.617   3.309   3.884  2.6136 -0.3897  2.0250
19798TIP3    H280810   0.618   3.459   3.904 -0.5684  0.0851 -0.8581
19799TIP3   OH280811   1.564   5.076  12.568 -0.4764 -0.8286 -0.1674
19799TIP3    H180812   1.587   5.166  12.591  0.4912 -1.5312  1.7263
19799TIP3    H280813   1.476   5.083  12.532 -0.6459  0.8133  0.4975
19800TIP3   OH280814   2.555   3.254  15.476 -0.5740  0.5977  0.1932
19800TIP3    H180815   2.529   3.289  15.391 -1.0249 -1.6259 -0.6126
19800TIP3    H280816   2.585   3.330  15.525 -1.3337  2.0704 -1.5723
19801TIP3   OH280817   2.337   2.024   4.570  0.3271  0.0689  0.0926
19801TIP3    H180818   2.331   1.950   4.631 -1.0071  0.8556  0.9297
19801TIP3    H280819   2.247   2.041   4.545  0.9814 -1.2679 -3.4037
19802TIP3   OH280820   2.120   5.120   1.886  0.2660 -0.3874  0.1813
19802TIP3    H180821   2.059   5.093   1.817 -1.4996  1.1023  1.1137
19802TIP3    H280822   2.072   5.106   1.968  1.3045  0.4649  0.9491
19803TIP3   OH280823   2.406   6.268   1.039 -0.3960  0.1794 -0.1055
19803TIP3    H180824   2.359   6.190   1.069  1.5705 -0.4671  1.4080
19803TIP3    H280825   2.495   6.237   1.025 -0.0122  1.7704 -1.2739
19804TIP3   OH280826   5.616   0.558   0.040  0.4037  1.0213  0.5875
19804TIP3    H180827   5.621   0.520   0.128 -2.3172 -0.4488  0.1677
19804TIP3    H280828   5.653   0.492  -0.018 -0.5264  0.7485  0.3036
19805TIP3   OH280829   4.132   5.141  10.803  0.1138  0.0501 -0.6489
19805TIP3    H180830   4.189   5.193  10.746 -2.5218  1.5142 -2.0463
19805TIP3    H280831   4.144   5.179  10.890  1.0334  0.5318 -0.9743
19806TIP3   OH280832   5.737   2.028  14.749  0.3551 -0.3493  0.1935
19806TIP3    H180833   5.678   2.073  14.809  0.2281  0.0003 -0.1877
19806TIP3    H280834   5.825   2.044  14.784  0.2758 -0.2007  0.3222
19807TIP3   OH280835   3.733   3.641   5.841 -0.5332 -0.3942 -0.7734
19807TIP3    H180836   3.712   3.704   5.911 -0.5878  0.1188 -1.2434
19807TIP3    H280837   3.739   3.695   5.762 -0.4803 -0.9730 -1.1658
19808TIP3   OH280838   0.607   2.679  16.140  0.6671  0.2704  0.0513
19808TIP3    H180839   0.700   2.671  16.163  0.8484  2.3621  0.1899
19808TIP3    H280840   0.562   2.621  16.201  1.8417 -0.4323  0.2741
19809TIP3   OH280841   4.929   2.001   5.153 -0.2310 -0.3454 -0.3082
19809TIP3    H180842   4.900   2.092   5.146 -1.1818 -0.5550  0.7177
19809TIP3    H280843   4.925   1.968   5.063 -1.1516  0.2474 -0.4976
19810TIP3   OH280844   2.747   5.768  15.544  0.1331  0.0928  0.5481
19810TIP3    H180845   2.815   5.786  15.609  0.7347 -0.5015  0.0967
19810TIP3    H280846   2.667   5.804  15.582  0.6557  0.5859  1.1948
19811TIP3   OH280847   3.881   0.396   5.065 -0.7774  0.5280 -0.1665
19811TIP3    H180848   3.833   0.474   5.094 -1.2625 -0.5867  2.1043
19811TIP3    H280849   3.952   0.387   5.129 -1.1479 -1.2955  0.0026
19812TIP3   OH280850   6.383   0.392   2.794  0.7832 -0.1157  0.3353
19812TIP3    H180851   6.449   0.334   2.831  0.0984 -1.3894 -0.4161
19812TIP3    H280852   6.299   0.350   2.814  0.0257  2.5155  3.1141
19813TIP3   OH280853   6.347   5.098  15.178  0.1126 -0.4751 -0.7596
19813TIP3    H180854   6.414   5.147  15.226 -0.0980 -0.0935 -0.8501
19813TIP3    H280855   6.304   5.044  15.245  0.1147 -0.2748 -0.5964
19814TIP3   OH280856   4.850   3.075  11.810  0.0366  0.0920 -0.0668
19814TIP3    H180857   4.832   3.109  11.722  0.5266 -0.4249 -0.3628
19814TIP3    H280858   4.937   3.036  11.804 -0.1066 -0.3282  0.5379
19815TIP3   OH280859   4.288   0.951  14.877 -0.1318 -0.3407 -0.5114
19815TIP3    H180860   4.226   1.000  14.824 -1.1559 -0.2895  0.7007
19815TIP3    H280861   4.344   1.017  14.917  0.5299 -0.3688 -1.3951
19816TIP3   OH280862   1.116   4.928   5.330 -0.0447  0.0157  0.5533
19816TIP3    H180863   1.050   4.996   5.320  0.0829  0.0694  0.0899
19816TIP3    H280864   1.184   4.969   5.384  0.2293  0.3895 -0.0791
19817TIP3   OH280865   3.885   3.593  13.089 -0.3168  0.0454 -0.2244
19817TIP3    H180866   3.971   3.602  13.131  0.6680 -1.7473 -1.8202
19817TIP3    H280867   3.870   3.678  13.047  0.8849  0.2168 -0.3262
19818TIP3   OH280868   0.848   1.868  11.561 -0.1837  0.0478  0.1633
19818TIP3    H180869   0.906   1.829  11.496 -1.1775  0.5910 -1.0746
19818TIP3    H280870   0.772   1.898  11.511 -1.1879  0.0421  1.6480
19819TIP3   OH280871   5.873   2.039  12.404 -0.2363  0.5893  0.4020
19819TIP3    H180872   5.881   2.029  12.499  0.2827  1.1564  0.4174
19819TIP3    H280873   5.954   2.002  12.370  0.8943  3.0648  0.3501
19820TIP3   OH280874   3.376   5.889  12.369 -0.0869 -0.1690 -0.2380
19820TIP3    H180875   3.443   5.824  12.347  0.7613  0.2903  0.9791
19820TIP3    H280876   3.318   5.890  12.292  2.3743  0.8309 -2.1566
19821TIP3   OH280877   4.790   5.844   0.282 -0.4875  0.5594 -0.3114
19821TIP3    H180878   4.854   5.777   0.305 -1.3407 -0.4787 -0.8560
19821TIP3    H280879   4.763   5.882   0.365  0.9749  1.1468 -0.0987
19822TIP3   OH280880   6.652   1.916   5.740  1.0350  0.0000 -0.5662
19822TIP3    H180881   6.598   1.913   5.818  0.1733 -0.2236 -1.1638
19822TIP3    H280882   6.742   1.916   5.773  0.6864 -0.5972  0.4026
19823TIP3   OH280883   2.077   6.271   2.451  0.4358 -0.2062 -0.1003
19823TIP3    H180884   2.075   6.342   2.516 -0.6619  0.1638 -0.5332
19823TIP3    H280885   2.169   6.245   2.447  0.7744  0.8909  0.3982
19824TIP3   OH280886   4.733   0.354   0.569  0.1755 -0.2179  0.3263
19824TIP3    H180887   4.743   0.259   0.558  1.6122 -0.6740  4.8700
19824TIP3    H280888   4.643   0.364   0.602  0.2167 -0.0172  0.3714
19825TIP3   OH280889   0.902   5.542  15.518 -0.2082 -0.4894 -0.2353
19825TIP3    H180890   0.920   5.461  15.567 -0.6028 -0.2877  0.2463
19825TIP3    H280891   0.815   5.528  15.482 -0.7589  0.1896  0.8087
19826TIP3   OH280892   4.172   3.839   1.824 -0.0977 -0.0792  0.2316
19826TIP3    H180893   4.134   3.923   1.850 -0.4668  0.0533 -0.7240
19826TIP3    H280894   4.235   3.862   1.756  0.5154 -0.4744  0.6654
19827TIP3   OH280895   4.803   1.447  15.102 -0.4681 -0.1639 -0.1940
19827TIP3    H180896   4.724   1.490  15.071 -0.4370 -0.2553 -0.3978
19827TIP3    H280897   4.871   1.472  15.039 -0.7827 -1.7799 -1.2182
19828TIP3   OH280898   0.729   3.821  16.785  0.4561  0.9033  0.0005
19828TIP3    H180899   0.703   3.795  16.874  0.9542  1.0196  0.1815
19828TIP3    H280900   0.706   3.914  16.779 -0.4008  0.6784 -0.2997
19829TIP3   OH280901   1.152   4.858   0.136 -0.1057  0.4765 -0.1493
19829TIP3    H180902   1.087   4.814   0.191  1.7780 -0.7314  1.1655
19829TIP3    H280903   1.102   4.891   0.061 -2.1643 -0.6955  0.6813
19830TIP3   OH280904   2.246   1.031  12.897  0.5478  0.3414  0.1547
19830TIP3    H180905   2.226   0.970  12.968  2.3136 -0.4318 -0.0058
19830TIP3    H280906   2.255   0.976  12.819 -0.2914  1.0734 -0.4695
19831TIP3   OH280907   4.088   4.675   0.203 -0.1269  0.1216  0.0246
19831TIP3    H180908   4.080   4.653   0.296  0.9419 -0.5178 -0.0244
19831TIP3    H280909   4.166   4.628   0.174  0.0268  0.9945 -1.0048
19832TIP3   OH280910   3.213   4.384  11.233  0.1584  0.4344 -0.5178
19832TIP3    H180911   3.171   4.318  11.287 -0.4501  1.6708  0.5393
19832TIP3    H280912   3.266   4.334  11.170 -0.3985 -1.0400  0.1780
19833TIP3   OH280913   6.328   6.750  15.303  0.1080 -0.6487 -0.1358
19833TIP3    H180914   6.282   6.750  15.387 -3.0888 -0.0914 -1.8103
19833TIP3    H280915   6.344   6.658  15.284  0.0496 -0.8293  0.6558
19834TIP3   OH280916   2.134   2.161  16.486 -0.0248 -0.6401 -0.0106
19834TIP3    H180917   2.220   2.129  16.459 -0.0191  1.3099 -2.5251
19834TIP3    H280918   2.136   2.255  16.465 -2.3921 -0.3698  0.8341
19835TIP3   OH280919   5.289   5.360  15.823 -0.0601  0.8614 -0.3775
19835TIP3    H180920   5.233   5.290  15.790  0.5744  0.3214 -0.3251
19835TIP3    H280921   5.309   5.413  15.746 -0.0767  0.6578 -0.5217
19836TIP3   OH280922   1.900   2.228   1.786 -0.4352 -0.3172 -0.4085
19836TIP3    H180923   1.907   2.290   1.859 -0.5066 -1.1499  0.3197
19836TIP3    H280924   1.889   2.283   1.709 -1.4929  0.5641  0.3386
19837TIP3   OH280925   4.056   0.806   3.784  0.5525  0.1708  0.0241
19837TIP3    H180926   3.995   0.759   3.727  0.0471 -0.6289  1.2251
19837TIP3    H280927   4.025   0.896   3.783  0.8277  0.2686 -1.3424
19838TIP3   OH280928   6.765   4.789  14.967  0.5018 -0.1711  0.2574
19838TIP3    H180929   6.674   4.771  14.993 -0.4567  1.5970 -1.6989
19838TIP3    H280930   6.780   4.730  14.893  0.3080  0.8194 -0.5828
19839TIP3   OH280931   6.428   4.231   1.461  0.0003  0.4261  0.2039
19839TIP3    H180932   6.473   4.265   1.384 -0.7828 -1.6825 -1.2408
19839TIP3    H280933   6.445   4.137   1.459 -2.5482 -0.0949  0.9118
19840TIP3   OH280934   2.921   5.407   0.990 -0.1769  0.0135 -0.3003
19840TIP3    H180935   2.856   5.386   1.058 -0.0477  0.7378  0.0564
19840TIP3    H280936   2.869   5.420   0.911 -0.4475  0.3702 -0.0681
19841TIP3   OH280937   1.919   0.424   0.370 -0.7179  0.2817 -0.3622
19841TIP3    H180938   1.984   0.437   0.300 -0.5611  0.5053 -0.1766
19841TIP3    H280939   1.939   0.492   0.434 -0.4461 -0.3309  0.2107
19842TIP3   OH280940   3.697   4.490  15.306  0.1434 -0.5768  0.1802
19842TIP3    H180941   3.686   4.583  15.284  0.1578  0.2320  3.2709
19842TIP3    H280942   3.791   4.475  15.301  0.0916 -0.5900 -0.8720
19843TIP3   OH280943   3.450   3.331   6.331  0.1424 -0.5772  0.3804
19843TIP3    H180944   3.396   3.324   6.409  0.6796  0.3925  0.8485
19843TIP3    H280945   3.508   3.254   6.335 -1.2220 -1.6554 -0.1610
19844TIP3   OH280946   2.372   4.735   0.672 -0.2994 -0.7844 -0.1255
19844TIP3    H180947   2.422   4.663   0.632 -0.6539 -0.6308 -0.8485
19844TIP3    H280948   2.281   4.709   0.664 -0.4729  0.0994 -1.0883
19845TIP3   OH280949   1.194   6.000   5.839  0.0527  0.7039  0.3917
19845TIP3    H180950   1.220   5.917   5.878  1.6426  0.0074 -2.0401
19845TIP3    H280951   1.219   5.993   5.747 -1.0370  3.3569 -0.1743
19846TIP3   OH280952   3.447   4.478   0.066 -0.2751  0.0250 -0.1831
19846TIP3    H180953   3.477   4.468  -0.024 -0.7203 -1.5716 -0.1817
19846TIP3    H280954   3.351   4.485   0.059 -0.2408  0.7701  0.1016
19847TIP3   OH280955   2.943   1.714   4.136  0.5170 -0.3372  0.1492
19847TIP3    H180956   2.913   1.645   4.078 -0.9666  0.9790 -0.6729
19847TIP3    H280957   2.918   1.684   4.224 -1.4466 -0.1956 -0.3346
19848TIP3   OH280958   2.909   3.684  12.569 -0.0807  0.2267  0.4505
19848TIP3    H180959   2.940   3.601  12.605 -0.7216  0.5496  1.7616
19848TIP3    H280960   2.989   3.736  12.558  0.2811 -0.4134 -0.0146
19849TIP3   OH280961   1.729   3.872   2.052 -0.1592  0.1475  0.1972
19849TIP3    H180962   1.652   3.918   2.085  0.3403 -0.0296  1.6294
19849TIP3    H280963   1.773   3.839   2.130  0.1626 -1.7192 -0.7501
19850TIP3   OH280964   0.041   3.734  12.625 -0.1958  0.3221 -0.1584
19850TIP3    H180965   0.035   3.803  12.691  0.1144  0.0857  0.1168
19850TIP3    H280966   0.135   3.718  12.615 -0.2761 -0.2095 -0.0706
19851TIP3   OH280967   6.008   6.512  11.668 -0.0338  0.2188 -0.3359
19851TIP3    H180968   6.051   6.582  11.717 -0.6714  1.5579 -1.6612
19851TIP3    H280969   5.938   6.555  11.620 -0.6887 -1.3960 -0.8725
19852TIP3   OH280970   5.208   5.449  11.216 -0.2252  0.0948  0.4834
19852TIP3    H180971   5.274   5.518  11.219 -1.3316  1.1072  2.6959
19852TIP3    H280972   5.127   5.492  11.244 -0.8445 -2.1822  2.3682
19853TIP3   OH280973   4.358   2.701  14.412 -0.3394 -0.2212  0.3242
19853TIP3    H180974   4.350   2.755  14.490  0.6211 -0.1917  0.4057
19853TIP3    H280975   4.368   2.612  14.445 -0.5420 -0.2850  0.2169
19854TIP3   OH280976   4.528   4.585  15.348  0.2272  0.3935  0.0612
19854TIP3    H180977   4.554   4.665  15.395  1.0845  0.3477 -0.3354
19854TIP3    H280978   4.507   4.523  15.418 -1.3253  1.2518  0.3667
19855TIP3   OH280979   6.184   3.073   0.592  0.3466 -0.3174  0.2371
19855TIP3    H180980   6.114   3.026   0.636  2.1101 -1.3327  2.0837
19855TIP3    H280981   6.160   3.166   0.600 -1.1705 -0.7039  0.1295
19856TIP3   OH280982   0.963   4.584  13.164 -0.3026 -0.0341  0.0885
19856TIP3    H180983   0.882   4.541  13.138 -0.0720 -1.6992  1.9808
19856TIP3    H280984   0.936   4.650  13.228 -0.3740  0.8931 -0.8811
19857TIP3   OH280985   4.916   1.936  14.902  0.4478  0.2687 -0.1650
19857TIP3    H180986   4.911   1.896  14.815  0.3643 -2.8773  1.2208
19857TIP3    H280987   4.829   1.973  14.917  0.4147  0.6675 -1.3536
19858TIP3   OH280988   2.209   4.248  12.713 -0.6797  0.5329  0.2382
19858TIP3    H180989   2.228   4.155  12.702 -2.0433  0.2255  0.2860
19858TIP3    H280990   2.183   4.278  12.626 -2.0676  0.4038  0.5878
19859TIP3   OH280991   2.556   2.907   5.526  0.4585 -0.3836  0.3914
19859TIP3    H180992   2.510   2.991   5.520 -0.2965 -0.9185 -1.7742
19859TIP3    H280993   2.527   2.869   5.608 -0.6311  0.6523  0.4931
19860TIP3   OH280994   4.956   3.019   3.092 -0.2004 -0.0402 -0.4568
19860TIP3    H180995   4.881   3.006   3.034 -1.1915  0.2992  0.7253
19860TIP3    H280996   4.936   3.101   3.138  1.0445  0.2113 -0.3540
19861TIP3   OH280997   1.274   4.443  13.520  0.0462  0.2642  0.0656
19861TIP3    H180998   1.274   4.358  13.564 -0.0618  0.3834  0.2994
19861TIP3    H280999   1.360   4.449  13.479 -0.0619 -0.0922 -0.2133
19862TIP3   OH281000   0.850   2.562  15.560 -0.4221  0.6182 -0.3930
19862TIP3    H181001   0.828   2.646  15.520  2.7102  1.9711  0.5206
19862TIP3    H281002   0.804   2.563  15.644  0.4895  1.9445  0.1018
19863TIP3   OH281003   1.064   4.365  15.848  0.2450 -0.4905  0.1579
19863TIP3    H181004   1.110   4.283  15.865 -1.3131 -1.6113 -0.9918
19863TIP3    H281005   1.069   4.376  15.754 -0.5867  0.1395  0.1901
19864TIP3   OH281006   2.335   1.229  14.561  0.3167 -0.1785  0.0854
19864TIP3    H181007   2.306   1.246  14.651  0.1776 -1.5414  0.2989
19864TIP3    H281008   2.254   1.209  14.514  0.2369  1.6871 -0.6303
19865TIP3   OH281009   3.025   1.810  14.764 -0.1734  0.0328 -0.5391
19865TIP3    H181010   3.015   1.735  14.823 -1.1601 -0.7237 -1.6382
19865TIP3    H281011   2.937   1.825  14.729  0.3057  0.7590 -1.4634
19866TIP3   OH281012   5.963   4.760  12.043  0.3586  0.8180  0.4365
19866TIP3    H181013   6.043   4.714  12.068  1.3440  1.3087 -1.6683
19866TIP3    H281014   5.994   4.840  12.000 -1.2468  0.5468 -1.3018
19867TIP3   OH281015   0.724   5.748  14.802 -0.3886 -0.0790  0.6332
19867TIP3    H181016   0.775   5.762  14.722 -1.1579  0.5247  0.2459
19867TIP3    H281017   0.746   5.658  14.828 -1.1545 -0.7565 -0.9953
19868TIP3   OH281018   1.567   6.645  15.994  0.3505  0.1244 -0.7281
19868TIP3    H181019   1.514   6.717  15.960  0.9440  1.3676  0.8986
19868TIP3    H281020   1.517   6.611  16.068  0.1643 -1.0219 -1.3684
19869TIP3   OH281021   1.455   2.641   3.319  0.2231  0.6722 -0.0278
19869TIP3    H181022   1.489   2.729   3.337  0.6420  0.4133  0.4546
19869TIP3    H281023   1.501   2.613   3.240  0.0795  0.8954 -0.1884
19870TIP3   OH281024   4.898   6.361  13.846  0.7561 -0.1758  0.1091
19870TIP3    H181025   4.982   6.355  13.891  0.9168 -0.1872 -0.1911
19870TIP3    H281026   4.835   6.380  13.915  0.8550 -1.1974  0.4888
19871TIP3   OH281027   3.470   5.856  12.029 -0.1079 -0.1637 -0.0048
19871TIP3    H181028   3.517   5.802  12.091 -0.2651  1.6927  1.7879
19871TIP3    H281029   3.388   5.878  12.073 -0.3593  0.9274 -0.9737
19872TIP3   OH281030   6.091   3.299  13.603 -0.0272 -0.1383  0.0050
19872TIP3    H181031   5.997   3.315  13.614  0.4495  1.3934  2.1607
19872TIP3    H281032   6.097   3.205  13.583 -1.9724 -0.3994  0.5003
19873TIP3   OH281033   6.055   3.210  15.863 -0.2606  0.2837  0.2877
19873TIP3    H181034   6.030   3.118  15.850  0.8548  0.1255 -0.8029
19873TIP3    H281035   6.150   3.211  15.852 -0.5025  1.9202 -1.9725
19874TIP3   OH281036   1.170   4.112   4.229  0.0407 -0.1174 -0.0699
19874TIP3    H181037   1.142   4.023   4.209 -2.2360 -0.1480  2.8632
19874TIP3    H281038   1.098   4.167   4.199  0.0705  0.4507  0.8899
19875TIP3   OH281039   5.933   1.578  16.820 -0.5332 -0.0518 -0.2338
19875TIP3    H181040   5.983   1.606  16.897 -1.8236  1.3185  0.1369
19875TIP3    H281041   5.960   1.638  16.751  1.5546 -2.0785 -1.1953
19876TIP3   OH281042   4.010   5.833   4.302 -0.3131 -0.4465 -0.0895
19876TIP3    H181043   4.041   5.799   4.385 -2.7156 -1.6622  0.3445
19876TIP3    H281044   3.955   5.908   4.326 -0.2290 -0.1946 -0.6629
19877TIP3   OH281045   0.812   2.148   3.172 -0.1566  0.2134 -0.5739
19877TIP3    H181046   0.741   2.181   3.227 -0.4509  0.5207 -1.1316
19877TIP3    H281047   0.767   2.109   3.097  0.2822  1.1560 -1.3416
19878TIP3   OH281048   5.384   5.161   4.053  0.2272 -0.4459  0.6229
19878TIP3    H181049   5.359   5.243   4.010 -0.4418 -1.3130 -0.6905
19878TIP3    H281050   5.382   5.181   4.146 -3.0894  0.1792  0.4854
19879TIP3   OH281051   5.711   0.885   5.676 -0.0689  0.0547 -0.3058
19879TIP3    H181052   5.734   0.928   5.594 -0.9176 -2.7710 -2.0648
19879TIP3    H281053   5.638   0.938   5.710  0.1677  1.1367 -1.4328
19880TIP3   OH281054   1.959   0.517  12.358 -0.4608  0.1392  0.1742
19880TIP3    H181055   1.967   0.434  12.310 -0.2220 -0.0452  0.5248
19880TIP3    H281056   1.972   0.585  12.292 -3.1599 -0.0483 -0.6004
19881TIP3   OH281057   3.032   2.709  13.041 -0.2324 -0.3126  0.4823
19881TIP3    H181058   2.943   2.702  13.074  0.1305 -0.3623  1.4500
19881TIP3    H281059   3.076   2.769  13.101  0.5320 -0.7136  0.3250
19882TIP3   OH281060   4.832   2.298  14.035  0.0808 -0.4958 -0.6789
19882TIP3    H181061   4.843   2.340  13.950 -0.2178 -0.9291 -0.9337
19882TIP3    H281062   4.752   2.247  14.026 -0.3768  0.0768  0.1191
19883TIP3   OH281063   4.540   6.323   2.388  0.3934  0.0704 -0.1411
19883TIP3    H181064   4.595   6.401   2.400  0.1498  0.1239  0.6373
19883TIP3    H281065   4.576   6.259   2.448  1.7880 -1.0743 -2.1389
19884TIP3   OH281066   5.218   0.463  12.243 -0.4325  0.3638  0.5929
19884TIP3    H181067   5.266   0.388  12.278  0.0146  0.3712 -0.0126
19884TIP3    H281068   5.285   0.521  12.208 -0.5088  2.4562  3.6928
19885TIP3   OH281069   2.137   3.678  13.947 -0.3502  0.7208  0.2438
19885TIP3    H181070   2.123   3.695  14.040 -1.2041  1.2708  0.0251
19885TIP3    H281071   2.049   3.657  13.913 -0.1318  1.0574 -0.5388
19886TIP3   OH281072   0.141   1.864  16.450  0.1091 -0.3337 -0.0787
19886TIP3    H181073   0.180   1.863  16.363 -1.0377 -1.5299 -0.6148
19886TIP3    H281074   0.197   1.806  16.502  0.4126 -0.1501 -0.2002
19887TIP3   OH281075   3.016   4.081  12.510 -1.1209 -0.4793  0.4782
19887TIP3    H181076   3.047   4.129  12.433 -0.0333 -3.4326 -1.0373
19887TIP3    H281077   2.931   4.045  12.483 -0.7929 -1.4183  0.6671
19888TIP3   OH281078   3.981   3.953  12.778  0.1565  0.2791 -0.2572
19888TIP3    H181079   4.041   3.978  12.708  0.2265 -1.0789 -0.6869
19888TIP3    H281080   3.895   3.947  12.735  0.0289  0.4098 -0.0242
19889TIP3   OH281081   5.886   1.127   1.741  0.4046  0.0968 -0.6909
19889TIP3    H181082   5.952   1.175   1.692 -0.8272  0.4432 -2.0385
19889TIP3    H281083   5.890   1.038   1.705  1.0741 -0.2376  0.1857
19890TIP3   OH281084   1.799   4.596  16.940  0.7041 -0.4539 -0.8923
19890TIP3    H181085   1.706   4.572  16.938  0.4022  0.6121 -0.3252
19890TIP3    H281086   1.822   4.612  16.849 -0.2818  1.4649 -0.8336
19891TIP3   OH281087   3.154   1.596   1.093 -0.4265  0.6260 -0.5100
19891TIP3    H181088   3.122   1.553   1.014  0.9612  0.5553 -1.0609
19891TIP3    H281089   3.082   1.650   1.123 -1.0277  0.5053 -1.7253
19892TIP3   OH281090   0.956   2.728  15.813 -0.2020 -0.3656  0.1242
19892TIP3    H181091   1.026   2.747  15.750  1.2060 -0.5747  1.5968
19892TIP3    H281092   0.992   2.754  15.898 -1.0625 -2.5343  1.2065
19893TIP3   OH281093   1.590   2.361  16.289 -0.0850 -0.3626 -0.3088
19893TIP3    H181094   1.522   2.356  16.356 -2.6407 -2.9817 -2.9262
19893TIP3    H281095   1.576   2.446  16.247 -1.2230 -0.5098 -0.2504
19894TIP3   OH281096   3.136   2.032  15.321 -0.5057  0.0324  0.2504
19894TIP3    H181097   3.114   2.125  15.316 -1.9564 -0.4011 -1.7933
19894TIP3    H281098   3.067   1.994  15.376  0.0956  0.1402  1.0986
19895TIP3   OH281099   6.504   4.236  12.890  0.5227  0.2434 -0.3128
19895TIP3    H181100   6.556   4.224  12.970 -0.3517  0.0698  0.2380
19895TIP3    H281101   6.505   4.330  12.874  1.2188  0.2140 -0.4470
19896TIP3   OH281102   0.720   4.091  16.787 -0.5500  0.2766 -0.0499
19896TIP3    H181103   0.759   4.178  16.799 -0.9631  0.4277  0.1768
19896TIP3    H281104   0.716   4.080  16.692 -0.1346  0.3386 -0.0785
19897TIP3   OH281105   3.051   1.641  12.613  0.2134  0.0430  0.4293
19897TIP3    H181106   2.987   1.624  12.543 -0.6495  1.5443  0.8224
19897TIP3    H281107   3.121   1.690  12.570  0.4758 -0.4435  0.2884
19898TIP3   OH281108   0.654   4.732   1.576 -0.0003  0.2247 -0.4644
19898TIP3    H181109   0.707   4.678   1.518 -1.9708 -0.0623 -2.0631
19898TIP3    H281110   0.564   4.720   1.545 -0.9337  1.3030  1.6643
19899TIP3   OH281111   5.177   4.927   0.424 -0.1192  0.3082 -0.0171
19899TIP3    H181112   5.201   5.006   0.376  0.0120  0.7404  0.7496
19899TIP3    H281113   5.090   4.904   0.392  0.2923  0.1447 -1.0225
19900TIP3   OH281114   2.614   0.394   2.171 -0.1208 -0.6428 -0.1269
19900TIP3    H181115   2.618   0.490   2.163 -1.2495 -0.4984  0.8670
19900TIP3    H281116   2.637   0.362   2.084 -0.8871  0.5839 -0.8037
19901TIP3   OH281117   1.699   0.904   5.336  0.7449 -0.2201  0.4815
19901TIP3    H181118   1.607   0.884   5.355  0.3198  2.0900  0.9645
19901TIP3    H281119   1.726   0.835   5.275 -0.8956 -1.7170  1.3915
19902TIP3   OH281120   1.765   6.140  11.865  0.1248 -0.9239 -0.7570
19902TIP3    H181121   1.805   6.121  11.950  1.2837  0.4069 -0.9808
19902TIP3    H281122   1.673   6.117  11.876  0.3201 -1.0334  0.7790
19903TIP3   OH281123   0.967   1.894   5.186 -0.4894 -0.3439 -0.1624
19903TIP3    H181124   1.048   1.863   5.147 -0.0900 -0.5792  0.8403
19903TIP3    H281125   0.924   1.944   5.116 -0.9804 -2.8235 -1.7176
19904TIP3   OH281126   5.390   4.260  11.534  0.1354  0.1038  0.1447
19904TIP3    H181127   5.359   4.320  11.467  0.1467 -0.0224  0.0266
19904TIP3    H281128   5.319   4.197  11.545 -0.2881  0.7148  0.9694
19905TIP3   OH281129   3.350   5.535   1.001  0.4257  0.7172 -0.0965
19905TIP3    H181130   3.313   5.591   1.070  0.2704  0.7898 -0.2390
19905TIP3    H281131   3.440   5.565   0.991  1.0604 -0.5763  1.4539
19906TIP3   OH281132   3.615   0.881   4.440  0.5141  0.0233 -0.3196
19906TIP3    H181133   3.674   0.891   4.515  0.1988 -1.6451  0.1753
19906TIP3    H281134   3.666   0.911   4.365  1.8940 -1.0752  0.1542
19907TIP3   OH281135   2.001   4.709  12.860  0.4359  0.1968  0.4329
19907TIP3    H181136   2.052   4.638  12.820  1.7391  1.9299 -1.1191
19907TIP3    H281137   1.934   4.729  12.795  0.9275  1.2869  0.2545
19908TIP3   OH281138   2.972   2.786  16.494 -0.2788 -0.4751  0.5036
19908TIP3    H181139   3.041   2.805  16.430 -0.6918 -0.6587 -0.0012
19908TIP3    H281140   2.892   2.818  16.453 -0.3094  1.0477  1.7069
19909TIP3   OH281141   1.954   0.287  14.019 -0.1646 -0.1478  0.2190
19909TIP3    H181142   1.911   0.298  13.934 -0.2512 -1.6749  0.0581
19909TIP3    H281143   1.995   0.200  14.015 -1.4026 -0.8667  2.2787
19910TIP3   OH281144   1.638   0.719  14.411  0.1898  0.3250  0.6162
19910TIP3    H181145   1.724   0.677  14.418 -0.8773 -2.1496 -0.6203
19910TIP3    H281146   1.576   0.652  14.438 -1.2722  2.7825  3.6135
19911TIP3   OH281147   0.875   2.171  12.549 -0.3021 -0.3372  0.1966
19911TIP3    H181148   0.937   2.200  12.483 -1.4998 -1.2955 -1.3920
19911TIP3    H281149   0.927   2.120  12.611  0.4143 -1.7337 -1.5080
19912TIP3   OH281150   6.173   4.256   1.550 -0.9682 -0.1746  0.3651
19912TIP3    H181151   6.183   4.180   1.608 -0.3706 -1.7107 -1.6798
19912TIP3    H281152   6.262   4.275   1.520 -1.2904  0.4340 -0.2271
19913TIP3   OH281153   6.436   0.999  13.990 -0.4341  0.2569 -0.1530
19913TIP3    H181154   6.507   1.063  13.999 -1.2115  0.9944  0.8182
19913TIP3    H281155   6.478   0.922  13.951  1.2270  0.1172  1.8483
19914TIP3   OH281156   4.952   4.253   5.953 -0.0317 -0.1586 -0.0752
19914TIP3    H181157   4.950   4.166   5.991 -0.4097  0.0165  0.3113
19914TIP3    H281158   4.863   4.286   5.963  0.4209  0.7677  0.9438
19915TIP3   OH281159   4.172   1.483  13.946  0.1712  0.4934  0.1842
19915TIP3    H181160   4.251   1.444  13.908  0.0355  0.2786  0.1167
19915TIP3    H281161   4.198   1.510  14.034  1.4881  4.2190 -1.2267
19916TIP3   OH281162   2.636   3.734   3.193 -0.1811 -0.2984  0.1030
19916TIP3    H181163   2.686   3.666   3.148 -1.4255  0.1817 -2.0991
19916TIP3    H281164   2.700   3.779   3.248  0.9819 -2.1698  0.3234
19917TIP3   OH281165   3.740   1.246  16.786 -0.1023 -0.1666  0.0998
19917TIP3    H181166   3.759   1.316  16.723  2.4691 -0.2747  0.6973
19917TIP3    H281167   3.647   1.256  16.805  0.5139  4.0718  1.3568
19918TIP3   OH281168   1.242   2.913  14.320  0.0708 -0.4222  0.4209
19918TIP3    H181169   1.266   2.931  14.229 -0.3890  0.5782  0.4924
19918TIP3    H281170   1.316   2.946  14.371 -0.7696  1.3227  0.5530
19919TIP3   OH281171   0.043   4.101   5.630 -0.0656 -0.2013 -0.3149
19919TIP3    H181172   0.070   4.109   5.539 -1.6506 -1.6132 -0.9354
19919TIP3    H281173   0.098   4.032   5.667 -2.1605 -2.5073 -1.3564
19920TIP3   OH281174   1.399   6.663   6.607 -0.2884 -0.2656 -0.6623
19920TIP3    H181175   1.490   6.635   6.597 -0.9483 -3.1051  0.9027
19920TIP3    H281176   1.347   6.585   6.585 -2.2970  0.7679  0.2681
19921TIP3   OH281177   5.466   6.063  12.071 -0.3386  0.6193  0.2350
19921TIP3    H181178   5.428   6.123  12.136 -1.2171 -0.3086  0.5925
19921TIP3    H281179   5.537   6.019  12.117  0.1838  1.2292  0.0283
19922TIP3   OH281180   4.461   2.343   2.893  0.1833  0.3517 -0.6628
19922TIP3    H181181   4.541   2.370   2.939 -0.0234  0.7204 -0.5127
19922TIP3    H281182   4.425   2.425   2.857 -1.3186  0.5382  1.1741
19923TIP3   OH281183   2.614   5.928  15.870 -0.3846  0.0477 -0.0726
19923TIP3    H181184   2.700   5.894  15.894 -1.1177 -0.7453  1.4816
19923TIP3    H281185   2.565   5.852  15.839 -0.2986  0.6217 -1.6288
19924TIP3   OH281186   5.871   5.476  12.608  0.3117  0.4006  0.0527
19924TIP3    H181187   5.860   5.473  12.513 -0.2588  0.5433  0.1102
19924TIP3    H281188   5.857   5.385  12.637  0.6637  0.3240 -0.0164
19925TIP3   OH281189   0.071   3.798   2.485  0.9066 -0.3389  0.1660
19925TIP3    H181190   0.078   3.708   2.453 -1.1476 -0.8615  1.0832
19925TIP3    H281191  -0.006   3.833   2.441  0.6611  0.3736  1.1350
19926TIP3   OH281192   4.800   1.250   2.895 -0.2613  0.2884 -0.1605
19926TIP3    H181193   4.806   1.155   2.885 -0.7361  0.3944 -1.5571
19926TIP3    H281194   4.707   1.269   2.893 -0.0915  0.9839 -1.9236
19927TIP3   OH281195   1.838   2.007   0.752 -0.2425 -0.1900 -0.1027
19927TIP3    H181196   1.899   1.998   0.678 -0.7432  0.2797 -0.5773
19927TIP3    H281197   1.894   2.024   0.827  0.1492  1.6552 -0.7745
19928TIP3   OH281198   5.441   0.317  12.909  0.1918 -0.1776 -0.3939
19928TIP3    H181199   5.534   0.307  12.890 -0.1311 -0.1043 -2.0403
19928TIP3    H281200   5.439   0.378  12.983  1.4485 -0.0921 -0.4116
19929TIP3   OH281201   4.009   1.787  13.408 -0.7096 -0.3263 -0.4806
19929TIP3    H181202   3.931   1.829  13.371 -1.5684 -1.9854 -0.5776
19929TIP3    H281203   4.014   1.821  13.497 -1.4116 -0.0230 -0.5539
19930TIP3   OH281204   0.973   6.250   5.164  0.4762 -0.3691  0.1680
19930TIP3    H181205   0.925   6.308   5.105 -1.0674 -0.6254  1.1268
19930TIP3    H281206   1.051   6.224   5.115  1.9303  3.6068  0.2586
19931TIP3   OH281207   6.384   3.855   5.288 -0.1367 -0.0942 -0.3173
19931TIP3    H181208   6.316   3.918   5.310 -0.4324 -0.6619  0.4469
19931TIP3    H281209   6.433   3.896   5.217  1.0210  1.9437  1.5896
19932TIP3   OH281210   2.707   1.045   6.388  0.1360 -0.2081 -0.2903
19932TIP3    H181211   2.680   1.127   6.345 -0.2368  0.3713  1.0155
19932TIP3    H281212   2.640   0.982   6.363  0.5602 -0.1926 -1.5192
19933TIP3   OH281213   1.102   3.620  11.388 -0.4130  0.1405 -0.1910
19933TIP3    H181214   1.108   3.716  11.386 -0.7913  0.1646 -0.2120
19933TIP3    H281215   1.192   3.590  11.379 -0.4352  0.4668 -1.5367
19934TIP3   OH281216   1.426   3.852  12.772  0.2708  0.1291  0.4331
19934TIP3    H181217   1.441   3.882  12.682 -0.6523 -1.8171 -0.3817
19934TIP3    H281218   1.372   3.774  12.763  0.9330 -0.6124  2.6457
19935TIP3   OH281219   3.923   5.744  15.961 -0.8513  0.4242 -0.2257
19935TIP3    H181220   3.930   5.703  16.047 -1.5340 -0.2531 -0.4867
19935TIP3    H281221   4.007   5.788  15.948 -0.8493  0.7726  0.9102
19936TIP3   OH281222   4.145   5.902   1.399 -0.0600 -0.1855  0.3689
19936TIP3    H181223   4.142   5.843   1.324 -1.6215  0.6814 -0.2602
19936TIP3    H281224   4.188   5.851   1.468 -0.6335 -1.7623 -0.4225
19937TIP3   OH281225   0.324   3.180   4.125  0.3367 -0.4821  0.2847
19937TIP3    H181226   0.247   3.125   4.111  0.1328 -0.5925  1.7856
19937TIP3    H281227   0.342   3.172   4.218 -0.9902  3.6715  1.0112
19938TIP3   OH281228   2.025   1.722  13.023  0.5855  0.1582  0.6364
19938TIP3    H181229   2.103   1.777  13.033 -0.4295  2.0869 -1.3325
19938TIP3    H281230   1.959   1.765  13.077  0.6899 -1.1213  1.8128
19939TIP3   OH281231   1.390   1.090   0.867  0.3141  0.2580 -0.0048
19939TIP3    H181232   1.324   1.139   0.916  0.1209  0.9732 -0.9555
19939TIP3    H281233   1.338   1.028   0.815  0.2819  1.6496 -1.6803
19940TIP3   OH281234   1.614   0.236   0.288  0.0455 -0.2092 -0.1440
19940TIP3    H181235   1.626   0.218   0.194  0.6282  0.4274 -0.1961
19940TIP3    H281236   1.672   0.310   0.306 -0.0183 -0.3637  0.7360
19941TIP3   OH281237   2.212   1.411   0.177 -0.1096  0.7237  0.0243
19941TIP3    H181238   2.161   1.478   0.223  0.6836  2.9464 -2.2199
19941TIP3    H281239   2.271   1.460   0.120  1.1899 -1.8886 -0.9923
19942TIP3   OH281240   3.786   1.571  16.904  0.6991 -0.2971 -0.0095
19942TIP3    H181241   3.736   1.645  16.869  1.7700  0.0579 -0.7914
19942TIP3    H281242   3.796   1.511  16.830  2.1507  0.0176 -0.0676
19943TIP3   OH281243   5.031   6.052  14.524 -0.0660  0.1417  0.0678
19943TIP3    H181244   5.113   6.021  14.485  0.7873  1.7719  0.5508
19943TIP3    H281245   5.000   6.119  14.463 -1.4769 -1.0264 -0.5323
19944TIP3   OH281246   1.282   0.538  15.312 -0.6713  0.0084 -0.7242
19944TIP3    H181247   1.341   0.491  15.253  0.1016 -1.3239  1.0608
19944TIP3    H281248   1.217   0.473  15.338 -1.4530  0.7880 -0.6937
19945TIP3   OH281249   2.486   0.621   5.368 -0.3907  0.0309 -0.2595
19945TIP3    H181250   2.468   0.688   5.434  0.0966 -0.5206  0.4545
19945TIP3    H281251   2.403   0.610   5.321 -0.5731  0.8570 -0.1283
19946TIP3   OH281252   5.254   5.021  13.277  0.7018 -0.5756 -0.4319
19946TIP3    H181253   5.183   4.974  13.321  1.2417 -0.1376  0.9182
19946TIP3    H281254   5.331   4.964  13.290  0.8578 -0.4554 -0.8299
19947TIP3   OH281255   0.340   3.760  16.259  0.4629  0.0391  0.1660
19947TIP3    H181256   0.389   3.693  16.306 -1.3830 -1.6754 -0.2439
19947TIP3    H281257   0.309   3.715  16.180  0.3090  1.7608 -0.7565
19948TIP3   OH281258   3.051   2.310  15.283  0.3579  0.0616 -0.6047
19948TIP3    H181259   3.072   2.298  15.190  0.1735  1.9134 -0.9051
19948TIP3    H281260   3.092   2.393  15.306 -2.4424  1.3077  0.0888
19949TIP3   OH281261   0.746   2.183   1.622  0.0150  0.1436 -0.1700
19949TIP3    H181262   0.653   2.184   1.600 -0.1657  0.1255  0.5659
19949TIP3    H281263   0.750   2.142   1.708  0.6209  0.9195  0.1843
19950TIP3   OH281264   0.518   0.727  15.775  0.2121  0.4383 -0.5724
19950TIP3    H181265   0.448   0.770  15.824  0.4346  1.8394 -1.4527
19950TIP3    H281266   0.474   0.690  15.699 -0.0678 -1.3929  0.4589
19951TIP3   OH281267   5.760   6.104   2.958 -0.8116  0.1546 -0.0276
19951TIP3    H181268   5.794   6.100   2.868  0.0872 -0.5208  0.3349
19951TIP3    H281269   5.667   6.086   2.949 -0.8146  0.5559 -0.8794
19952TIP3   OH281270   6.318   4.153  13.310  0.5081 -0.1683  0.1113
19952TIP3    H181271   6.410   4.172  13.328  0.1966  0.0836  1.4859
19952TIP3    H281272   6.320   4.076  13.253  1.6005  0.5350 -0.8245
19953TIP3   OH281273   3.925   0.506  10.591  0.3041 -0.6481  0.3866
19953TIP3    H181274   3.874   0.569  10.540  1.0154  0.9739  1.6557
19953TIP3    H281275   4.016   0.522  10.567  0.4230 -1.9684 -0.1244
19954TIP3   OH281276   0.828   1.026   0.457 -0.5985  0.4291 -0.1497
19954TIP3    H181277   0.792   0.950   0.503 -1.7323  1.2337  0.3185
19954TIP3    H281278   0.751   1.075   0.428  0.1187  0.9587 -1.2000
19955TIP3   OH281279   1.864   3.800  12.853 -0.3579 -0.2192 -0.6460
19955TIP3    H181280   1.849   3.728  12.791 -0.8285  0.3759 -1.2346
19955TIP3    H281281   1.922   3.859  12.805 -0.1984 -0.0724 -0.2678
19956TIP3   OH281282   6.163   6.418  16.032 -0.3073  0.7223  0.0614
19956TIP3    H181283   6.190   6.404  16.123 -1.2597  0.4052  0.2984
19956TIP3    H281284   6.105   6.493  16.035  0.6512  1.4991 -0.4757
19957TIP3   OH281285   3.209   4.374   2.468 -0.3714 -0.2811 -0.1548
19957TIP3    H181286   3.299   4.364   2.438 -0.7989  0.1347 -1.6271
19957TIP3    H281287   3.181   4.459   2.434 -1.0798 -0.0597  0.9407
19958LIG      S81288   3.681   3.690  16.241  0.1701  0.0900 -0.4955
19958LIG     N181289   3.403   3.320  16.522 -0.0536  0.5765  0.1537
19958LIG     N281290   3.437   3.502  16.278 -0.1933 -0.0245  0.8727
19958LIG     N381291   3.280   2.942  16.809  0.5576  0.1563  0.0522
19958LIG     C181292   3.351   3.246  16.398 -0.8410 -0.5592 -0.6058
19958LIG     C281293   3.244   3.336  16.330  0.7288  0.1054 -0.9236
19958LIG     C381294   3.294   3.481  16.312 -0.6032  0.5637 -0.1515
19958LIG     C481295   3.524   3.501  16.386 -0.0020  0.4389  0.0878
19958LIG     C581296   3.506   3.419  16.501  0.1647 -0.7268 -0.8147
19958LIG     C681297   3.346   3.289  16.651  0.8943 -0.0830 -0.0074
19958LIG     C781298   3.366   3.137  16.684  0.3891  0.5020 -1.3327
19958LIG     C881299   3.499   3.499  16.147 -0.2068  0.7376  0.1906
19958LIG     C981300   3.636   3.594  16.382 -0.3510 -0.6301  0.8478
19958LIG    C1081301   3.612   3.426  16.604  0.3359 -0.5133  0.2794
19958LIG    C1181302   3.283   3.090  16.807  0.1670  0.2840 -0.7415
19958LIG    C1281303   3.616   3.582  16.120  0.2761 -0.4829 -0.9038
19958LIG    C1381304   3.735   3.595  16.484 -0.1832  0.3009 -0.5684
19958LIG    C1481305   3.722   3.515  16.594 -0.0967  0.6742  0.0214
19958LIG    C1581306   3.458   3.411  16.051  0.3079 -0.6466  0.5143
19958LIG    C1681307   3.690   3.551  16.006 -0.4709 -0.3727 -0.3247
19958LIG    C1781308   3.530   3.397  15.928 -0.5242  0.4453  0.3048
19958LIG    C1881309   3.646   3.465  15.908  0.2105 -0.2623 -0.0503
19958LIG    C1981310   3.410   2.891  16.839  0.0856  0.0474 -0.8183
19958LIG    C2081311   3.202   2.892  16.692  0.2722  0.8377 -0.1670
19958LIG     H181312   3.313   3.143  16.412  0.3121 -0.9911 -0.5626
19958LIG     H281313   3.442   3.240  16.335  0.1945  0.4237  0.7584
19958LIG     H381314   3.149   3.343  16.388  0.7901  1.9755 -1.0143
19958LIG     H481315   3.211   3.285  16.237 -1.3954 -0.9751  0.3654
19958LIG     H581316   3.240   3.535  16.231  0.2268  2.0533  0.2648
19958LIG     H681317   3.280   3.544  16.403  2.7111  0.3961  0.5531
19958LIG     H781318   3.239   3.312  16.635  1.4776  1.8887 -1.3395
19958LIG     H881319   3.384   3.354  16.732 -2.8689 -0.1825  1.9081
19958LIG     H981320   3.469   3.118  16.723  1.1091  1.1427 -2.8907
19958LIG    H1081321   3.363   3.073  16.593 -0.0974 -0.1318 -0.8739
19958LIG    H1181322   3.603   3.371  16.696 -1.4683 -0.0980  0.3700
19958LIG    H1281323   3.315   3.131  16.905 -1.9751 -0.2198  0.2085
19958LIG    H1381324   3.174   3.112  16.797  0.3008  0.5698 -1.6666
19958LIG    H1481325   3.828   3.650  16.481  1.6616 -2.7595 -2.3765
19958LIG    H1581326   3.783   3.527  16.682 -0.4496  0.0690  0.3577
19958LIG    H1681327   3.369   3.356  16.078  1.6627 -2.5126  1.2429
19958LIG    H1781328   3.775   3.614  15.983 -0.9712 -0.4480 -2.4895
19958LIG    H1881329   3.502   3.320  15.858  0.0938  0.5193 -0.0303
19958LIG    H1981330   3.705   3.464  15.817  0.0138 -1.7656 -0.1585
19958LIG    H2081331   3.419   2.781  16.828 -0.2534 -0.1618  0.8840
19958LIG    H2181332   3.438   2.909  16.944 -1.7069 -2.1045  0.0754
19958LIG    H2281333   3.496   2.937  16.786 -1.0400  0.2401 -2.5579
19958LIG    H2381334   3.269   2.853  16.613 -0.9805  0.0472 -0.8638
19958LIG    H2481335   3.148   2.978  16.648  0.9146  0.3013 -2.0164
19958LIG    H2581336   3.129   2.812  16.719 -0.1809  1.1702 -0.4010
   6.78697   6.78697  17.23950
